Title
43194
    1CHL1    C3    1   4.279   6.780   5.794  0.4400 -0.7553  1.0253
    1CHL1    H3    2   4.187   6.764   5.734  0.4572 -1.8975  1.2851
    1CHL1    O3    3   4.271   6.722   5.925  0.2718  0.8163 -0.6489
    1CHL1   H3'    4   4.214   6.782   5.975  2.5520  0.7436  2.3234
    1CHL1    C4    5   4.399   6.719   5.711  0.7226 -0.3284  0.4148
    1CHL1   H4A    6   4.495   6.736   5.765  0.1619 -2.0655  2.0710
    1CHL1   H4B    7   4.398   6.608   5.711  0.5615 -0.3610  2.1680
    1CHL1    C5    8   4.407   6.784   5.569  0.1263  0.1217  0.4052
    1CHL1    C6    9   4.396   6.711   5.455 -1.0256  0.0434  0.9101
    1CHL1    H6   10   4.396   6.601   5.451  0.5025 -0.0505  2.3752
    1CHL1    C7   11   4.406   6.768   5.312  0.1229  0.2645  0.2775
    1CHL1   H7A   12   4.469   6.689   5.268  0.7545  0.7215  0.3492
    1CHL1   H7B   13   4.303   6.775   5.269 -0.6784  2.5341  2.3096
    1CHL1    C8   14   4.478   6.905   5.317 -0.4383  0.2375  0.2241
    1CHL1    H8   15   4.584   6.888   5.346 -0.6293 -1.1606  0.1754
    1CHL1   C14   16   4.474   6.966   5.180  0.6777 -0.2532 -0.0351
    1CHL1   H14   17   4.364   6.959   5.163  0.3371 -1.7659  2.2607
    1CHL1   C15   18   4.521   6.879   5.063  0.0398 -0.1376  0.3587
    1CHL1  H15A   19   4.627   6.849   5.078  0.4233  1.1366  0.2606
    1CHL1  H15B   20   4.464   6.788   5.032  1.6395 -1.4832  1.1921
    1CHL1   C16   21   4.535   6.984   4.947  0.1757  0.1868  1.3397
    1CHL1  H16A   22   4.633   6.973   4.896  0.5883  2.1000  1.6712
    1CHL1  H16B   23   4.450   6.960   4.879 -1.9097 -0.0999  3.9104
    1CHL1   C17   24   4.517   7.127   5.013  0.1683  0.0242 -0.3447
    1CHL1   H17   25   4.411   7.149   4.989 -0.1255 -2.5517 -1.7308
    1CHL1   C13   26   4.530   7.108   5.169 -1.0717  0.3087  0.6123
    1CHL1   C18   27   4.685   7.113   5.207  0.3591  0.0165  0.1208
    1CHL1  H18A   28   4.745   7.058   5.132  1.8371  2.2385 -0.4242
    1CHL1  H18B   29   4.720   7.215   5.183  1.0256  0.0910  1.3143
    1CHL1  H18C   30   4.703   7.081   5.312  0.0387 -0.0467  0.1604
    1CHL1   C12   31   4.443   7.199   5.258  0.3646  0.4844  0.2662
    1CHL1  H12A   32   4.483   7.302   5.263  0.0910  0.6613 -0.8770
    1CHL1  H12B   33   4.337   7.216   5.230 -0.2692 -0.7354  1.7964
    1CHL1   C11   34   4.450   7.145   5.405 -0.0707  0.1297  0.7138
    1CHL1  H11A   35   4.550   7.162   5.450 -0.0651  1.4834  0.2497
    1CHL1  H11B   36   4.380   7.211   5.461 -1.3251 -1.6697  1.3521
    1CHL1    C9   37   4.410   6.998   5.421  0.6981  0.2200 -1.0229
    1CHL1    H9   38   4.301   6.988   5.401  0.1513 -0.4610  1.8436
    1CHL1   C10   39   4.419   6.940   5.569  0.8323 -0.2654 -0.1817
    1CHL1   C19   40   4.553   6.974   5.636  0.2707 -0.3894  0.1758
    1CHL1  H19A   41   4.558   7.085   5.643 -2.8375 -0.2950  3.8992
    1CHL1  H19B   42   4.563   6.925   5.735 -0.2662 -1.4917 -0.2997
    1CHL1  H19C   43   4.624   6.924   5.567 -1.7347 -2.2086 -0.6812
    1CHL1    C1   44   4.302   6.996   5.655  0.2721  0.1147  0.4690
    1CHL1   H1A   45   4.313   7.106   5.655 -0.8356  0.3325 -2.6368
    1CHL1   H1B   46   4.207   6.981   5.599  0.0324 -0.9397  1.1430
    1CHL1    C2   47   4.294   6.937   5.796 -0.3826  0.2585  0.5828
    1CHL1   H2A   48   4.205   6.979   5.848 -0.8283  0.7333 -0.5244
    1CHL1   H2B   49   4.386   6.958   5.855  1.1345 -0.0170 -1.5763
    1CHL1   C20   50   4.605   7.227   4.935 -0.3752 -1.0425 -0.1968
    1CHL1   H20   51   4.712   7.201   4.951 -0.3815  0.7044  3.8650
    1CHL1   C21   52   4.581   7.371   4.988 -0.1492 -0.1103  0.0131
    1CHL1  H21A   53   4.639   7.444   4.927 -0.7582 -0.9143 -1.5774
    1CHL1  H21B   54   4.601   7.376   5.098 -0.1604 -1.8504  0.1160
    1CHL1  H21C   55   4.479   7.412   4.979  0.8174  2.1009 -1.8808
    1CHL1   C22   56   4.575   7.218   4.782 -0.0090 -0.3485  0.8070
    1CHL1  H22A   57   4.600   7.119   4.738 -0.3084  0.9462 -2.5646
    1CHL1  H22B   58   4.466   7.227   4.766  0.2778  1.9235 -0.4660
    1CHL1   C23   59   4.660   7.314   4.698 -0.7511 -0.5001 -0.2001
    1CHL1  H23A   60   4.620   7.418   4.698  0.5508  0.0497  1.6142
    1CHL1  H23B   61   4.759   7.323   4.747 -1.2569 -3.5643  1.6277
    1CHL1   C24   62   4.677   7.266   4.552 -0.0051 -0.3567  0.1443
    1CHL1  H24A   63   4.699   7.158   4.541 -0.1756 -0.3833  0.0769
    1CHL1  H24B   64   4.577   7.287   4.510 -0.3171 -1.9000  0.0729
    1CHL1   C25   65   4.765   7.357   4.469 -0.1603 -0.2207 -0.2375
    1CHL1   H25   66   4.872   7.348   4.499 -0.0637 -1.7517 -0.9470
    1CHL1   C26   67   4.768   7.316   4.317  0.2637 -0.0497  0.3004
    1CHL1  H26A   68   4.791   7.208   4.317 -1.0208 -0.3307  0.5131
    1CHL1  H26B   69   4.676   7.341   4.260  1.6188  2.6262 -0.8958
    1CHL1  H26C   70   4.849   7.373   4.266 -1.3555  3.4932  1.3567
    1CHL1   C27   71   4.716   7.505   4.470 -0.0349 -0.6326 -0.3640
    1CHL1  H27A   72   4.786   7.564   4.407 -0.5682  0.1705 -0.2164
    1CHL1  H27B   73   4.612   7.501   4.431 -0.0757 -1.0503 -0.2259
    1CHL1  H27C   74   4.714   7.548   4.572  1.4732 -0.5150 -0.3674
    2CHL1    C3   75   5.830   3.791   5.964 -0.5464  0.2004 -0.1749
    2CHL1    H3   76   5.836   3.681   5.957  1.8409  0.3789 -2.3589
    2CHL1    O3   77   5.886   3.838   6.085  0.7427  0.0756  0.5690
    2CHL1   H3'   78   5.836   3.794   6.155  0.4726 -0.5207  0.0091
    2CHL1    C4   79   5.909   3.858   5.849  0.4658  0.2387 -0.1597
    2CHL1   H4A   80   5.910   3.968   5.860 -2.5248  0.4693 -1.1980
    2CHL1   H4B   81   6.008   3.818   5.879  0.2946  0.5448  0.8535
    2CHL1    C5   82   5.871   3.818   5.709  0.4183  0.2828 -0.3902
    2CHL1    C6   83   5.955   3.760   5.622 -0.5574 -0.8505 -0.0662
    2CHL1    H6   84   6.062   3.751   5.643 -0.4487 -0.6648 -0.5355
    2CHL1    C7   85   5.916   3.709   5.494  0.4090 -0.1423  0.5377
    2CHL1   H7A   86   5.992   3.721   5.414  0.2758  0.8248  0.5412
    2CHL1   H7B   87   5.899   3.600   5.509  1.1669 -0.4032 -0.4763
    2CHL1    C8   88   5.786   3.781   5.442 -0.0643  0.3692 -0.1857
    2CHL1    H8   89   5.804   3.888   5.419  1.7451  0.5389  1.7322
    2CHL1   C14   90   5.737   3.708   5.324 -0.6182  0.1023  0.2247
    2CHL1   H14   91   5.715   3.603   5.353  0.5625 -0.0216  0.6946
    2CHL1   C15   92   5.836   3.695   5.206 -0.6124  0.2282 -0.4948
    2CHL1  H15A   93   5.892   3.789   5.186  1.0169 -0.6898 -0.4225
    2CHL1  H15B   94   5.923   3.627   5.214 -1.1572 -0.4759 -0.4984
    2CHL1   C16   95   5.753   3.664   5.082  0.2570 -0.2411  0.1429
    2CHL1  H16A   96   5.774   3.737   5.001  1.3873  1.0876  1.5859
    2CHL1  H16B   97   5.770   3.563   5.038 -0.0459 -0.0757 -0.3717
    2CHL1   C17   98   5.598   3.671   5.128 -0.7774 -0.7203  0.2385
    2CHL1   H17   99   5.565   3.572   5.166 -0.7176 -1.8540 -2.4398
    2CHL1   C13  100   5.601   3.751   5.261 -0.6328 -0.4743  0.0918
    2CHL1   C18  101   5.609   3.901   5.221  0.2550 -0.5009 -0.2662
    2CHL1  H18A  102   5.512   3.947   5.191 -1.0886 -0.8172  3.1386
    2CHL1  H18B  103   5.656   3.957   5.304  0.6020 -0.8419 -0.2309
    2CHL1  H18C  104   5.687   3.910   5.142  0.1743 -2.1468 -0.5747
    2CHL1   C12  105   5.504   3.721   5.373 -0.0416 -0.4400  0.4600
    2CHL1  H12A  106   5.403   3.752   5.342 -0.2242 -0.6341  0.8485
    2CHL1  H12B  107   5.503   3.612   5.396  1.0708 -1.2589 -2.8762
    2CHL1   C11  108   5.545   3.805   5.500 -0.2436 -0.3114 -0.2239
    2CHL1  H11A  109   5.537   3.913   5.479  1.1045  0.0308  0.8891
    2CHL1  H11B  110   5.477   3.789   5.587  1.1804 -2.8500  0.5459
    2CHL1    C9  111   5.682   3.771   5.554  0.6859  0.4233 -0.1115
    2CHL1    H9  112   5.677   3.664   5.584  3.5659  0.5864  1.2777
    2CHL1   C10  113   5.715   3.839   5.682 -0.0761 -0.3015 -0.3917
    2CHL1   C19  114   5.696   3.998   5.673 -0.3116 -0.6233  0.2541
    2CHL1  H19A  115   5.735   4.057   5.759  0.8085  2.0150 -1.8936
    2CHL1  H19B  116   5.752   4.032   5.583  1.3798 -1.8056  0.8107
    2CHL1  H19C  117   5.587   4.017   5.663  0.2436  1.9915 -2.2881
    2CHL1    C1  118   5.634   3.783   5.804  0.0985 -0.3065 -0.9182
    2CHL1   H1A  119   5.531   3.824   5.802  1.0860  2.4429 -0.3775
    2CHL1   H1B  120   5.620   3.673   5.790 -0.6175 -0.4226  0.4977
    2CHL1    C2  121   5.680   3.829   5.947 -0.3643 -0.2375  0.0926
    2CHL1   H2A  122   5.616   3.776   6.021  0.9890 -1.3079  0.5481
    2CHL1   H2B  123   5.660   3.938   5.959 -4.4579 -0.7129 -0.8288
    2CHL1   C20  124   5.505   3.724   5.018 -0.2421 -0.3494 -0.2011
    2CHL1   H20  125   5.555   3.819   4.987 -1.3940  0.3341 -0.0459
    2CHL1   C21  126   5.366   3.755   5.067  0.1906 -0.2858  0.2638
    2CHL1  H21A  127   5.290   3.780   4.989 -0.5279 -1.0928  0.6872
    2CHL1  H21B  128   5.358   3.841   5.136 -0.5273  0.2914 -0.5200
    2CHL1  H21C  129   5.326   3.660   5.109 -0.8293 -0.9840 -2.1254
    2CHL1   C22  130   5.509   3.630   4.898  0.5312  0.3246 -0.2251
    2CHL1  H22A  131   5.613   3.607   4.868  0.3297 -0.6032 -0.2365
    2CHL1  H22B  132   5.470   3.528   4.919  0.0720  0.3802 -0.7732
    2CHL1   C23  133   5.438   3.685   4.774  0.1591 -0.4167  0.3265
    2CHL1  H23A  134   5.331   3.701   4.801  0.5411  0.4043  1.3895
    2CHL1  H23B  135   5.490   3.777   4.739 -0.6103  0.5501  1.6483
    2CHL1   C24  136   5.445   3.587   4.653  0.3669  0.0775 -0.8494
    2CHL1  H24A  137   5.553   3.567   4.635  0.5370 -1.1120  1.1386
    2CHL1  H24B  138   5.397   3.491   4.682  0.5358  0.1834 -0.1891
    2CHL1   C25  139   5.370   3.638   4.532 -0.2708  0.4326  0.3048
    2CHL1   H25  140   5.400   3.744   4.519  0.6778  0.5336  2.8356
    2CHL1   C26  141   5.410   3.554   4.405  0.2449 -0.1628 -0.6963
    2CHL1  H26A  142   5.519   3.561   4.383  0.2889 -1.2519 -0.9166
    2CHL1  H26B  143   5.384   3.447   4.421  0.9355 -0.2575 -0.1205
    2CHL1  H26C  144   5.356   3.596   4.318  0.6658 -0.6106 -1.1868
    2CHL1   C27  145   5.222   3.622   4.553 -0.0083 -0.3833 -0.4219
    2CHL1  H27A  146   5.193   3.515   4.559 -0.2346 -0.4544 -2.1843
    2CHL1  H27B  147   5.188   3.676   4.644 -0.7941  2.2862 -2.2029
    2CHL1  H27C  148   5.166   3.654   4.463  0.9441 -1.9009 -1.5979
    3CHL1    C3  149   3.326   5.647   5.813  0.2332  0.1020 -0.0863
    3CHL1    H3  150   3.365   5.545   5.834 -0.5914  0.0903  1.4756
    3CHL1    O3  151   3.287   5.709   5.937  0.7733 -0.1187  0.3378
    3CHL1   H3'  152   3.199   5.677   5.959  0.9049 -1.7336 -1.2282
    3CHL1    C4  153   3.433   5.737   5.746 -0.7640 -0.0247  0.1319
    3CHL1   H4A  154   3.381   5.834   5.732 -0.7791 -0.0823 -0.2341
    3CHL1   H4B  155   3.515   5.764   5.816 -0.7390  0.5645 -0.1191
    3CHL1    C5  156   3.475   5.684   5.608  0.0238 -0.0135 -0.4833
    3CHL1    C6  157   3.600   5.655   5.572 -0.4479 -0.1602  0.5211
    3CHL1    H6  158   3.686   5.674   5.637 -0.6434 -0.9033  1.0049
    3CHL1    C7  159   3.637   5.622   5.433 -0.4052  0.1096 -0.0478
    3CHL1   H7A  160   3.723   5.683   5.399 -0.3991 -0.1699 -0.5466
    3CHL1   H7B  161   3.671   5.516   5.438  2.4751  1.0105  0.8890
    3CHL1    C8  162   3.524   5.630   5.328  0.6914 -0.3529 -0.0889
    3CHL1    H8  163   3.531   5.736   5.295  2.2552 -0.0523  1.0901
    3CHL1   C14  164   3.551   5.547   5.202 -0.4419 -0.0069  0.3059
    3CHL1   H14  165   3.548   5.444   5.243  1.6226 -0.3816 -0.3428
    3CHL1   C15  166   3.690   5.569   5.147  0.0586  0.3646 -0.6143
    3CHL1  H15A  167   3.713   5.675   5.126 -4.5101  1.4858 -1.0116
    3CHL1  H15B  168   3.772   5.528   5.210 -0.7532 -1.2075 -0.5265
    3CHL1   C16  169   3.679   5.482   5.021  0.0522  0.7887  1.2372
    3CHL1  H16A  170   3.716   5.524   4.926 -2.1241 -0.4787 -0.2538
    3CHL1  H16B  171   3.720   5.381   5.046  1.9471  0.5304 -2.3378
    3CHL1   C17  172   3.523   5.465   4.986  0.6030 -0.1824 -0.1899
    3CHL1   H17  173   3.506   5.363   5.025 -1.8372 -0.6779 -2.2432
    3CHL1   C13  174   3.453   5.559   5.086 -0.1353  0.8801 -0.8052
    3CHL1   C18  175   3.443   5.701   5.033 -0.1404 -0.6891 -0.1244
    3CHL1  H18A  176   3.369   5.711   4.950 -0.9727  0.8992  0.7611
    3CHL1  H18B  177   3.427   5.765   5.122  1.1513  0.7748 -0.9065
    3CHL1  H18C  178   3.545   5.712   4.992 -1.0895  0.4294 -2.3478
    3CHL1   C12  179   3.316   5.510   5.142 -0.6170 -0.5075  0.5729
    3CHL1  H12A  180   3.242   5.527   5.061 -0.5373  0.2583  0.6504
    3CHL1  H12B  181   3.318   5.401   5.163 -1.6586 -0.5023  0.7697
    3CHL1   C11  182   3.280   5.583   5.272  0.5935  0.0658  0.3258
    3CHL1  H11A  183   3.244   5.680   5.231 -0.6102  0.0942  1.3989
    3CHL1  H11B  184   3.194   5.527   5.315 -0.1784 -0.1919 -1.4617
    3CHL1    C9  185   3.389   5.587   5.381 -0.4404  0.1251  0.5235
    3CHL1    H9  186   3.398   5.480   5.408  1.3396 -0.0116 -0.4950
    3CHL1   C10  187   3.352   5.667   5.505 -0.0209 -0.3870 -0.9742
    3CHL1   C19  188   3.302   5.805   5.457  0.3805 -0.4285 -1.0783
    3CHL1  H19A  189   3.212   5.793   5.393  0.5231  1.1595 -1.5969
    3CHL1  H19B  190   3.256   5.855   5.545  1.4952  1.0775 -1.3163
    3CHL1  H19C  191   3.377   5.867   5.405  0.7565  0.7822  0.8281
    3CHL1    C1  192   3.234   5.600   5.589  0.3737  0.4100 -0.3673
    3CHL1   H1A  193   3.138   5.593   5.535 -0.2227 -2.1901  0.9081
    3CHL1   H1B  194   3.272   5.496   5.599 -1.5047 -0.4264 -1.4085
    3CHL1    C2  195   3.206   5.639   5.730  0.1822 -0.7291  0.4753
    3CHL1   H2A  196   3.138   5.563   5.774  1.5874 -2.9338 -0.9900
    3CHL1   H2B  197   3.156   5.737   5.715  4.3063  1.2934 -1.7541
    3CHL1   C20  198   3.480   5.459   4.841  0.1673 -0.3541 -0.2006
    3CHL1   H20  199   3.371   5.461   4.825  0.5845 -0.4645 -3.8443
    3CHL1   C21  200   3.524   5.318   4.788  0.2009  0.5101  0.3823
    3CHL1  H21A  201   3.482   5.244   4.859  2.4443  0.3311  1.6188
    3CHL1  H21B  202   3.634   5.310   4.785  0.2217  1.0321 -1.7590
    3CHL1  H21C  203   3.482   5.291   4.689 -0.8960 -1.2812  1.2844
    3CHL1   C22  204   3.536   5.570   4.749  0.2195  0.0750  0.2087
    3CHL1  H22A  205   3.516   5.671   4.790 -3.4812 -0.3807 -0.1523
    3CHL1  H22B  206   3.645   5.567   4.731  0.6229  1.1078  2.2215
    3CHL1   C23  207   3.457   5.587   4.615 -0.1839 -0.0126  0.2900
    3CHL1  H23A  208   3.474   5.490   4.564  0.0086 -0.3149  0.9273
    3CHL1  H23B  209   3.350   5.604   4.638 -0.7553 -1.0659 -1.3805
    3CHL1   C24  210   3.513   5.704   4.533 -0.0080 -0.1242  0.4928
    3CHL1  H24A  211   3.503   5.796   4.594  0.2205 -0.2231  0.6827
    3CHL1  H24B  212   3.623   5.699   4.514 -0.3558  0.2737 -1.9840
    3CHL1   C25  213   3.436   5.718   4.397  0.3608  0.2058  0.9284
    3CHL1   H25  214   3.474   5.808   4.346  0.9175 -0.7485 -0.4097
    3CHL1   C26  215   3.460   5.604   4.297 -0.9203 -0.1534 -0.5903
    3CHL1  H26A  216   3.416   5.509   4.335 -0.8265 -0.1710 -0.5256
    3CHL1  H26B  217   3.409   5.622   4.200 -0.7577 -0.3222 -0.7079
    3CHL1  H26C  218   3.569   5.583   4.287 -1.0022  0.3651 -3.1757
    3CHL1   C27  219   3.283   5.751   4.412  0.0770  0.3009  0.1384
    3CHL1  H27A  220   3.255   5.805   4.505  0.1916  2.7251 -1.1382
    3CHL1  H27B  221   3.237   5.810   4.329 -0.9973  2.6818  2.2858
    3CHL1  H27C  222   3.232   5.653   4.419  2.6994 -1.1816 -0.2995
    4CHL1    C3  223   4.014   5.922   5.774  0.4863 -0.4629 -0.7885
    4CHL1    H3  224   3.914   5.938   5.729  0.8416  2.6013 -0.7149
    4CHL1    O3  225   3.999   5.924   5.919  0.0593 -0.1261  0.2463
    4CHL1   H3'  226   3.996   5.832   5.948 -1.0977  0.0807  0.8786
    4CHL1    C4  227   4.067   5.794   5.716 -0.3515  0.6990 -0.0233
    4CHL1   H4A  228   4.161   5.774   5.770 -0.4300  2.2959  0.7666
    4CHL1   H4B  229   3.995   5.716   5.750 -1.1076  1.3343 -0.1298
    4CHL1    C5  230   4.078   5.793   5.568 -0.3020 -0.9428 -0.4752
    4CHL1    C6  231   4.027   5.697   5.491  0.0306 -0.2255 -0.1586
    4CHL1    H6  232   3.968   5.615   5.535  1.0086 -1.4510 -1.0449
    4CHL1    C7  233   4.026   5.705   5.339 -0.6701  0.2169  0.1310
    4CHL1   H7A  234   4.043   5.608   5.288 -0.7422  0.2737 -0.0021
    4CHL1   H7B  235   3.926   5.746   5.312 -0.7321  0.9708  1.4028
    4CHL1    C8  236   4.127   5.806   5.286  0.2461 -0.1436  0.3571
    4CHL1    H8  237   4.230   5.766   5.297  1.4848  2.1989 -1.8936
    4CHL1   C14  238   4.088   5.832   5.142  0.0322  0.5803  0.1315
    4CHL1   H14  239   3.983   5.869   5.148 -0.4267  0.0372 -2.8984
    4CHL1   C15  240   4.066   5.719   5.042 -0.7617  1.0190  0.5754
    4CHL1  H15A  241   4.154   5.651   5.051 -1.5618 -0.0829  0.3351
    4CHL1  H15B  242   3.975   5.657   5.059 -0.1534  0.0215  0.3385
    4CHL1   C16  243   4.064   5.789   4.904 -0.2746 -0.1559  0.4380
    4CHL1  H16A  244   4.127   5.749   4.822 -1.6166  1.7155 -1.5999
    4CHL1  H16B  245   3.962   5.771   4.864 -1.9121 -1.8396  4.6952
    4CHL1   C17  246   4.104   5.936   4.928  0.1411 -0.0661  0.0813
    4CHL1   H17  247   4.010   5.994   4.948  0.1657 -0.4517  1.4015
    4CHL1   C13  248   4.174   5.936   5.066 -0.2049  1.0469  0.8091
    4CHL1   C18  249   4.314   5.865   5.048  0.1366 -0.3701 -0.0797
    4CHL1  H18A  250   4.322   5.796   4.962  1.6284  1.8357 -1.8207
    4CHL1  H18B  251   4.385   5.942   5.012 -1.2739  0.2870 -1.5374
    4CHL1  H18C  252   4.355   5.821   5.142  0.1442 -0.7107 -0.2427
    4CHL1   C12  253   4.171   6.064   5.140 -0.1170 -0.2649 -0.6218
    4CHL1  H12A  254   4.252   6.126   5.096  0.4534 -0.2268  0.4280
    4CHL1  H12B  255   4.072   6.112   5.128 -1.3429 -1.8864  2.0106
    4CHL1   C11  256   4.210   6.046   5.289  0.1388 -0.2772 -0.6492
    4CHL1  H11A  257   4.314   6.008   5.283 -0.4999 -2.1701 -0.2970
    4CHL1  H11B  258   4.201   6.144   5.339  1.4201  0.0152 -0.9476
    4CHL1    C9  259   4.121   5.938   5.357 -0.7847  0.1130 -0.3120
    4CHL1    H9  260   4.018   5.979   5.357 -0.6862  0.6635  3.3022
    4CHL1   C10  261   4.149   5.919   5.508 -1.4532 -0.1646 -0.1522
    4CHL1   C19  262   4.305   5.907   5.532 -0.1390 -0.4997 -0.3584
    4CHL1  H19A  263   4.351   5.832   5.464 -1.2812 -2.1086  0.5811
    4CHL1  H19B  264   4.355   6.004   5.510  0.2910 -0.2359  1.6408
    4CHL1  H19C  265   4.327   5.894   5.640  1.6762 -1.9183 -0.8625
    4CHL1    C1  266   4.109   6.049   5.583  0.0506 -0.2832  0.1807
    4CHL1   H1A  267   4.171   6.133   5.545 -1.7096  1.3716  0.8256
    4CHL1   H1B  268   4.004   6.056   5.548  0.0272  1.0677  0.4441
    4CHL1    C2  269   4.105   6.036   5.735  0.0452 -0.4354 -0.0204
    4CHL1   H2A  270   4.066   6.129   5.780  1.3709 -0.3386  0.9988
    4CHL1   H2B  271   4.205   6.022   5.781  0.5645  3.9418  0.5665
    4CHL1   C20  272   4.183   6.005   4.816  0.5365  0.5987  0.2112
    4CHL1   H20  273   4.284   5.960   4.824  0.2195 -0.4278 -1.1894
    4CHL1   C21  274   4.185   6.158   4.825 -0.2303  0.6557 -0.0299
    4CHL1  H21A  275   4.235   6.199   4.735 -0.7390 -1.0315 -1.1185
    4CHL1  H21B  276   4.238   6.206   4.911 -0.1431  1.0817 -0.3179
    4CHL1  H21C  277   4.085   6.206   4.830  0.0499  1.2856 -0.3074
    4CHL1   C22  278   4.135   5.971   4.667 -0.3678  0.3401  0.4627
    4CHL1  H22A  279   4.204   6.008   4.588  0.3358  1.6029  1.6174
    4CHL1  H22B  280   4.132   5.860   4.665 -0.3941  0.3425  0.3937
    4CHL1   C23  281   3.994   6.030   4.631 -0.2003  0.2631  0.1539
    4CHL1  H23A  282   3.919   6.008   4.709  0.1500 -2.8985 -0.2395
    4CHL1  H23B  283   4.006   6.137   4.606 -1.9557  0.3365 -0.5231
    4CHL1   C24  284   3.953   5.960   4.491  0.6353  0.2477 -0.6090
    4CHL1  H24A  285   4.050   5.942   4.439  1.1047 -2.1667  0.9302
    4CHL1  H24B  286   3.914   5.858   4.511  0.7847 -0.2368 -2.5815
    4CHL1   C25  287   3.844   6.035   4.404 -0.1197 -0.7867 -0.1215
    4CHL1   H25  288   3.887   6.128   4.360  0.4100 -0.5158  0.9465
    4CHL1   C26  289   3.798   5.937   4.292 -0.0866 -0.7111 -0.6558
    4CHL1  H26A  290   3.870   5.925   4.208  0.6945  0.5125 -0.1873
    4CHL1  H26B  291   3.764   5.835   4.321 -0.8333 -0.3649 -0.2764
    4CHL1  H26C  292   3.700   5.973   4.255 -0.5288 -0.9288  0.2577
    4CHL1   C27  293   3.732   6.072   4.494  0.3871 -0.2841 -0.4310
    4CHL1  H27A  294   3.652   6.130   4.443 -1.2522 -0.9828  1.2508
    4CHL1  H27B  295   3.687   5.982   4.540  1.0933 -1.7936 -2.5544
    4CHL1  H27C  296   3.772   6.133   4.578  1.1605 -3.2801  1.5010
    5CHL1    C3  297   4.710   1.661   6.205 -0.3393 -0.1493 -0.4927
    5CHL1    H3  298   4.610   1.615   6.223  0.2146 -0.5956  1.8154
    5CHL1    O3  299   4.787   1.652   6.328 -0.0517 -0.5461  0.3019
    5CHL1   H3'  300   4.855   1.717   6.310 -0.2316 -0.4258  0.0629
    5CHL1    C4  301   4.783   1.579   6.095  0.2947  0.3075 -0.7471
    5CHL1   H4A  302   4.891   1.604   6.096  0.9377 -2.1614  0.8260
    5CHL1   H4B  303   4.781   1.469   6.112 -0.1276  0.0689 -2.1900
    5CHL1    C5  304   4.734   1.606   5.955  0.8947  0.0186  0.1686
    5CHL1    C6  305   4.682   1.515   5.874 -0.4447 -0.3294  0.3388
    5CHL1    H6  306   4.677   1.410   5.905  3.8239 -0.6637  0.4592
    5CHL1    C7  307   4.623   1.544   5.738  0.2938 -0.0770  0.4154
    5CHL1   H7A  308   4.650   1.463   5.666 -0.2857  0.9233 -0.9822
    5CHL1   H7B  309   4.512   1.546   5.744  0.1300 -0.9821 -1.5512
    5CHL1    C8  310   4.668   1.687   5.679  0.1679  0.1809 -0.4924
    5CHL1    H8  311   4.772   1.666   5.648  0.8680  1.4887  0.8345
    5CHL1   C14  312   4.589   1.732   5.556 -0.3942 -0.3629  0.3546
    5CHL1   H14  313   4.486   1.737   5.597 -0.2271  0.4399  0.6884
    5CHL1   C15  314   4.576   1.623   5.437  0.0523 -0.5885 -0.1879
    5CHL1  H15A  315   4.673   1.569   5.435  0.2722 -0.3233  1.8140
    5CHL1  H15B  316   4.493   1.551   5.455 -1.7673  1.5982  0.7458
    5CHL1   C16  317   4.544   1.704   5.312  0.0132 -0.0289 -0.6333
    5CHL1  H16A  318   4.622   1.687   5.235 -1.6123 -2.1022 -1.9222
    5CHL1  H16B  319   4.455   1.674   5.254  0.1149  1.1580 -1.4417
    5CHL1   C17  320   4.546   1.857   5.359  0.4043  0.3442  0.0891
    5CHL1   H17  321   4.438   1.866   5.385  0.4312  0.0391  0.3078
    5CHL1   C13  322   4.634   1.861   5.485 -0.3861 -0.3286  0.0995
    5CHL1   C18  323   4.781   1.839   5.442  0.1474 -0.9929 -0.3902
    5CHL1  H18A  324   4.847   1.838   5.531  1.9093  4.3274 -1.2815
    5CHL1  H18B  325   4.812   1.749   5.385  1.5123  0.3017 -1.7679
    5CHL1  H18C  326   4.824   1.925   5.387  2.3170 -1.4962  0.4448
    5CHL1   C12  327   4.614   1.971   5.592 -0.8742  0.5859 -0.0819
    5CHL1  H12A  328   4.649   2.075   5.571 -0.1986  1.0695  3.0205
    5CHL1  H12B  329   4.507   1.988   5.618 -0.6069  1.9864  0.1728
    5CHL1   C11  330   4.687   1.932   5.727 -0.4959  0.0456  0.0879
    5CHL1  H11A  331   4.796   1.946   5.715 -0.6649 -0.2652 -2.0664
    5CHL1  H11B  332   4.666   2.015   5.798 -0.7554  1.7666 -1.9084
    5CHL1    C9  333   4.657   1.790   5.786  0.0545 -0.2833 -0.2462
    5CHL1    H9  334   4.547   1.794   5.802 -0.1724  0.7718 -1.7890
    5CHL1   C10  335   4.726   1.758   5.920  0.1284 -0.1193 -0.0147
    5CHL1   C19  336   4.874   1.809   5.916  0.0602  0.7023  0.3743
    5CHL1  H19A  337   4.946   1.756   5.982  0.0763 -2.3577 -1.8782
    5CHL1  H19B  338   4.927   1.771   5.826  0.3270 -1.7097  1.4680
    5CHL1  H19C  339   4.884   1.917   5.940 -1.0715  0.1216  4.0845
    5CHL1    C1  340   4.643   1.831   6.029 -0.5537 -0.5154  0.5695
    5CHL1   H1A  341   4.641   1.940   6.010  1.3413 -0.9110 -2.6154
    5CHL1   H1B  342   4.540   1.790   6.024 -1.0828  0.5826  1.9468
    5CHL1    C2  343   4.695   1.813   6.177 -0.0414  0.6465 -0.5558
    5CHL1   H2A  344   4.628   1.857   6.255  3.9886 -1.2560  4.5579
    5CHL1   H2B  345   4.796   1.859   6.181 -0.0681  0.6233  1.1228
    5CHL1   C20  346   4.579   1.954   5.240 -0.1107 -0.2493  0.4963
    5CHL1   H20  347   4.678   1.922   5.203 -1.6281 -3.3575 -1.2227
    5CHL1   C21  348   4.567   2.106   5.274 -0.4911  0.1720 -0.2353
    5CHL1  H21A  349   4.467   2.125   5.318 -0.5744  2.4255 -1.2719
    5CHL1  H21B  350   4.589   2.174   5.189 -0.2854  0.6046  0.1601
    5CHL1  H21C  351   4.640   2.128   5.355  0.1626 -0.4153 -0.6478
    5CHL1   C22  352   4.487   1.923   5.121  0.2623  0.7918 -0.0806
    5CHL1  H22A  353   4.494   1.817   5.090 -0.6247  0.2365  1.5313
    5CHL1  H22B  354   4.383   1.942   5.156 -0.5107  0.1851 -1.9095
    5CHL1   C23  355   4.522   2.007   4.998  0.0319  0.5319 -0.9316
    5CHL1  H23A  356   4.496   2.114   5.013 -1.5584 -0.0254  0.7618
    5CHL1  H23B  357   4.630   1.999   4.977 -0.1074 -0.9360 -1.2553
    5CHL1   C24  358   4.461   1.948   4.867  0.2711 -0.4487 -0.0285
    5CHL1  H24A  359   4.488   1.841   4.857 -1.6634 -1.1120  1.2419
    5CHL1  H24B  360   4.350   1.941   4.878  0.2847 -0.3920  0.1426
    5CHL1   C25  361   4.488   2.038   4.743  0.1016 -0.0273  0.8220
    5CHL1   H25  362   4.596   2.045   4.715  0.2200 -0.4721  1.1646
    5CHL1   C26  363   4.419   1.974   4.624  0.2539 -0.2824  0.3767
    5CHL1  H26A  364   4.414   1.863   4.630  0.4801 -0.2326  2.1003
    5CHL1  H26B  365   4.321   2.022   4.601 -0.3412 -1.9849 -0.8940
    5CHL1  H26C  366   4.479   1.989   4.532  1.5037 -0.2208  1.1768
    5CHL1   C27  367   4.443   2.188   4.747  0.3126 -0.4070 -0.6118
    5CHL1  H27A  368   4.336   2.206   4.773  0.5630  4.0045 -1.9531
    5CHL1  H27B  369   4.509   2.238   4.821 -0.7146  0.0144  0.0498
    5CHL1  H27C  370   4.463   2.234   4.648  0.2146  0.5960 -0.1762
    6CHL1    C3  371   3.373   1.218   5.655  0.5362  0.3152  0.3732
    6CHL1    H3  372   3.339   1.115   5.630 -0.8922  1.2315 -1.7235
    6CHL1    O3  373   3.396   1.222   5.793 -0.0622  0.0918  0.0551
    6CHL1   H3'  374   3.318   1.260   5.834  0.4640  2.0293 -0.6048
    6CHL1    C4  375   3.505   1.237   5.571  0.6659 -0.4075  0.2483
    6CHL1   H4A  376   3.553   1.336   5.592 -0.7409  0.4214 -0.2989
    6CHL1   H4B  377   3.579   1.158   5.596  0.3958 -0.8685 -0.3748
    6CHL1    C5  378   3.473   1.233   5.418  0.2216 -0.1999 -0.5034
    6CHL1    C6  379   3.527   1.141   5.339  0.3773  0.7472 -0.1254
    6CHL1    H6  380   3.606   1.075   5.378 -0.7570 -0.0965  0.8020
    6CHL1    C7  381   3.494   1.131   5.186 -0.1817 -0.0552  0.0200
    6CHL1   H7A  382   3.579   1.095   5.124 -0.8791  1.7449 -2.0995
    6CHL1   H7B  383   3.429   1.042   5.167  0.6769 -0.8160  0.5547
    6CHL1    C8  384   3.432   1.262   5.133  0.0376  0.1122  0.7174
    6CHL1    H8  385   3.497   1.352   5.141 -0.1319  0.2358  0.6939
    6CHL1   C14  386   3.390   1.247   4.988  0.0355  0.9252  0.2760
    6CHL1   H14  387   3.319   1.162   4.994  2.0837 -0.8230  0.7576
    6CHL1   C15  388   3.507   1.203   4.897  0.4646  0.0179 -0.5007
    6CHL1  H15A  389   3.595   1.272   4.897 -0.3915  1.1360  0.0116
    6CHL1  H15B  390   3.538   1.098   4.910  2.2300  0.4182 -1.1603
    6CHL1   C16  391   3.436   1.210   4.760 -0.4298 -0.0896 -0.0075
    6CHL1  H16A  392   3.493   1.280   4.695  0.7418 -0.5445  0.5089
    6CHL1  H16B  393   3.415   1.112   4.713 -1.5673  0.0005  0.2629
    6CHL1   C17  394   3.297   1.287   4.785  0.7537 -0.0226 -0.0088
    6CHL1   H17  395   3.226   1.201   4.789  0.4326  0.1628 -1.3287
    6CHL1   C13  396   3.311   1.356   4.926  0.5965  0.5579 -0.8601
    6CHL1   C18  397   3.391   1.490   4.915  0.1744  0.4577 -0.2316
    6CHL1  H18A  398   3.423   1.542   5.008 -2.6583  2.0306 -0.0214
    6CHL1  H18B  399   3.489   1.469   4.867 -0.2445  1.2914 -1.5059
    6CHL1  H18C  400   3.337   1.559   4.847 -0.3709 -0.1196 -0.3912
    6CHL1   C12  401   3.182   1.372   5.008 -0.5117 -0.0773 -0.8328
    6CHL1  H12A  402   3.106   1.439   4.963 -0.4830  1.3361  1.0888
    6CHL1  H12B  403   3.131   1.273   5.012  0.2687 -0.4560  1.1385
    6CHL1   C11  404   3.211   1.405   5.156 -0.1470  0.9705  0.0537
    6CHL1  H11A  405   3.257   1.506   5.155  1.2737  0.3412 -0.2299
    6CHL1  H11B  406   3.118   1.406   5.217 -0.1955  1.2983 -0.0232
    6CHL1    C9  407   3.314   1.305   5.217  0.1990  0.4526  0.9193
    6CHL1    H9  408   3.259   1.208   5.218  1.8941 -0.5606  2.5411
    6CHL1   C10  409   3.356   1.327   5.367 -0.1093  0.5177 -0.5838
    6CHL1   C19  410   3.413   1.467   5.393  0.0311 -0.0271  0.2521
    6CHL1  H19A  411   3.462   1.494   5.489  0.6959  0.9964 -0.3482
    6CHL1  H19B  412   3.487   1.498   5.316  0.7175  3.1975  2.0526
    6CHL1  H19C  413   3.337   1.548   5.387 -0.1902 -0.3188 -1.1856
    6CHL1    C1  414   3.237   1.298   5.458  0.3618 -0.0109  0.3475
    6CHL1   H1A  415   3.154   1.366   5.428  1.2284  0.6388 -0.6447
    6CHL1   H1B  416   3.199   1.195   5.443 -0.8113  0.5074 -0.4667
    6CHL1    C2  417   3.260   1.317   5.612  0.1644 -0.5397  0.2821
    6CHL1   H2A  418   3.168   1.299   5.672  0.6824 -2.4598  0.5592
    6CHL1   H2B  419   3.296   1.419   5.637  0.5864 -0.8361  0.8923
    6CHL1   C20  420   3.253   1.366   4.664  0.2901 -0.0456 -0.5544
    6CHL1   H20  421   3.317   1.456   4.650  1.7947 -0.7661  1.1883
    6CHL1   C21  422   3.107   1.428   4.680 -0.5771  0.1667  0.5186
    6CHL1  H21A  423   3.113   1.507   4.758  0.3633 -1.1969  1.8711
    6CHL1  H21B  424   3.040   1.349   4.719 -0.8769 -0.8109 -1.7958
    6CHL1  H21C  425   3.066   1.467   4.584 -2.3586 -0.9511  0.7922
    6CHL1   C22  426   3.256   1.282   4.530 -0.3321 -0.3430 -0.0950
    6CHL1  H22A  427   3.352   1.226   4.530 -0.3088 -0.3478  1.5449
    6CHL1  H22B  428   3.170   1.212   4.527 -0.3636 -0.3050 -2.4267
    6CHL1   C23  429   3.250   1.362   4.397 -0.0397 -0.4440 -0.0144
    6CHL1  H23A  430   3.243   1.287   4.316  0.9128 -0.4789 -0.0781
    6CHL1  H23B  431   3.158   1.423   4.397  0.8892  1.0174  0.8050
    6CHL1   C24  432   3.374   1.453   4.376 -0.0995  0.2135  0.0123
    6CHL1  H24A  433   3.409   1.518   4.459  0.0473  1.6650 -1.1419
    6CHL1  H24B  434   3.461   1.394   4.339  0.4124 -0.7343  2.5718
    6CHL1   C25  435   3.355   1.548   4.255 -0.4244 -0.0822 -0.1772
    6CHL1   H25  436   3.322   1.498   4.162 -0.7596  1.3832 -0.8801
    6CHL1   C26  437   3.263   1.671   4.281  0.8882  0.1465  0.4753
    6CHL1  H26A  438   3.173   1.631   4.333  3.2509  0.4859  5.3847
    6CHL1  H26B  439   3.304   1.749   4.349 -0.1674 -0.5920  2.0294
    6CHL1  H26C  440   3.257   1.722   4.183 -0.7667 -0.1008  0.4247
    6CHL1   C27  441   3.491   1.599   4.203  0.3911 -0.0518  0.5029
    6CHL1  H27A  442   3.467   1.619   4.096  2.9430 -3.5040 -0.9094
    6CHL1  H27B  443   3.517   1.692   4.258  0.6464  0.0276  0.2475
    6CHL1  H27C  444   3.575   1.526   4.204 -0.3772 -0.9818 -0.8730
    7CHL1    C3  445   5.475   6.149   5.958  0.5274  0.0191 -0.1089
    7CHL1    H3  446   5.386   6.083   5.952  0.3812  0.2974 -1.2030
    7CHL1    O3  447   5.514   6.145   6.094 -0.0600 -0.7183 -0.0506
    7CHL1   H3'  448   5.604   6.177   6.096  0.4040 -1.7285 -1.8695
    7CHL1    C4  449   5.601   6.122   5.873 -0.1455 -0.1615  0.1069
    7CHL1   H4A  450   5.687   6.181   5.911 -0.7139 -0.3779  1.7716
    7CHL1   H4B  451   5.631   6.015   5.873 -0.8592 -0.3680  0.6224
    7CHL1    C5  452   5.598   6.158   5.723  0.0075 -0.1872  0.1688
    7CHL1    C6  453   5.640   6.073   5.631 -0.1220 -0.6338  0.2183
    7CHL1    H6  454   5.684   5.974   5.653 -1.7895 -1.7050 -1.0429
    7CHL1    C7  455   5.642   6.102   5.484  0.2989  0.6540  0.2714
    7CHL1   H7A  456   5.730   6.060   5.431  0.3373  0.4255  0.5165
    7CHL1   H7B  457   5.552   6.052   5.442  0.5997  1.6201 -1.6729
    7CHL1    C8  458   5.619   6.257   5.456 -0.0189 -0.4268 -0.2123
    7CHL1    H8  459   5.717   6.310   5.457 -0.6573  0.7922 -0.0697
    7CHL1   C14  460   5.572   6.270   5.310  0.4693 -0.0081 -0.3479
    7CHL1   H14  461   5.482   6.204   5.306  0.3664  0.1339 -0.3947
    7CHL1   C15  462   5.661   6.212   5.206  0.0119 -0.6988  0.4271
    7CHL1  H15A  463   5.767   6.245   5.213  0.7024 -2.7056  0.0598
    7CHL1  H15B  464   5.643   6.103   5.205 -2.2506 -0.4262 -2.6157
    7CHL1   C16  465   5.598   6.271   5.078 -0.4477 -0.0453  0.1987
    7CHL1  H16A  466   5.681   6.317   5.020 -0.5217  1.1450  1.0077
    7CHL1  H16B  467   5.546   6.194   5.016  1.9545 -0.2540 -1.7029
    7CHL1   C17  468   5.506   6.387   5.117  0.9183 -0.2070 -0.2093
    7CHL1   H17  469   5.398   6.360   5.112  0.3905  1.8600 -1.1231
    7CHL1   C13  470   5.532   6.408   5.263  0.4775 -0.1279  0.6910
    7CHL1   C18  471   5.644   6.514   5.278 -0.1352 -0.1843  0.0887
    7CHL1  H18A  472   5.684   6.506   5.381 -1.0881  1.4303  0.6281
    7CHL1  H18B  473   5.730   6.494   5.211  0.4976 -1.6066  1.2897
    7CHL1  H18C  474   5.606   6.618   5.269  0.9831  0.2243 -0.0977
    7CHL1   C12  475   5.413   6.452   5.355 -0.5387 -0.0070  0.0019
    7CHL1  H12A  476   5.369   6.549   5.324 -0.4147  0.5963  1.6654
    7CHL1  H12B  477   5.339   6.370   5.341  0.0345 -0.6819  0.8760
    7CHL1   C11  478   5.459   6.449   5.499  0.5868  0.0651 -0.5346
    7CHL1  H11A  479   5.528   6.536   5.504  1.9573 -0.9572 -0.9276
    7CHL1  H11B  480   5.365   6.479   5.551  0.1671  0.8241 -1.6863
    7CHL1    C9  481   5.513   6.312   5.544  0.3106 -0.4290  0.3021
    7CHL1    H9  482   5.429   6.240   5.537 -0.7038  0.3902  2.6975
    7CHL1   C10  483   5.536   6.296   5.696 -0.0667  0.2901 -0.2460
    7CHL1   C19  484   5.638   6.405   5.741 -0.1571 -0.0688  0.1503
    7CHL1  H19A  485   5.596   6.505   5.714 -4.2038 -1.8966 -1.0024
    7CHL1  H19B  486   5.665   6.388   5.848 -1.6690 -1.5584  0.3432
    7CHL1  H19C  487   5.729   6.380   5.684 -0.2134 -0.7412  0.3449
    7CHL1    C1  488   5.409   6.317   5.783  0.3327  0.1812  0.7867
    7CHL1   H1A  489   5.366   6.419   5.777 -1.9029 -0.6933  0.9873
    7CHL1   H1B  490   5.333   6.248   5.740 -0.3613  0.2543  1.8697
    7CHL1    C2  491   5.426   6.288   5.931 -0.2224 -0.4735  0.2263
    7CHL1   H2A  492   5.333   6.292   5.992  0.2520  1.9831  0.9255
    7CHL1   H2B  493   5.494   6.365   5.973 -1.6417 -0.2113  2.1640
    7CHL1   C20  494   5.518   6.509   5.022  0.5048  0.3598  0.8808
    7CHL1   H20  495   5.618   6.556   5.017 -0.7000  2.9620 -0.8671
    7CHL1   C21  496   5.410   6.615   5.068 -0.7650  0.3985 -0.4962
    7CHL1  H21A  497   5.315   6.558   5.070  0.4420 -1.7239  0.1028
    7CHL1  H21B  498   5.398   6.696   4.993  1.2085 -0.2482 -1.5923
    7CHL1  H21C  499   5.433   6.674   5.159  1.0921  1.8083 -1.7871
    7CHL1   C22  500   5.489   6.476   4.869 -0.4343 -0.5888 -0.0420
    7CHL1  H22A  501   5.573   6.414   4.832  1.7278  1.5350  0.9816
    7CHL1  H22B  502   5.390   6.429   4.851 -0.5573  0.1005 -1.2822
    7CHL1   C23  503   5.500   6.592   4.767 -0.0398  0.0763  0.2918
    7CHL1  H23A  504   5.418   6.664   4.789 -0.9795 -1.2314  1.2689
    7CHL1  H23B  505   5.596   6.645   4.787  0.7382 -1.0956 -0.2621
    7CHL1   C24  506   5.475   6.536   4.628 -0.1657  0.0671  0.6308
    7CHL1  H24A  507   5.534   6.443   4.611 -1.6446 -0.6723 -0.6799
    7CHL1  H24B  508   5.366   6.518   4.623 -0.1506  0.2582 -1.2476
    7CHL1   C25  509   5.508   6.627   4.500  0.6766  0.4789  1.3342
    7CHL1   H25  510   5.453   6.721   4.519 -0.3320  0.5080 -1.3052
    7CHL1   C26  511   5.663   6.653   4.482 -0.9094  0.4235  0.2646
    7CHL1  H26A  512   5.699   6.727   4.408  0.8028 -2.0550 -1.5903
    7CHL1  H26B  513   5.698   6.695   4.579  0.2374  0.7843 -0.2875
    7CHL1  H26C  514   5.721   6.560   4.459 -0.5905  0.3612  1.2820
    7CHL1   C27  515   5.446   6.559   4.375 -0.4617  0.3975  0.1300
    7CHL1  H27A  516   5.347   6.520   4.409  0.0785 -1.3444 -0.1645
    7CHL1  H27B  517   5.422   6.635   4.297 -1.0627  1.3353  1.2085
    7CHL1  H27C  518   5.501   6.473   4.331 -0.8959 -0.6023  1.4754
    8CHL1    C3  519   1.552   0.368   5.925  0.1914  0.5130 -0.1457
    8CHL1    H3  520   1.518   0.263   5.934 -0.8513  1.0239  2.8701
    8CHL1    O3  521   1.589   0.420   6.053  0.5043 -0.0196 -0.4359
    8CHL1   H3'  522   1.507   0.427   6.102  1.2031 -1.0556  0.9766
    8CHL1    C4  523   1.675   0.374   5.835 -0.5325 -0.2682 -0.1602
    8CHL1   H4A  524   1.726   0.472   5.846  0.0279 -0.1160 -3.2379
    8CHL1   H4B  525   1.738   0.293   5.878 -1.7788 -0.4860  1.3688
    8CHL1    C5  526   1.657   0.340   5.689 -0.0895 -0.6236 -0.2887
    8CHL1    C6  527   1.722   0.238   5.628  0.2232  0.6454  0.2804
    8CHL1    H6  528   1.790   0.166   5.676  0.5631 -0.4811 -1.7283
    8CHL1    C7  529   1.697   0.194   5.481  0.1172  0.1541 -0.1025
    8CHL1   H7A  530   1.799   0.178   5.438 -0.4395 -1.1078 -1.0083
    8CHL1   H7B  531   1.650   0.093   5.489 -0.7437  0.7015  2.9278
    8CHL1    C8  532   1.626   0.299   5.400  0.0543 -0.2645 -0.4717
    8CHL1    H8  533   1.693   0.383   5.370  1.5071 -1.3708 -0.4505
    8CHL1   C14  534   1.578   0.242   5.271 -0.9671 -0.0678 -0.4905
    8CHL1   H14  535   1.501   0.168   5.301  1.4767 -2.4595  0.2687
    8CHL1   C15  536   1.689   0.158   5.191  0.3132  1.2498  1.0413
    8CHL1  H15A  537   1.787   0.211   5.191  0.4024  1.0883  0.4258
    8CHL1  H15B  538   1.698   0.056   5.233 -1.9687 -0.4445 -2.1714
    8CHL1   C16  539   1.638   0.162   5.049  0.3513  0.3904  0.3214
    8CHL1  H16A  540   1.710   0.218   4.986  0.1126 -2.3596 -2.6482
    8CHL1  H16B  541   1.611   0.061   5.010  2.7416 -0.2614  0.1898
    8CHL1   C17  542   1.512   0.249   5.056  0.0173 -0.2865 -0.5488
    8CHL1   H17  543   1.423   0.189   5.083  1.6329 -1.4618  2.7632
    8CHL1   C13  544   1.523   0.349   5.177  0.2209 -0.1092  0.2167
    8CHL1   C18  545   1.608   0.476   5.140  0.4137  0.5226 -0.1278
    8CHL1  H18A  546   1.655   0.524   5.228  3.7248  1.6411 -2.2880
    8CHL1  H18B  547   1.697   0.449   5.079  0.8219  0.2510  0.5787
    8CHL1  H18C  548   1.544   0.554   5.093  0.0865  1.3293  1.5977
    8CHL1   C12  549   1.397   0.396   5.251  0.6784 -0.4597  0.4202
    8CHL1  H12A  550   1.332   0.470   5.198 -1.0455 -1.0882  1.5837
    8CHL1  H12B  551   1.327   0.310   5.262 -0.5744  0.4383 -0.3210
    8CHL1   C11  552   1.425   0.460   5.388  0.0850 -0.0751  0.0485
    8CHL1  H11A  553   1.490   0.544   5.358 -1.3367  1.3080  0.6630
    8CHL1  H11B  554   1.331   0.490   5.440 -0.3408 -1.0968 -0.1012
    8CHL1    C9  555   1.509   0.363   5.479 -0.3317  0.5136  0.4859
    8CHL1    H9  556   1.449   0.272   5.500  1.3351 -1.0388 -1.0447
    8CHL1   C10  557   1.547   0.423   5.621  0.1639 -0.2395  0.0901
    8CHL1   C19  558   1.619   0.561   5.599 -0.1633 -0.2502 -0.1099
    8CHL1  H19A  559   1.705   0.553   5.530  0.9927  2.8908  0.7801
    8CHL1  H19B  560   1.554   0.647   5.572  0.2004  0.6573  1.7034
    8CHL1  H19C  561   1.659   0.591   5.699  1.8571 -1.3612 -0.5221
    8CHL1    C1  562   1.428   0.427   5.714 -0.3757 -0.0385  0.6880
    8CHL1   H1A  563   1.367   0.505   5.663 -1.6077 -1.6484 -0.4421
    8CHL1   H1B  564   1.376   0.331   5.689 -1.7698  1.3171 -2.0360
    8CHL1    C2  565   1.452   0.461   5.853  0.1458 -0.1607 -0.4866
    8CHL1   H2A  566   1.360   0.464   5.916  1.8599  4.1814  2.2835
    8CHL1   H2B  567   1.489   0.565   5.865 -0.4818  0.1706 -1.2517
    8CHL1   C20  568   1.475   0.316   4.921 -0.3267 -0.3974  0.7206
    8CHL1   H20  569   1.541   0.401   4.892  0.7992 -1.3973  0.2579
    8CHL1   C21  570   1.330   0.367   4.918  0.3762 -0.5765  0.1197
    8CHL1  H21A  571   1.313   0.428   4.826 -1.1774  0.7099  1.1870
    8CHL1  H21B  572   1.314   0.436   5.005  1.4517 -0.4959  0.2646
    8CHL1  H21C  573   1.264   0.278   4.931  1.4195 -1.2874  0.6825
    8CHL1   C22  574   1.501   0.221   4.804  0.1847 -0.2216 -0.0380
    8CHL1  H22A  575   1.486   0.261   4.701  0.6796 -1.0008 -0.4202
    8CHL1  H22B  576   1.608   0.190   4.805  0.2360 -0.0505 -0.1529
    8CHL1   C23  577   1.419   0.090   4.802  0.3002  1.2546 -0.3179
    8CHL1  H23A  578   1.467   0.024   4.877  2.3689  2.9151 -0.0811
    8CHL1  H23B  579   1.310   0.102   4.818  0.2230  1.2181 -0.7765
    8CHL1   C24  580   1.436   0.020   4.663  0.1700  0.4913  0.4214
    8CHL1  H24A  581   1.378  -0.075   4.659  1.0198 -0.0190 -3.0461
    8CHL1  H24B  582   1.377   0.086   4.596  0.2606 -0.1790 -0.3328
    8CHL1   C25  583   1.579  -0.002   4.611 -0.3891 -0.3876 -0.2004
    8CHL1   H25  584   1.627   0.098   4.604  1.1752 -0.9300  1.7444
    8CHL1   C26  585   1.670  -0.075   4.712  0.0791 -0.5831  0.3288
    8CHL1  H26A  586   1.769  -0.104   4.669 -0.2007 -0.9680 -0.0646
    8CHL1  H26B  587   1.681  -0.010   4.801 -1.1316  0.1373 -0.0247
    8CHL1  H26C  588   1.621  -0.167   4.751  2.6745 -2.1028  0.2300
    8CHL1   C27  589   1.579  -0.075   4.481  0.0034  0.4121 -0.1905
    8CHL1  H27A  590   1.684  -0.106   4.457  0.4242 -2.6651  4.3030
    8CHL1  H27B  591   1.530  -0.172   4.503  1.9819 -0.2242  1.8482
    8CHL1  H27C  592   1.529  -0.018   4.400 -0.7071  0.4221  0.2558
    9CHL1    C3  593   4.946   6.394   6.127  0.5733  0.3751  0.2807
    9CHL1    H3  594   5.034   6.332   6.098  2.0111  1.9463  1.0897
    9CHL1    O3  595   4.915   6.360   6.258  0.2118 -0.1023  0.1321
    9CHL1   H3'  596   4.852   6.429   6.278  1.2730  1.4608 -1.6538
    9CHL1    C4  597   4.995   6.535   6.105  0.5589  0.3357  0.5092
    9CHL1   H4A  598   4.924   6.609   6.147  0.4728  0.3733  0.2973
    9CHL1   H4B  599   5.085   6.544   6.169  1.2416 -1.5600 -0.1298
    9CHL1    C5  600   5.021   6.563   5.956 -0.1473 -0.0905  0.5621
    9CHL1    C6  601   5.143   6.586   5.915 -0.3991 -0.6684  0.3713
    9CHL1    H6  602   5.227   6.595   5.986 -0.2791  2.0738 -0.0132
    9CHL1    C7  603   5.167   6.640   5.775  0.1480  0.0823  0.1397
    9CHL1   H7A  604   5.246   6.717   5.787  0.2586  0.0767 -0.5128
    9CHL1   H7B  605   5.215   6.551   5.728  0.2470 -0.3787  1.1014
    9CHL1    C8  606   5.034   6.684   5.694  0.4600 -0.1963 -0.5374
    9CHL1    H8  607   5.004   6.777   5.748 -0.9894 -1.3855  0.8017
    9CHL1   C14  608   5.065   6.685   5.547 -0.2066  0.5731  0.3610
    9CHL1   H14  609   5.093   6.579   5.528  0.7708  0.7118  0.9371
    9CHL1   C15  610   5.190   6.762   5.498 -0.4187  0.4939  0.6084
    9CHL1  H15A  611   5.210   6.857   5.552  0.6788 -0.0281  1.1608
    9CHL1  H15B  612   5.286   6.712   5.524 -1.0676 -0.0990  1.9442
    9CHL1   C16  613   5.162   6.784   5.354  0.1553 -0.2546  0.3718
    9CHL1  H16A  614   5.159   6.893   5.334 -1.3053 -0.6300 -1.7835
    9CHL1  H16B  615   5.243   6.740   5.291 -0.2271  0.6812 -0.8019
    9CHL1   C17  616   5.021   6.729   5.328  0.3211 -0.0416  0.4818
    9CHL1   H17  617   5.038   6.622   5.301  2.4802 -0.4913  3.1467
    9CHL1   C13  618   4.950   6.731   5.461  0.4044 -0.0497 -0.3317
    9CHL1   C18  619   4.906   6.876   5.496  0.3734  0.1173 -0.3589
    9CHL1  H18A  620   4.816   6.894   5.434  0.1374  1.5233  0.3354
    9CHL1  H18B  621   4.870   6.892   5.600  2.1512 -0.3718  0.3663
    9CHL1  H18C  622   4.975   6.957   5.464  1.8596  0.1187  2.5334
    9CHL1   C12  623   4.831   6.628   5.478 -0.0647 -0.4670  0.5144
    9CHL1  H12A  624   4.745   6.667   5.421  0.4178  2.2447  1.5058
    9CHL1  H12B  625   4.863   6.526   5.446 -0.1293  0.0786 -1.4269
    9CHL1   C11  626   4.797   6.618   5.627  0.1047 -0.1117  0.2171
    9CHL1  H11A  627   4.761   6.721   5.650  0.5881 -0.1785  1.3578
    9CHL1  H11B  628   4.711   6.550   5.644 -0.5644  0.6867  0.0943
    9CHL1    C9  629   4.919   6.583   5.718  0.3662  0.5395 -0.1149
    9CHL1    H9  630   4.953   6.491   5.666  0.5392  0.3820  0.2773
    9CHL1   C10  631   4.898   6.546   5.867  0.3846 -0.5961 -0.2202
    9CHL1   C19  632   4.775   6.628   5.914 -0.0023  0.5418 -0.2526
    9CHL1  H19A  633   4.679   6.591   5.872  0.3510  0.9824 -1.4811
    9CHL1  H19B  634   4.761   6.636   6.024  0.5714  0.1474 -0.1474
    9CHL1  H19C  635   4.790   6.728   5.869  0.4672  0.5690 -0.0409
    9CHL1    C1  636   4.866   6.403   5.889 -0.3015  0.0876 -1.0594
    9CHL1   H1A  637   4.770   6.386   5.835 -1.0391 -0.0274  0.2513
    9CHL1   H1B  638   4.954   6.352   5.844  1.5517  1.9961  0.2500
    9CHL1    C2  639   4.832   6.365   6.035  0.8822  0.1974  0.0250
    9CHL1   H2A  640   4.804   6.258   6.038  1.1629  0.1465  2.2868
    9CHL1   H2B  641   4.747   6.425   6.074  0.9288  0.7674 -0.7288
    9CHL1   C20  642   4.954   6.796   5.203 -0.3073  0.7120  0.3411
    9CHL1   H20  643   4.921   6.900   5.227 -0.4238  0.5101  1.0628
    9CHL1   C21  644   4.841   6.704   5.149 -0.1028 -0.1969  0.7868
    9CHL1  H21A  645   4.804   6.748   5.054 -4.1352  0.4551  2.4723
    9CHL1  H21B  646   4.764   6.686   5.226 -1.5408 -2.9893 -1.1617
    9CHL1  H21C  647   4.879   6.602   5.128  0.5495  0.4592 -1.4616
    9CHL1   C22  648   5.070   6.822   5.094  0.4102  0.5134 -0.6983
    9CHL1  H22A  649   5.155   6.887   5.125  0.6318  1.0392 -2.3420
    9CHL1  H22B  650   5.112   6.723   5.071  1.0518  0.5704  0.1630
    9CHL1   C23  651   5.015   6.883   4.966 -0.6543 -0.3102  0.2039
    9CHL1  H23A  652   4.932   6.828   4.918 -0.0424  0.3637 -1.7292
    9CHL1  H23B  653   4.988   6.988   4.990  0.2521 -0.3669  1.6013
    9CHL1   C24  654   5.125   6.871   4.858 -0.1605 -0.7553 -1.2092
    9CHL1  H24A  655   5.211   6.937   4.882 -0.7644 -0.3030 -0.2239
    9CHL1  H24B  656   5.162   6.766   4.861  1.6345 -0.1466 -0.4415
    9CHL1   C25  657   5.064   6.898   4.722  0.7837 -0.0857  0.1512
    9CHL1   H25  658   4.981   6.825   4.715  0.3901  0.5022 -4.1819
    9CHL1   C26  659   4.999   7.034   4.700 -0.2234  0.3628 -0.0869
    9CHL1  H26A  660   4.946   7.060   4.794 -0.0198 -1.0838  0.4599
    9CHL1  H26B  661   5.081   7.109   4.693  2.3087 -1.8469  2.9121
    9CHL1  H26C  662   4.932   7.033   4.612 -0.0090  1.3026 -0.2724
    9CHL1   C27  663   5.158   6.857   4.609 -0.4885 -0.2785 -0.3588
    9CHL1  H27A  664   5.106   6.842   4.512 -2.5079 -3.5680  1.0439
    9CHL1  H27B  665   5.240   6.931   4.594  1.3282 -1.9853  0.7271
    9CHL1  H27C  666   5.206   6.758   4.623 -1.1245 -0.6886 -0.9928
   10CHL1    C3  667   0.078   0.575   6.175 -0.2721 -0.2491 -0.7495
   10CHL1    H3  668   0.152   0.492   6.177 -1.1576 -1.0588 -1.0288
   10CHL1    O3  669   0.093   0.645   6.295 -0.1261 -0.0371  0.3552
   10CHL1   H3'  670   0.015   0.613   6.340 -0.9183  1.4017  0.0578
   10CHL1    C4  671   0.108   0.669   6.064  0.1551 -1.1215  0.7660
   10CHL1   H4A  672   0.048   0.761   6.084  3.2224  1.2273 -0.0300
   10CHL1   H4B  673   0.212   0.702   6.083  0.1080 -1.5393  1.8297
   10CHL1    C5  674   0.093   0.611   5.924 -0.4870 -0.7340 -0.0723
   10CHL1    C6  675   0.194   0.617   5.830 -0.2049 -0.2250 -0.0808
   10CHL1    H6  676   0.293   0.655   5.858 -0.4505 -0.8604  1.7888
   10CHL1    C7  677   0.186   0.566   5.688  0.1388 -0.2272 -0.3191
   10CHL1   H7A  678   0.200   0.648   5.614 -0.6994 -0.6034 -0.9055
   10CHL1   H7B  679   0.261   0.492   5.652  1.6577  0.9558  0.3251
   10CHL1    C8  680   0.043   0.514   5.655  0.8244  0.7620  0.7533
   10CHL1    H8  681  -0.014   0.605   5.624  0.5983  0.9517  1.6894
   10CHL1   C14  682   0.046   0.420   5.534 -0.3339  0.1717 -0.1243
   10CHL1   H14  683   0.104   0.332   5.569  0.3065  0.8522  0.5558
   10CHL1   C15  684   0.113   0.469   5.401 -0.1149 -0.6195  0.4987
   10CHL1  H15A  685   0.098   0.579   5.392 -0.6998 -0.5668  1.9153
   10CHL1  H15B  686   0.219   0.435   5.397 -0.3308 -1.2133 -0.8640
   10CHL1   C16  687   0.044   0.393   5.289 -0.2311 -0.7948  0.2858
   10CHL1  H16A  688  -0.019   0.464   5.231 -0.5066 -0.6397  0.7738
   10CHL1  H16B  689   0.108   0.342   5.213 -1.4380 -1.0638 -0.5959
   10CHL1   C17  690  -0.047   0.294   5.362  0.9043  1.1312  0.1705
   10CHL1   H17  691   0.014   0.208   5.398  0.4619 -0.0337 -1.7606
   10CHL1   C13  692  -0.090   0.369   5.491  0.2127 -0.0303 -0.3982
   10CHL1   C18  693  -0.185   0.485   5.454 -0.1118  0.2182 -0.6558
   10CHL1  H18A  694  -0.277   0.458   5.398 -2.0894 -0.2827  2.5836
   10CHL1  H18B  695  -0.242   0.532   5.536 -1.1101  1.1594 -1.8391
   10CHL1  H18C  696  -0.131   0.565   5.399  0.7258  0.0996 -0.0108
   10CHL1   C12  697  -0.151   0.292   5.611  0.4476 -0.6819 -0.0918
   10CHL1  H12A  698  -0.252   0.251   5.591 -0.6662  1.1145  1.4908
   10CHL1  H12B  699  -0.087   0.202   5.623  0.4992 -0.5859  0.3981
   10CHL1   C11  700  -0.160   0.381   5.735  0.3201  0.1731  0.0944
   10CHL1  H11A  701  -0.235   0.460   5.712  1.3721  0.9800 -0.6688
   10CHL1  H11B  702  -0.189   0.324   5.826 -0.3998  0.1939 -0.1244
   10CHL1    C9  703  -0.022   0.444   5.771  0.6885 -0.0700 -0.0806
   10CHL1    H9  704   0.044   0.356   5.784 -0.3106 -0.8062  0.1071
   10CHL1   C10  705  -0.037   0.535   5.901 -0.2478 -0.3174 -0.0285
   10CHL1   C19  706  -0.147   0.642   5.886  0.0416 -0.2604  0.1532
   10CHL1  H19A  707  -0.142   0.719   5.966  0.4720  1.1717 -1.2018
   10CHL1  H19B  708  -0.133   0.699   5.791  1.1508 -1.1975 -0.2640
   10CHL1  H19C  709  -0.247   0.594   5.889 -0.1544 -0.0875 -2.0080
   10CHL1    C1  710  -0.067   0.443   6.022  0.1068 -0.4033 -0.0867
   10CHL1   H1A  711  -0.162   0.387   6.024 -0.5934  0.7532 -0.0522
   10CHL1   H1B  712   0.011   0.365   6.011  2.7626  1.9894  0.5127
   10CHL1    C2  713  -0.062   0.518   6.160  0.4492 -0.0662  0.0971
   10CHL1   H2A  714  -0.073   0.452   6.249  0.3416  1.5756  1.3572
   10CHL1   H2B  715  -0.128   0.607   6.167 -0.5839 -0.6894 -1.2223
   10CHL1   C20  716  -0.158   0.230   5.273 -0.2045 -0.2375 -0.3489
   10CHL1   H20  717  -0.238   0.305   5.259  0.9255  1.2659  0.8907
   10CHL1   C21  718  -0.203   0.089   5.335  0.3765 -0.7613  0.3936
   10CHL1  H21A  719  -0.130   0.010   5.306 -2.8137 -3.9476  0.4846
   10CHL1  H21B  720  -0.294   0.056   5.281  0.6645 -0.8852 -0.0298
   10CHL1  H21C  721  -0.216   0.081   5.445  0.4130  1.2107  0.5717
   10CHL1   C22  722  -0.117   0.204   5.129  0.2719  0.3627 -0.4318
   10CHL1  H22A  723  -0.101   0.303   5.080 -0.1467 -0.3525 -2.0884
   10CHL1  H22B  724  -0.026   0.142   5.118  0.5336  0.2671  1.8060
   10CHL1   C23  725  -0.229   0.146   5.044 -0.0769  0.0547 -0.2744
   10CHL1  H23A  726  -0.201   0.130   4.938  0.8170  1.5214 -0.3014
   10CHL1  H23B  727  -0.255   0.044   5.077  0.3156 -0.4054 -1.3586
   10CHL1   C24  728  -0.360   0.229   5.044 -0.0186  0.0238  0.2583
   10CHL1  H24A  729  -0.418   0.235   5.139 -1.4016 -0.5691 -0.5233
   10CHL1  H24B  730  -0.334   0.333   5.014  0.1172 -0.5571 -1.7718
   10CHL1   C25  731  -0.472   0.170   4.958  0.3937  0.2854 -0.0302
   10CHL1   H25  732  -0.444   0.169   4.850 -0.0091  0.1547 -0.1393
   10CHL1   C26  733  -0.507   0.028   4.997 -0.7753 -0.3599 -0.2824
   10CHL1  H26A  734  -0.466   0.013   5.099 -1.3511 -0.9327 -0.1297
   10CHL1  H26B  735  -0.616   0.006   4.988 -1.4161  1.9332  0.8582
   10CHL1  H26C  736  -0.449  -0.033   4.925 -1.1713  0.1261 -1.0319
   10CHL1   C27  737  -0.597   0.257   4.973  0.6725 -0.2698  0.3947
   10CHL1  H27A  738  -0.658   0.206   4.896 -1.5780  3.5118 -0.5583
   10CHL1  H27B  739  -0.652   0.245   5.069  1.5267 -0.1421  0.9162
   10CHL1  H27C  740  -0.586   0.363   4.942 -0.2568  0.6754  2.9975
   11CHL1    C3  741   3.903   0.045   5.690  0.5629  0.3261  0.7917
   11CHL1    H3  742   4.005   0.076   5.722 -0.0779  1.8175  1.4847
   11CHL1    O3  743   3.838  -0.017   5.792 -0.5427  0.5927 -0.6092
   11CHL1   H3'  744   3.845   0.049   5.861 -0.3358 -0.6153  0.5539
   11CHL1    C4  745   3.810   0.166   5.657 -0.3532  0.1867 -0.2863
   11CHL1   H4A  746   3.705   0.134   5.638 -0.9090 -0.8413  3.6399
   11CHL1   H4B  747   3.794   0.240   5.738 -2.1060  1.0787 -1.3696
   11CHL1    C5  748   3.871   0.238   5.543  0.3954  0.2006 -0.3713
   11CHL1    C6  749   3.909   0.369   5.553 -0.4787 -0.2242 -0.3829
   11CHL1    H6  750   3.893   0.414   5.652  0.1217 -2.6279  0.8648
   11CHL1    C7  751   3.962   0.445   5.442  0.0433 -0.9607  0.7336
   11CHL1   H7A  752   3.918   0.547   5.439  1.7468 -0.1916  1.1277
   11CHL1   H7B  753   4.072   0.444   5.459  0.0201  0.5979  1.1202
   11CHL1    C8  754   3.941   0.386   5.301 -0.3039  0.2195  0.4265
   11CHL1    H8  755   3.832   0.381   5.284 -0.0072  0.5677 -1.8129
   11CHL1   C14  756   4.016   0.460   5.190 -0.0111 -0.0887 -0.1995
   11CHL1   H14  757   4.116   0.455   5.240 -1.2723  0.0248  2.5600
   11CHL1   C15  758   3.976   0.605   5.155  0.5804  0.3973 -0.3017
   11CHL1  H15A  759   3.866   0.602   5.141  0.5311  1.6537 -0.2726
   11CHL1  H15B  760   4.006   0.676   5.235 -1.8427  1.0793  0.0839
   11CHL1   C16  761   4.042   0.630   5.016 -0.5761 -0.0248 -0.0698
   11CHL1  H16A  762   3.976   0.694   4.954  1.1244  1.6597 -0.2264
   11CHL1  H16B  763   4.137   0.687   5.025  0.4643 -1.4725 -1.1376
   11CHL1   C17  764   4.077   0.489   4.955 -0.1533  0.1797 -0.2392
   11CHL1   H17  765   4.186   0.474   4.972 -0.3429 -1.3700 -0.2534
   11CHL1   C13  766   4.001   0.386   5.051  0.2176 -0.5172 -0.4188
   11CHL1   C18  767   3.854   0.360   5.004  0.2150  0.6129 -0.5600
   11CHL1  H18A  768   3.789   0.450   4.996  0.8954  1.2341  0.5785
   11CHL1  H18B  769   3.841   0.293   4.917 -0.4308  1.2551 -0.9741
   11CHL1  H18C  770   3.801   0.298   5.080 -0.7399 -1.3094 -2.6689
   11CHL1   C12  771   4.072   0.252   5.064  0.1525 -0.5057 -0.1280
   11CHL1  H12A  772   4.083   0.203   4.965 -0.2644  2.1901 -1.5914
   11CHL1  H12B  773   4.171   0.272   5.109 -0.4140 -1.5830  1.7325
   11CHL1   C11  774   4.005   0.164   5.169 -0.7305 -0.1822 -0.1638
   11CHL1  H11A  775   3.903   0.136   5.134 -1.0551 -0.0374  0.6495
   11CHL1  H11B  776   4.047   0.061   5.177  0.0621  0.0609 -0.9509
   11CHL1    C9  777   3.981   0.235   5.306 -0.0295  0.5422  0.2700
   11CHL1    H9  778   4.087   0.243   5.336 -0.6282 -0.1071  2.7647
   11CHL1   C10  779   3.902   0.156   5.411 -0.0828 -0.3013  0.5497
   11CHL1   C19  780   3.760   0.123   5.359  0.3030  1.1755 -0.3704
   11CHL1  H19A  781   3.711   0.221   5.338 -0.7457  0.5397 -0.9542
   11CHL1  H19B  782   3.766   0.058   5.269  1.9309 -1.1441  1.2901
   11CHL1  H19C  783   3.694   0.077   5.435 -1.7117  1.7130 -1.7267
   11CHL1    C1  784   3.973   0.023   5.449 -0.5764 -0.4691  0.3718
   11CHL1   H1A  785   3.982  -0.046   5.363  2.9798 -1.3440  1.2728
   11CHL1   H1B  786   4.076   0.054   5.478 -1.3276  1.7252  0.8947
   11CHL1    C2  787   3.923  -0.052   5.575 -0.7212  0.6809 -0.3074
   11CHL1   H2A  788   3.997  -0.130   5.604 -1.6653  0.0966  0.6114
   11CHL1   H2B  789   3.830  -0.109   5.556  1.1598 -2.3106 -1.3676
   11CHL1   C20  790   4.045   0.485   4.807 -0.1032 -0.0935 -1.2681
   11CHL1   H20  791   3.935   0.502   4.799 -0.2139  0.9864  1.5767
   11CHL1   C21  792   4.081   0.347   4.742 -0.4050 -0.1142  0.5898
   11CHL1  H21A  793   4.016   0.269   4.788 -3.4521  1.2877 -1.0197
   11CHL1  H21B  794   4.188   0.318   4.751  0.2997  1.4093 -1.9308
   11CHL1  H21C  795   4.053   0.342   4.635  3.2152 -1.1436 -0.4645
   11CHL1   C22  796   4.127   0.599   4.735 -0.0941  0.0008  0.4489
   11CHL1  H22A  797   4.091   0.694   4.779 -0.8684  0.1617 -0.4802
   11CHL1  H22B  798   4.236   0.577   4.730  0.1485  1.3302 -1.2821
   11CHL1   C23  799   4.095   0.622   4.585  0.5324  0.1902  0.1402
   11CHL1  H23A  800   4.163   0.695   4.537  0.6564 -1.5515 -2.5871
   11CHL1  H23B  801   4.108   0.529   4.526 -1.9484 -0.4979  0.5705
   11CHL1   C24  802   3.949   0.669   4.561 -0.1474 -0.0085 -0.0904
   11CHL1  H24A  803   3.875   0.593   4.595  1.9704 -1.6351  1.0598
   11CHL1  H24B  804   3.926   0.763   4.616 -1.2218  0.2504 -0.9199
   11CHL1   C25  805   3.897   0.673   4.417 -0.0794 -0.3712 -0.3036
   11CHL1   H25  806   3.797   0.722   4.416 -0.5130 -0.9702 -4.2240
   11CHL1   C26  807   3.992   0.755   4.330  0.3640 -0.1545  0.4552
   11CHL1  H26A  808   4.026   0.855   4.366  2.8463 -0.1988 -1.4590
   11CHL1  H26B  809   4.085   0.695   4.320  0.2527 -0.2199 -0.2568
   11CHL1  H26C  810   3.952   0.772   4.228  2.2416 -1.1261 -0.4872
   11CHL1   C27  811   3.888   0.533   4.350  0.5476 -1.1824  0.0124
   11CHL1  H27A  812   3.815   0.464   4.397  0.4195 -0.3565  1.0346
   11CHL1  H27B  813   3.856   0.539   4.244 -1.0925  0.8415  0.5506
   11CHL1  H27C  814   3.992   0.495   4.358  2.4249  2.7353 -2.5929
   12CHL1    C3  815   5.140   4.077   6.020  0.4077 -0.5863 -0.1088
   12CHL1    H3  816   5.214   4.158   6.036 -0.4778  0.6833 -1.9639
   12CHL1    O3  817   5.098   4.042   6.150 -0.5213  0.1995  0.5268
   12CHL1   H3'  818   5.039   3.966   6.145 -0.9149  0.5492 -0.3546
   12CHL1    C4  819   5.017   4.140   5.943 -0.5813  0.6778  0.2513
   12CHL1   H4A  820   4.924   4.088   5.974 -0.1321 -2.7231 -3.3452
   12CHL1   H4B  821   5.013   4.246   5.976  2.8158  0.6466  1.0861
   12CHL1    C5  822   5.044   4.153   5.788  0.9433  0.5464 -0.0451
   12CHL1    C6  823   5.022   4.265   5.715  0.6451 -0.1517  0.8016
   12CHL1    H6  824   4.977   4.351   5.767 -1.7944 -0.3641 -0.7916
   12CHL1    C7  825   5.024   4.280   5.567  0.2971 -0.4853 -0.5593
   12CHL1   H7A  826   4.935   4.336   5.530 -0.2209  0.1668  1.5696
   12CHL1   H7B  827   5.115   4.333   5.532  0.5036 -0.1707  0.4356
   12CHL1    C8  828   5.021   4.144   5.500 -0.1377 -0.1748  0.1946
   12CHL1    H8  829   4.923   4.094   5.519 -1.2069  2.6117  2.8613
   12CHL1   C14  830   5.042   4.163   5.357  0.3724  0.2804  0.3990
   12CHL1   H14  831   5.147   4.197   5.350  0.6745 -0.7428 -0.3385
   12CHL1   C15  832   4.953   4.260   5.276  0.0863 -0.2967  0.5206
   12CHL1  H15A  833   4.846   4.235   5.293  0.9987 -5.4477  0.3653
   12CHL1  H15B  834   4.983   4.366   5.289  1.6391 -0.9415  2.8813
   12CHL1   C16  835   4.979   4.213   5.130  0.1293  0.2573  0.2487
   12CHL1  H16A  836   4.877   4.188   5.092  0.4726  1.1056 -1.3396
   12CHL1  H16B  837   5.030   4.290   5.068 -3.2515  3.1188  0.6673
   12CHL1   C17  838   5.061   4.088   5.133  0.0521  0.0343 -0.7208
   12CHL1   H17  839   5.167   4.122   5.141 -0.0979  0.4586 -0.4919
   12CHL1   C13  840   5.041   4.028   5.278 -0.3367 -0.1337 -0.2881
   12CHL1   C18  841   4.900   3.960   5.285 -0.3269 -0.3929 -0.8866
   12CHL1  H18A  842   4.881   3.916   5.386  0.6284 -2.0032 -1.3798
   12CHL1  H18B  843   4.821   4.034   5.262 -0.4177 -0.5555 -1.0957
   12CHL1  H18C  844   4.885   3.878   5.212 -0.3569  1.2018 -2.7408
   12CHL1   C12  845   5.155   3.943   5.332  0.0612  0.3429  0.2931
   12CHL1  H12A  846   5.147   3.847   5.276 -0.5450  1.5129 -1.7244
   12CHL1  H12B  847   5.252   3.985   5.297  0.1201 -1.1182 -1.4434
   12CHL1   C11  848   5.147   3.924   5.484 -0.0211 -0.1438  0.0280
   12CHL1  H11A  849   5.069   3.845   5.496  1.5443 -1.9500 -0.9826
   12CHL1  H11B  850   5.234   3.873   5.531  1.3777  1.1227 -1.0937
   12CHL1    C9  851   5.125   4.049   5.567  0.4169 -0.0882  0.5354
   12CHL1    H9  852   5.220   4.106   5.574  0.4298 -0.0637  0.1562
   12CHL1   C10  853   5.097   4.026   5.717  0.6221  0.1990 -0.3673
   12CHL1   C19  854   4.980   3.918   5.731  0.0717  1.0180 -0.0960
   12CHL1  H19A  855   4.955   3.890   5.836 -0.3802 -0.0170 -0.4671
   12CHL1  H19B  856   4.879   3.941   5.691 -1.1394 -3.3954 -0.0974
   12CHL1  H19C  857   5.010   3.819   5.691 -1.4147 -0.4274  2.1461
   12CHL1    C1  858   5.221   3.977   5.792 -1.3055  0.6598 -0.6254
   12CHL1   H1A  859   5.246   3.879   5.747  1.7730  1.0024  0.1120
   12CHL1   H1B  860   5.307   4.047   5.778  0.6687 -1.9952 -2.8986
   12CHL1    C2  861   5.202   3.951   5.945 -0.1372  0.1533  0.3109
   12CHL1   H2A  862   5.305   3.933   5.982 -0.2584  1.1185  1.1683
   12CHL1   H2B  863   5.146   3.856   5.956 -0.0279 -0.0956 -1.0615
   12CHL1   C20  864   5.059   3.989   5.017  0.2493  0.0427 -0.2625
   12CHL1   H20  865   5.102   3.889   5.039  0.0854 -0.1941 -0.9639
   12CHL1   C21  866   5.142   4.046   4.902  0.2283  0.0506 -0.0242
   12CHL1  H21A  867   5.238   4.092   4.932  0.6290 -1.4645  1.1646
   12CHL1  H21B  868   5.083   4.122   4.847 -1.4732  0.1625  1.8320
   12CHL1  H21C  869   5.177   3.967   4.832  1.7715 -2.5245  3.3599
   12CHL1   C22  870   4.915   3.950   4.957  0.3917 -0.8147 -0.5264
   12CHL1  H22A  871   4.842   3.965   5.039  1.0566  0.6522 -0.1734
   12CHL1  H22B  872   4.891   4.018   4.872  1.2274 -1.4341 -1.2740
   12CHL1   C23  873   4.902   3.807   4.909 -0.3520  0.3304 -0.0580
   12CHL1  H23A  874   4.966   3.787   4.820  0.4427  0.7610  0.4094
   12CHL1  H23B  875   4.926   3.747   4.999 -0.7734 -1.1234 -0.8702
   12CHL1   C24  876   4.756   3.773   4.882  0.5603 -0.7674  0.4557
   12CHL1  H24A  877   4.696   3.821   4.962  0.6503  1.2257 -0.6045
   12CHL1  H24B  878   4.718   3.835   4.799  1.8152  0.1273  0.5130
   12CHL1   C25  879   4.730   3.625   4.851  0.6010 -0.7103 -0.3107
   12CHL1   H25  880   4.757   3.566   4.942 -1.1728 -3.6941 -1.5710
   12CHL1   C26  881   4.587   3.588   4.808  0.2352 -0.1748  0.7321
   12CHL1  H26A  882   4.504   3.612   4.878 -0.2692 -1.7763  0.7258
   12CHL1  H26B  883   4.562   3.636   4.711  3.4639 -1.4017 -0.8653
   12CHL1  H26C  884   4.581   3.479   4.785  0.1465 -0.0622  0.2065
   12CHL1   C27  885   4.825   3.559   4.748  0.5022  0.3901  0.3949
   12CHL1  H27A  886   4.930   3.584   4.774  0.6294 -0.8788  1.1561
   12CHL1  H27B  887   4.808   3.451   4.728 -1.8339  0.9941 -1.3820
   12CHL1  H27C  888   4.814   3.596   4.643  0.8851 -1.6238 -0.4023
   13CHL1    C3  889   3.320   5.316   6.078  0.1182 -0.5088  0.1792
   13CHL1    H3  890   3.318   5.423   6.047 -1.1621  0.7624  4.0265
   13CHL1    O3  891   3.312   5.325   6.219  0.4317 -0.0000  0.1655
   13CHL1   H3'  892   3.393   5.371   6.245 -0.2837 -0.0246  2.6956
   13CHL1    C4  893   3.185   5.248   6.042 -0.0069  0.3705  0.1940
   13CHL1   H4A  894   3.188   5.145   6.083  0.0266  0.1794 -0.2836
   13CHL1   H4B  895   3.099   5.294   6.096  3.1631  0.2769  6.1555
   13CHL1    C5  896   3.176   5.239   5.891  0.0196  0.6427 -0.2193
   13CHL1    C6  897   3.073   5.283   5.826 -0.5069  0.6134  0.0452
   13CHL1    H6  898   2.994   5.331   5.886  0.8737  1.0858  1.5608
   13CHL1    C7  899   3.063   5.268   5.677  0.0824  0.2168 -0.3179
   13CHL1   H7A  900   2.962   5.231   5.651  0.0052  0.1631  0.0636
   13CHL1   H7B  901   3.068   5.367   5.626 -1.0225  0.0532 -0.7653
   13CHL1    C8  902   3.167   5.174   5.614 -0.1241  0.1948 -0.1414
   13CHL1    H8  903   3.134   5.070   5.637 -1.0582  0.1420 -1.6142
   13CHL1   C14  904   3.168   5.177   5.458 -0.2421 -0.6740  0.0011
   13CHL1   H14  905   3.208   5.278   5.437 -0.4928 -0.8475 -1.4704
   13CHL1   C15  906   3.037   5.170   5.376 -0.1304  0.1701  0.3977
   13CHL1  H15A  907   2.956   5.105   5.414  0.1519 -0.7717 -0.5671
   13CHL1  H15B  908   2.999   5.272   5.354 -0.4742  0.7115  3.1725
   13CHL1   C16  909   3.081   5.119   5.237  0.7164  0.7209 -0.3835
   13CHL1  H16A  910   3.043   5.017   5.216  0.2145  0.8784 -0.2554
   13CHL1  H16B  911   3.040   5.179   5.153  1.1919  0.8309 -0.5431
   13CHL1   C17  912   3.238   5.115   5.237 -0.3124 -0.1885 -0.0631
   13CHL1   H17  913   3.275   5.218   5.220 -0.6446  0.0041  0.3664
   13CHL1   C13  914   3.273   5.083   5.387 -0.5205  0.2199  0.0477
   13CHL1   C18  915   3.240   4.932   5.414 -0.8591 -0.9275 -0.5628
   13CHL1  H18A  916   3.318   4.876   5.359 -0.2667 -1.3005  0.6049
   13CHL1  H18B  917   3.230   4.918   5.524 -2.3997 -0.0765 -0.5637
   13CHL1  H18C  918   3.139   4.908   5.375 -2.2968  0.9933  1.6722
   13CHL1   C12  919   3.414   5.117   5.440  0.0107 -0.5445  0.1521
   13CHL1  H12A  920   3.494   5.054   5.396  1.5938  1.2190  0.3655
   13CHL1  H12B  921   3.442   5.218   5.402 -0.7439  0.1514  1.3733
   13CHL1   C11  922   3.414   5.110   5.593 -0.2278  0.6651  0.8322
   13CHL1  H11A  923   3.419   5.000   5.611  0.2983  0.6878  0.8678
   13CHL1  H11B  924   3.512   5.155   5.620 -1.3645  2.2163  2.6191
   13CHL1    C9  925   3.307   5.188   5.670 -0.2240  0.1507 -0.2569
   13CHL1    H9  926   3.339   5.291   5.644  0.3885  0.4048  1.3896
   13CHL1   C10  927   3.301   5.169   5.824  0.1185  0.7243 -0.3024
   13CHL1   C19  928   3.309   5.019   5.858 -0.0954  0.0151 -0.5399
   13CHL1  H19A  929   3.411   4.978   5.845 -0.0559  0.4895 -1.8997
   13CHL1  H19B  930   3.281   4.992   5.963  1.0733  2.7786  0.5891
   13CHL1  H19C  931   3.242   4.958   5.795 -0.2221 -0.1795 -0.2221
   13CHL1    C1  932   3.433   5.237   5.877  0.0002 -0.2883 -0.0948
   13CHL1   H1A  933   3.523   5.177   5.849  0.7737  0.1280  1.3612
   13CHL1   H1B  934   3.426   5.338   5.832  3.1491 -0.7423 -1.9520
   13CHL1    C2  935   3.443   5.239   6.030  0.0425  0.0564 -0.5341
   13CHL1   H2A  936   3.537   5.288   6.064 -0.2329 -0.3748  0.9511
   13CHL1   H2B  937   3.444   5.131   6.055  0.7827  0.5248  1.7626
   13CHL1   C20  938   3.291   5.024   5.124 -0.4923 -0.1411 -0.3821
   13CHL1   H20  939   3.262   4.918   5.142  1.9800 -0.4688  2.5502
   13CHL1   C21  940   3.445   5.036   5.132 -0.8717  0.2132 -0.0843
   13CHL1  H21A  941   3.483   5.139   5.145 -0.7277  0.1318  0.1401
   13CHL1  H21B  942   3.495   4.999   5.040  1.9732 -0.9690  1.8027
   13CHL1  H21C  943   3.484   4.970   5.212 -1.8285 -0.7812 -0.4010
   13CHL1   C22  944   3.237   5.069   4.985 -0.2151  0.3869 -0.1662
   13CHL1  H22A  945   3.126   5.076   4.987 -0.2282  0.3302 -0.6588
   13CHL1  H22B  946   3.266   5.175   4.966  4.0990 -0.6660 -0.4303
   13CHL1   C23  947   3.284   4.985   4.865  0.1842  0.2307  0.2806
   13CHL1  H23A  948   3.395   4.981   4.867  0.2056 -0.9195  3.7992
   13CHL1  H23B  949   3.253   4.879   4.880 -0.8049  0.5841  0.8529
   13CHL1   C24  950   3.229   5.040   4.723  0.9721  0.6055 -0.3898
   13CHL1  H24A  951   3.120   5.019   4.723  1.3599 -1.8736  0.9951
   13CHL1  H24B  952   3.245   5.150   4.729  0.4644  0.7451 -1.4165
   13CHL1   C25  953   3.281   4.968   4.603  0.7064  0.1604  0.3005
   13CHL1   H25  954   3.225   5.011   4.517 -0.1136 -0.2137  0.6467
   13CHL1   C26  955   3.428   4.981   4.566 -0.2325  0.2345 -0.1792
   13CHL1  H26A  956   3.483   4.932   4.649 -0.4254 -0.3617 -0.3992
   13CHL1  H26B  957   3.447   4.930   4.469 -2.3439  0.2479 -0.6466
   13CHL1  H26C  958   3.455   5.089   4.569  0.3492  0.1698 -1.8713
   13CHL1   C27  959   3.258   4.818   4.611  0.1995  0.0066  0.4491
   13CHL1  H27A  960   3.291   4.773   4.515 -2.0356 -1.1445  0.1531
   13CHL1  H27B  961   3.328   4.764   4.679  0.9821  1.4181  0.8006
   13CHL1  H27C  962   3.151   4.796   4.634 -0.5625  2.8440  0.0112
   14CHL1    C3  963   4.253   2.622   5.913 -0.1021 -0.1359  1.0297
   14CHL1    H3  964   4.259   2.514   5.889 -0.3003 -0.0080  0.3593
   14CHL1    O3  965   4.244   2.646   6.053  0.3481 -0.2606 -0.2690
   14CHL1   H3'  966   4.210   2.565   6.090 -0.2407  1.1191  2.4265
   14CHL1    C4  967   4.382   2.701   5.874 -0.3956  0.2485 -0.8527
   14CHL1   H4A  968   4.375   2.805   5.912 -1.8450  0.3542 -1.3712
   14CHL1   H4B  969   4.466   2.656   5.932 -2.0671 -2.0809 -0.1094
   14CHL1    C5  970   4.404   2.684   5.729 -0.7871  0.1821  0.2578
   14CHL1    C6  971   4.518   2.636   5.681  0.0924 -0.0053  0.2265
   14CHL1    H6  972   4.605   2.619   5.746 -0.7069  2.2960  2.0373
   14CHL1    C7  973   4.539   2.605   5.540  0.1732 -0.1920  0.7976
   14CHL1   H7A  974   4.640   2.633   5.505 -0.4496  1.7758  0.4242
   14CHL1   H7B  975   4.535   2.496   5.517 -0.7240  0.4391 -2.6097
   14CHL1    C8  976   4.447   2.677   5.441 -0.1955  0.6252  0.0389
   14CHL1    H8  977   4.460   2.787   5.448  0.2895  0.6288 -0.7894
   14CHL1   C14  978   4.454   2.622   5.302  0.5079  0.4693 -0.5611
   14CHL1   H14  979   4.409   2.521   5.313  0.3119  0.8107  2.8063
   14CHL1   C15  980   4.594   2.596   5.240  0.6218  0.2889  0.2193
   14CHL1  H15A  981   4.652   2.688   5.262  0.9244 -0.4721  2.9063
   14CHL1  H15B  982   4.646   2.509   5.285  1.0578  0.3290 -0.2038
   14CHL1   C16  983   4.569   2.585   5.091 -0.5076  0.5253 -0.5139
   14CHL1  H16A  984   4.626   2.667   5.042  1.3785  0.7328  1.8577
   14CHL1  H16B  985   4.599   2.486   5.050  0.4352  0.1044  1.1201
   14CHL1   C17  986   4.420   2.626   5.067  0.5706 -0.3253  0.1943
   14CHL1   H17  987   4.370   2.527   5.070  1.1615 -0.5993  1.6431
   14CHL1   C13  988   4.379   2.705   5.195  0.6588  0.2380  0.1054
   14CHL1   C18  989   4.445   2.849   5.186  1.3410 -1.0557  0.2203
   14CHL1  H18A  990   4.472   2.891   5.285 -1.5830  1.3186  0.1667
   14CHL1  H18B  991   4.540   2.849   5.128  1.4704  0.9683  0.3398
   14CHL1  H18C  992   4.376   2.913   5.127  2.1416 -2.2376 -2.1518
   14CHL1   C12  993   4.230   2.700   5.238  0.1142  0.3741  0.0638
   14CHL1  H12A  994   4.183   2.780   5.177 -0.3700 -1.2641 -1.8104
   14CHL1  H12B  995   4.185   2.600   5.221  0.3255 -0.1983  2.4669
   14CHL1   C11  996   4.208   2.730   5.389  0.5699  0.1587 -0.0097
   14CHL1  H11A  997   4.221   2.840   5.394 -1.1255  0.5403 -2.5050
   14CHL1  H11B  998   4.100   2.714   5.410  0.5839  0.5119  0.3465
   14CHL1    C9  999   4.300   2.665   5.493 -0.7152  0.3897 -0.2980
   14CHL1    H9 1000   4.271   2.559   5.504  0.9288 -0.0182  0.4446
   14CHL1   C10 1001   4.283   2.718   5.641 -0.9409 -0.3082 -0.1567
   14CHL1   C19 1002   4.282   2.871   5.646  0.8180  0.1260 -0.0609
   14CHL1  H19A 1003   4.259   2.916   5.745  1.3403  0.0733  0.0885
   14CHL1  H19B 1004   4.380   2.921   5.631 -0.0578  2.1751  0.6116
   14CHL1  H19C 1005   4.202   2.916   5.583  1.3734 -0.8525 -1.4980
   14CHL1    C1 1006   4.155   2.650   5.693  0.4528  0.2818  0.7238
   14CHL1   H1A 1007   4.075   2.701   5.635  2.0753  0.0259 -1.9137
   14CHL1   H1B 1008   4.163   2.539   5.684  2.7762  0.3118  1.6107
   14CHL1    C2 1009   4.131   2.678   5.837 -0.0761  0.8495 -0.2352
   14CHL1   H2A 1010   4.039   2.636   5.884  0.7038  0.6506  1.1746
   14CHL1   H2B 1011   4.120   2.786   5.861 -4.9869  0.9144 -1.6656
   14CHL1   C20 1012   4.392   2.692   4.931  0.1889 -0.2276 -0.3094
   14CHL1   H20 1013   4.386   2.801   4.946 -0.3810 -0.4214  0.9453
   14CHL1   C21 1014   4.250   2.655   4.888 -0.4705  0.0243 -0.1061
   14CHL1  H21A 1015   4.243   2.544   4.882  2.3553 -0.3972  2.1715
   14CHL1  H21B 1016   4.213   2.700   4.794 -3.0814  0.8411  1.2232
   14CHL1  H21C 1017   4.177   2.665   4.971  0.5744 -0.6401  0.9187
   14CHL1   C22 1018   4.492   2.654   4.819 -0.2961 -0.0476  0.1614
   14CHL1  H22A 1019   4.591   2.704   4.830  0.9264 -2.1579 -0.6155
   14CHL1  H22B 1020   4.517   2.546   4.823 -0.4614 -0.1375 -0.8981
   14CHL1   C23 1021   4.455   2.686   4.668  1.1960 -0.6132  0.6944
   14CHL1  H23A 1022   4.381   2.608   4.638  0.3547  1.0978 -2.0982
   14CHL1  H23B 1023   4.403   2.784   4.661 -0.4911 -1.4526  0.8694
   14CHL1   C24 1024   4.552   2.691   4.553 -0.0651  0.9192  0.6772
   14CHL1  H24A 1025   4.604   2.593   4.548 -1.5819  0.1570 -1.0331
   14CHL1  H24B 1026   4.504   2.703   4.454  2.0301 -3.1380 -1.0793
   14CHL1   C25 1027   4.663   2.803   4.567 -0.2656 -0.2680 -0.2704
   14CHL1   H25 1028   4.715   2.804   4.665 -1.1152  1.6575  0.2177
   14CHL1   C26 1029   4.771   2.789   4.459  0.0272  0.2675 -0.3329
   14CHL1  H26A 1030   4.800   2.682   4.471  0.0271  0.5538  3.6929
   14CHL1  H26B 1031   4.736   2.804   4.355  1.1934  0.6350 -0.6936
   14CHL1  H26C 1032   4.857   2.856   4.480  0.6173 -1.1710  2.3486
   14CHL1   C27 1033   4.597   2.945   4.559  0.0744  0.8039 -0.1883
   14CHL1  H27A 1034   4.544   2.950   4.461  2.2809 -0.0719 -1.4955
   14CHL1  H27B 1035   4.512   2.954   4.630  0.5106  2.9053  0.1441
   14CHL1  H27C 1036   4.674   3.024   4.574 -0.2119  1.1047 -0.2954
   15CHL1    C3 1037   5.721   2.076   6.085  0.0046  0.1971 -0.0810
   15CHL1    H3 1038   5.620   2.035   6.065  0.6070 -1.6974  0.5371
   15CHL1    O3 1039   5.732   2.064   6.227 -0.1745  0.0206  0.0208
   15CHL1   H3' 1040   5.817   2.099   6.254 -0.0127 -0.8404  0.6588
   15CHL1    C4 1041   5.834   1.998   6.014  0.0372  0.4719 -0.2156
   15CHL1   H4A 1042   5.930   2.037   6.054  0.7521  1.4077 -2.6453
   15CHL1   H4B 1043   5.821   1.893   6.047 -0.0557  0.0295 -1.6003
   15CHL1    C5 1044   5.844   2.017   5.864  0.1208 -0.0751  0.6605
   15CHL1    C6 1045   5.849   1.908   5.789  0.1643  0.3217  0.6078
   15CHL1    H6 1046   5.851   1.812   5.843  0.5667  0.1349  0.2583
   15CHL1    C7 1047   5.839   1.904   5.641  0.7698  0.1445 -0.6416
   15CHL1   H7A 1048   5.918   1.832   5.608  0.7546 -0.2089  0.0853
   15CHL1   H7B 1049   5.738   1.862   5.624 -0.7024  3.3029 -0.1398
   15CHL1    C8 1050   5.867   2.040   5.586 -0.3744 -1.2224 -0.0386
   15CHL1    H8 1051   5.977   2.052   5.599 -0.5595 -0.4044  0.9040
   15CHL1   C14 1052   5.826   2.046   5.437 -0.5965 -0.5067  0.3695
   15CHL1   H14 1053   5.715   2.040   5.436 -0.5451 -1.7138  0.1910
   15CHL1   C15 1054   5.867   1.928   5.350 -1.0094  0.2537  0.0425
   15CHL1  H15A 1055   5.971   1.901   5.379 -0.7790  2.2615  1.2641
   15CHL1  H15B 1056   5.799   1.841   5.368  1.3745 -1.2490  2.4395
   15CHL1   C16 1057   5.879   1.994   5.210 -0.3516  0.2260 -0.3198
   15CHL1  H16A 1058   5.987   1.989   5.184  0.3236  0.1463  2.2400
   15CHL1  H16B 1059   5.814   1.944   5.135  0.2081  1.5300 -1.7269
   15CHL1   C17 1060   5.839   2.145   5.222  0.9474  0.0059 -0.6346
   15CHL1   H17 1061   5.728   2.150   5.215  0.9633 -1.5142 -3.3227
   15CHL1   C13 1062   5.870   2.172   5.368 -0.2048 -0.2711  0.1720
   15CHL1   C18 1063   6.028   2.198   5.380  0.0020  0.4811  0.5930
   15CHL1  H18A 1064   6.081   2.122   5.320  0.4721  1.0907  0.2199
   15CHL1  H18B 1065   6.053   2.297   5.336 -1.5111  0.3060 -0.7293
   15CHL1  H18C 1066   6.072   2.187   5.482 -0.3647 -1.5406  0.5642
   15CHL1   C12 1067   5.789   2.293   5.431 -0.2428 -0.0005  0.1380
   15CHL1  H12A 1068   5.839   2.383   5.390  1.5944  0.7045  3.5623
   15CHL1  H12B 1069   5.681   2.282   5.406 -0.5110 -1.7316  1.7810
   15CHL1   C11 1070   5.815   2.291   5.585  0.3258 -0.0544  0.6079
   15CHL1  H11A 1071   5.917   2.336   5.590  0.9455 -1.4248  0.6449
   15CHL1  H11B 1072   5.761   2.370   5.642  1.6595  1.6423 -0.3766
   15CHL1    C9 1073   5.796   2.157   5.654  1.0727  0.4983  0.5284
   15CHL1    H9 1074   5.690   2.124   5.653  1.5498 -1.1030  0.3315
   15CHL1   C10 1075   5.832   2.150   5.809 -0.5784 -0.0843 -0.3444
   15CHL1   C19 1076   5.968   2.225   5.833 -0.3789  0.2141  0.3000
   15CHL1  H19A 1077   5.944   2.330   5.806 -1.6317  0.0887  0.8792
   15CHL1  H19B 1078   5.999   2.212   5.938 -1.7186  0.0534  0.6870
   15CHL1  H19C 1079   6.044   2.174   5.769 -0.7041  0.2380 -0.1128
   15CHL1    C1 1080   5.727   2.229   5.880  0.3066 -0.1348 -0.3671
   15CHL1   H1A 1081   5.736   2.339   5.867  1.3569  0.2165  2.6149
   15CHL1   H1B 1082   5.628   2.192   5.846  0.4315 -1.0315  0.2239
   15CHL1    C2 1083   5.725   2.223   6.033  0.4662  0.3433 -0.5468
   15CHL1   H2A 1084   5.643   2.281   6.081  2.3100  2.1346  0.6009
   15CHL1   H2B 1085   5.816   2.274   6.072 -0.1614  0.8705  0.2637
   15CHL1   C20 1086   5.896   2.233   5.114 -0.5155 -0.7298  0.7786
   15CHL1   H20 1087   6.007   2.223   5.108 -0.3912 -0.2020  2.0608
   15CHL1   C21 1088   5.876   2.383   5.127 -0.1848 -0.8298 -0.8998
   15CHL1  H21A 1089   5.958   2.433   5.183  0.0227 -1.0517 -1.0060
   15CHL1  H21B 1090   5.778   2.416   5.167 -0.6382 -1.7583 -1.2152
   15CHL1  H21C 1091   5.896   2.429   5.028 -0.2783  0.3611 -0.3839
   15CHL1   C22 1092   5.843   2.192   4.973  0.8585 -0.3072  0.1908
   15CHL1  H22A 1093   5.827   2.082   4.972 -2.4451  0.0672  0.5236
   15CHL1  H22B 1094   5.746   2.239   4.943  1.7662  1.8481  0.4362
   15CHL1   C23 1095   5.936   2.207   4.855 -0.1182  0.7027 -0.5131
   15CHL1  H23A 1096   5.964   2.315   4.856 -1.4819  1.0887 -1.0051
   15CHL1  H23B 1097   6.029   2.148   4.871 -0.9947 -0.9055 -1.0951
   15CHL1   C24 1098   5.878   2.159   4.718 -0.1179  0.4994 -0.1793
   15CHL1  H24A 1099   5.818   2.065   4.716 -1.0953  1.1125 -0.3665
   15CHL1  H24B 1100   5.794   2.227   4.690 -0.8129 -0.7193 -1.1813
   15CHL1   C25 1101   5.977   2.149   4.605  0.3745  0.4819  0.5865
   15CHL1   H25 1102   6.019   2.047   4.621  1.7960  0.3459 -3.0822
   15CHL1   C26 1103   5.921   2.129   4.468  0.5699  0.2084  0.1087
   15CHL1  H26A 1104   5.895   2.228   4.424  0.6317  0.3838  0.4635
   15CHL1  H26B 1105   5.991   2.080   4.397  0.6288 -0.4325  0.6032
   15CHL1  H26C 1106   5.832   2.063   4.476  0.1770  0.6407 -0.5954
   15CHL1   C27 1107   6.099   2.235   4.606  0.4356 -0.9199  0.3407
   15CHL1  H27A 1108   6.148   2.254   4.704  3.9492 -1.0333 -1.2464
   15CHL1  H27B 1109   6.181   2.185   4.551  0.7202 -1.8283  1.5640
   15CHL1  H27C 1110   6.085   2.338   4.567 -2.8407 -1.0362  0.9240
   16CHL1    C3 1111   2.243   6.070   6.184 -0.7443 -0.2514  0.2923
   16CHL1    H3 1112   2.278   5.965   6.172  0.3654  0.0047  1.1129
   16CHL1    O3 1113   2.277   6.094   6.323  0.4702  0.2242 -0.1539
   16CHL1   H3' 1114   2.266   6.189   6.323 -5.2503 -0.0823  0.7189
   16CHL1    C4 1115   2.333   6.166   6.104  0.1221  0.1563  0.5970
   16CHL1   H4A 1116   2.310   6.271   6.134 -3.9778 -0.1038 -1.0103
   16CHL1   H4B 1117   2.442   6.157   6.123  0.0242 -2.1253  0.3439
   16CHL1    C5 1118   2.300   6.144   5.956  0.2248 -0.1739 -0.6593
   16CHL1    C6 1119   2.393   6.115   5.875  0.3689  0.2346  0.0037
   16CHL1    H6 1120   2.495   6.094   5.910  0.6345 -1.4456 -1.5751
   16CHL1    C7 1121   2.380   6.099   5.726 -0.0797  0.2152  0.4390
   16CHL1   H7A 1122   2.467   6.148   5.677 -0.6601 -1.1483 -2.1246
   16CHL1   H7B 1123   2.401   5.993   5.701  2.7540  0.6543  0.5835
   16CHL1    C8 1124   2.240   6.126   5.667 -0.2980 -0.0234 -0.1284
   16CHL1    H8 1125   2.228   6.234   5.645 -1.1272 -0.0581  0.1181
   16CHL1   C14 1126   2.206   6.052   5.536  0.8547  0.5041 -0.3134
   16CHL1   H14 1127   2.200   5.948   5.576  0.5731  0.5954 -0.1119
   16CHL1   C15 1128   2.302   6.033   5.427  0.1365 -0.3814  0.8320
   16CHL1  H15A 1129   2.353   6.127   5.398 -0.1636 -0.6669 -0.6869
   16CHL1  H15B 1130   2.386   5.967   5.459  1.7559  1.5096  0.7085
   16CHL1   C16 1131   2.225   5.982   5.306  0.0158 -0.3583  0.4877
   16CHL1  H16A 1132   2.217   6.050   5.219 -0.4680  1.4900  1.9341
   16CHL1  H16B 1133   2.272   5.889   5.267  1.7897  0.1685  1.2285
   16CHL1   C17 1134   2.074   5.963   5.353  0.0764 -0.0037  0.0108
   16CHL1   H17 1135   2.073   5.860   5.395  0.5070  0.5058  1.3312
   16CHL1   C13 1136   2.061   6.062   5.473 -1.0999  0.2151  0.8084
   16CHL1   C18 1137   2.045   6.203   5.415 -0.2915  0.1624 -0.2139
   16CHL1  H18A 1138   2.120   6.222   5.335 -1.7688  0.0534 -1.6931
   16CHL1  H18B 1139   1.949   6.217   5.360  0.2943  2.4752 -0.7166
   16CHL1  H18C 1140   2.056   6.281   5.493 -0.3439  1.3530 -1.3601
   16CHL1   C12 1141   1.967   6.024   5.580 -0.0047 -0.0973  0.3396
   16CHL1  H12A 1142   1.859   6.038   5.556  0.2467  0.0766 -0.7642
   16CHL1  H12B 1143   1.973   5.915   5.601  0.6388 -0.1529 -0.1153
   16CHL1   C11 1144   1.988   6.108   5.708  0.2073  0.6341  0.2806
   16CHL1  H11A 1145   1.968   6.215   5.685  2.5619  0.5070 -3.0577
   16CHL1  H11B 1146   1.911   6.088   5.784 -1.1249  1.9962 -0.6537
   16CHL1    C9 1147   2.129   6.096   5.772  1.0111 -0.8952 -0.7597
   16CHL1    H9 1148   2.129   5.986   5.789 -2.4022 -0.6352  2.0893
   16CHL1   C10 1149   2.156   6.156   5.917 -0.5392 -0.1926  0.6539
   16CHL1   C19 1150   2.112   6.308   5.911 -0.7906  0.4587 -1.1506
   16CHL1  H19A 1151   2.158   6.354   6.001  0.1465 -2.4795  0.0068
   16CHL1  H19B 1152   2.141   6.356   5.815 -1.7774  2.5724 -0.4525
   16CHL1  H19C 1153   2.003   6.308   5.931 -0.5388 -0.7930  0.4434
   16CHL1    C1 1154   2.065   6.080   6.012  0.5533 -0.1149  0.2660
   16CHL1   H1A 1155   1.960   6.111   5.994  0.1323 -0.7459  1.4685
   16CHL1   H1B 1156   2.050   5.972   5.989 -3.6382  0.4426 -0.3615
   16CHL1    C2 1157   2.099   6.102   6.158 -0.2431  0.6413 -0.4538
   16CHL1   H2A 1158   2.026   6.041   6.216 -1.3667  1.4314 -1.0129
   16CHL1   H2B 1159   2.086   6.209   6.184 -0.3904  0.7461 -0.9586
   16CHL1   C20 1160   1.969   5.953   5.243 -0.0033  0.1642  0.6888
   16CHL1   H20 1161   1.928   6.054   5.221 -1.4404 -0.7133 -0.8323
   16CHL1   C21 1162   1.846   5.880   5.303  0.0633 -0.3712  0.0366
   16CHL1  H21A 1163   1.877   5.782   5.346 -0.2624  0.1168  1.4264
   16CHL1  H21B 1164   1.764   5.858   5.231 -0.0407 -0.9730  0.3287
   16CHL1  H21C 1165   1.788   5.945   5.372 -0.5979  1.5499 -2.2126
   16CHL1   C22 1166   2.022   5.883   5.119  0.0184  0.6619  0.3636
   16CHL1  H22A 1167   2.126   5.909   5.088  0.0948  0.0469  0.1008
   16CHL1  H22B 1168   2.031   5.775   5.142  1.0108  1.4500  4.4361
   16CHL1   C23 1169   1.932   5.904   5.000 -0.6113 -0.2820  0.0173
   16CHL1  H23A 1170   1.838   5.848   5.018 -0.4060 -0.3904  0.8017
   16CHL1  H23B 1171   1.922   6.013   4.982 -0.4808  0.0433  1.7379
   16CHL1   C24 1172   1.995   5.840   4.873 -0.3020  0.7550  0.5791
   16CHL1  H24A 1173   2.098   5.883   4.874 -0.4874  1.2770 -0.8372
   16CHL1  H24B 1174   1.998   5.729   4.887 -1.2703  0.8065  1.2852
   16CHL1   C25 1175   1.927   5.887   4.739 -0.4068 -0.4722  0.0145
   16CHL1   H25 1176   1.879   5.985   4.759 -1.5356 -0.7777 -1.1037
   16CHL1   C26 1177   2.042   5.904   4.633  0.5024  0.7725  0.0188
   16CHL1  H26A 1178   2.120   5.971   4.672 -0.1244  1.5087  0.0355
   16CHL1  H26B 1179   2.083   5.802   4.617  3.1940  1.4659  1.8498
   16CHL1  H26C 1180   2.010   5.931   4.530  0.7488  0.2327 -0.2033
   16CHL1   C27 1181   1.811   5.795   4.694  0.0567 -0.9121 -0.8656
   16CHL1  H27A 1182   1.745   5.803   4.783  1.8735 -0.9763  0.5520
   16CHL1  H27B 1183   1.761   5.852   4.613  0.1729 -1.0681 -1.0488
   16CHL1  H27C 1184   1.834   5.690   4.665 -0.0534 -0.5141 -2.5096
   17CHL1    C3 1185   1.793   2.857   6.468  0.1230 -0.7294 -0.0562
   17CHL1    H3 1186   1.728   2.925   6.527  0.2480  2.1002 -2.9042
   17CHL1    O3 1187   1.870   2.786   6.560 -0.8848  0.5896  0.0429
   17CHL1   H3' 1188   1.924   2.736   6.499  0.0963 -0.6178  1.8423
   17CHL1    C4 1189   1.712   2.750   6.391 -0.1100 -0.2424 -0.7306
   17CHL1   H4A 1190   1.785   2.671   6.363  3.1738  1.6980  1.5528
   17CHL1   H4B 1191   1.653   2.698   6.469 -0.3726 -0.1887 -0.8942
   17CHL1    C5 1192   1.637   2.797   6.272  0.0728  0.6457 -0.3912
   17CHL1    C6 1193   1.502   2.774   6.255 -0.0758  0.4005  0.6350
   17CHL1    H6 1194   1.436   2.736   6.335 -1.6253  1.9361  0.1529
   17CHL1    C7 1195   1.440   2.801   6.117 -0.1090  0.3638  0.1302
   17CHL1   H7A 1196   1.383   2.712   6.082  0.0112  0.7577 -1.1154
   17CHL1   H7B 1197   1.369   2.885   6.129  1.2493  1.2663  2.6794
   17CHL1    C8 1198   1.534   2.833   5.995 -0.6224 -0.2628 -0.4479
   17CHL1    H8 1199   1.586   2.736   5.979  0.8130  0.5211 -0.7034
   17CHL1   C14 1200   1.458   2.893   5.889  0.8440 -0.0122  0.5482
   17CHL1   H14 1201   1.429   2.993   5.927 -1.9380 -1.9654  4.1388
   17CHL1   C15 1202   1.333   2.826   5.836 -0.4534 -0.1685  0.1588
   17CHL1  H15A 1203   1.339   2.716   5.827 -1.4725 -0.1915 -0.4331
   17CHL1  H15B 1204   1.245   2.844   5.902 -0.7792 -1.6327  0.1550
   17CHL1   C16 1205   1.310   2.882   5.692 -1.1657  0.0448  0.6430
   17CHL1  H16A 1206   1.303   2.803   5.615 -3.8592 -0.4514  1.2856
   17CHL1  H16B 1207   1.220   2.946   5.678 -1.1138 -0.0928 -0.3875
   17CHL1   C17 1208   1.438   2.973   5.660  0.9084  0.1683 -0.7700
   17CHL1   H17 1209   1.416   3.079   5.687 -0.2196 -0.1561 -0.3419
   17CHL1   C13 1210   1.543   2.924   5.762  1.0759  0.8195  0.2355
   17CHL1   C18 1211   1.600   2.792   5.696 -0.4008  0.1328  0.1505
   17CHL1  H18A 1212   1.652   2.731   5.773 -2.4743 -1.1623  0.6285
   17CHL1  H18B 1213   1.522   2.736   5.639  1.2745  0.2455 -2.4103
   17CHL1  H18C 1214   1.677   2.815   5.620 -0.5271  0.1221  0.0170
   17CHL1   C12 1215   1.653   3.025   5.807 -0.5217 -0.4373 -0.0633
   17CHL1  H12A 1216   1.725   3.060   5.730 -2.7211  1.6055 -1.3513
   17CHL1  H12B 1217   1.612   3.126   5.829 -0.2329  0.3559 -2.7859
   17CHL1   C11 1218   1.733   2.969   5.927  0.3069 -0.1213 -0.4259
   17CHL1  H11A 1219   1.782   2.874   5.898 -0.4886 -0.8241  0.4940
   17CHL1  H11B 1220   1.811   3.039   5.967  0.2532 -0.0895 -0.3769
   17CHL1    C9 1221   1.640   2.927   6.049 -0.5795  0.7129 -0.7388
   17CHL1    H9 1222   1.586   3.014   6.092 -0.9314 -1.0318  2.7193
   17CHL1   C10 1223   1.723   2.870   6.169  0.1277 -0.4767 -0.3032
   17CHL1   C19 1224   1.820   2.761   6.123  0.7384  0.5216  0.2334
   17CHL1  H19A 1225   1.882   2.806   6.043  0.5634  3.1703  1.4656
   17CHL1  H19B 1226   1.897   2.727   6.196  1.3414 -4.0700 -2.1657
   17CHL1  H19C 1227   1.763   2.671   6.091  0.8057  0.2403  0.8814
   17CHL1    C1 1228   1.805   2.978   6.248 -0.2161 -0.2376  0.0526
   17CHL1   H1A 1229   1.877   3.026   6.178 -2.2320  2.0335 -0.6045
   17CHL1   H1B 1230   1.736   3.061   6.275 -0.0942  1.0462 -3.1185
   17CHL1    C2 1231   1.884   2.941   6.377 -0.5861  0.4167 -0.0426
   17CHL1   H2A 1232   1.924   3.034   6.422 -2.3276  1.7144 -1.0130
   17CHL1   H2B 1233   1.969   2.874   6.352 -1.6708 -1.9444  2.1502
   17CHL1   C20 1234   1.474   2.986   5.512  0.0833 -0.4766  0.6335
   17CHL1   H20 1235   1.506   2.888   5.472  1.1577 -0.1571  0.6826
   17CHL1   C21 1236   1.588   3.091   5.482 -0.5619 -0.3132 -0.0470
   17CHL1  H21A 1237   1.685   3.058   5.525 -1.2379  0.3870  2.1597
   17CHL1  H21B 1238   1.555   3.191   5.515  1.0142 -0.0926  0.9752
   17CHL1  H21C 1239   1.614   3.100   5.375  2.4248  1.5241  0.7286
   17CHL1   C22 1240   1.351   3.022   5.426 -0.1291 -0.3558 -0.1542
   17CHL1  H22A 1241   1.261   2.963   5.456  0.8398 -1.4061  0.7651
   17CHL1  H22B 1242   1.326   3.130   5.441 -0.5694 -0.5277  0.4171
   17CHL1   C23 1243   1.366   2.988   5.279  0.3370 -0.4186  0.4921
   17CHL1  H23A 1244   1.443   3.057   5.238  0.6050 -1.6603 -1.2002
   17CHL1  H23B 1245   1.400   2.883   5.276 -0.8498 -0.8149  0.3819
   17CHL1   C24 1246   1.232   3.011   5.210 -0.3298 -0.1951  0.7198
   17CHL1  H24A 1247   1.167   2.922   5.226  0.2879 -0.7117  0.4324
   17CHL1  H24B 1248   1.173   3.092   5.257  0.7015  1.2763 -0.4169
   17CHL1   C25 1249   1.238   3.031   5.058 -0.1925 -0.1373  0.5183
   17CHL1   H25 1250   1.298   3.118   5.022 -1.4610  0.6282  0.1801
   17CHL1   C26 1251   1.291   2.908   4.985 -0.5207  0.5423 -0.4646
   17CHL1  H26A 1252   1.399   2.904   5.009 -0.8281 -1.7243  0.8774
   17CHL1  H26B 1253   1.236   2.814   5.009 -0.3698  0.3287 -0.9306
   17CHL1  H26C 1254   1.284   2.921   4.875  1.8242  1.8960 -0.5077
   17CHL1   C27 1255   1.093   3.062   5.009 -0.7577  0.1983  0.2289
   17CHL1  H27A 1256   1.098   3.077   4.899 -1.6657 -0.7499  0.0481
   17CHL1  H27B 1257   1.024   2.978   5.028  0.5987 -0.0062  6.3922
   17CHL1  H27C 1258   1.057   3.161   5.046  1.1301  0.6440  1.0122
   18CHL1    C3 1259   2.527   5.647   6.153 -0.4711  1.1022  0.4200
   18CHL1    H3 1260   2.630   5.606   6.156 -0.0849  1.9818 -0.3536
   18CHL1    O3 1261   2.472   5.667   6.281 -0.3493 -0.1283  0.2099
   18CHL1   H3' 1262   2.466   5.586   6.333 -1.0013 -1.3521 -1.6731
   18CHL1    C4 1263   2.529   5.778   6.078  0.0621  0.3343  0.9544
   18CHL1   H4A 1264   2.422   5.805   6.067 -0.2870 -1.9460 -2.8427
   18CHL1   H4B 1265   2.565   5.866   6.136 -1.0467  2.3379 -1.2199
   18CHL1    C5 1266   2.595   5.763   5.940  0.0799  0.7309 -0.6701
   18CHL1    C6 1267   2.702   5.832   5.899  0.4358  0.1911 -0.4105
   18CHL1    H6 1268   2.736   5.906   5.972  1.2891 -1.6655  1.1741
   18CHL1    C7 1269   2.777   5.812   5.774  0.7058  0.0314  0.0429
   18CHL1   H7A 1270   2.796   5.910   5.725  1.4175  0.0967  0.4408
   18CHL1   H7B 1271   2.875   5.767   5.799  0.7955  0.3974  0.3614
   18CHL1    C8 1272   2.703   5.728   5.669 -0.4631  0.0715  0.2062
   18CHL1    H8 1273   2.625   5.793   5.623  1.3399  0.4354 -2.5676
   18CHL1   C14 1274   2.793   5.677   5.564  0.5076  0.7710  0.8057
   18CHL1   H14 1275   2.860   5.598   5.604 -0.1853 -0.9695 -1.2766
   18CHL1   C15 1276   2.891   5.773   5.501 -0.9443 -0.4503 -0.0498
   18CHL1  H15A 1277   2.844   5.874   5.493  0.6846  0.2566 -1.0423
   18CHL1  H15B 1278   2.984   5.791   5.558 -0.2461 -0.7460 -1.0779
   18CHL1   C16 1279   2.920   5.724   5.359  0.8113  0.3303 -0.7228
   18CHL1  H16A 1280   2.866   5.800   5.299  2.9779  0.8545 -2.1102
   18CHL1  H16B 1281   3.026   5.720   5.327  1.1177  0.9410  0.1714
   18CHL1   C17 1282   2.849   5.586   5.355 -0.3957 -0.1214 -0.3192
   18CHL1   H17 1283   2.925   5.518   5.399  2.0842  1.3153 -2.1344
   18CHL1   C13 1284   2.730   5.598   5.455  0.3198  0.7058  0.0108
   18CHL1   C18 1285   2.620   5.687   5.385  0.7036 -0.6773 -0.0881
   18CHL1  H18A 1286   2.561   5.630   5.310 -0.7112 -0.6993  0.9899
   18CHL1  H18B 1287   2.551   5.727   5.462 -0.5163 -1.2804 -0.8237
   18CHL1  H18C 1288   2.671   5.773   5.338  0.0501 -0.1580  0.1370
   18CHL1   C12 1289   2.676   5.471   5.531  0.1447  0.0462  0.0438
   18CHL1  H12A 1290   2.615   5.404   5.466 -3.1402  1.2440  1.6551
   18CHL1  H12B 1291   2.767   5.424   5.573  0.4663  2.0745  1.8221
   18CHL1   C11 1292   2.577   5.514   5.641 -0.1989  0.0789 -0.2606
   18CHL1  H11A 1293   2.499   5.570   5.585 -0.7258 -0.4733 -0.0943
   18CHL1  H11B 1294   2.538   5.423   5.692 -0.1992 -0.7445 -1.6677
   18CHL1    C9 1295   2.632   5.607   5.745  0.5109 -0.4056 -0.7615
   18CHL1    H9 1296   2.719   5.557   5.793  1.1799  0.0194 -1.5035
   18CHL1   C10 1297   2.530   5.652   5.859 -0.1525  0.0786  0.3824
   18CHL1   C19 1298   2.394   5.698   5.795  0.3665 -0.4548  0.8683
   18CHL1  H19A 1299   2.318   5.716   5.874 -2.3174  0.8609 -1.7999
   18CHL1  H19B 1300   2.402   5.786   5.727 -0.6637  0.4936  1.9292
   18CHL1  H19C 1301   2.350   5.613   5.740 -0.0923 -1.6321  2.9386
   18CHL1    C1 1302   2.505   5.521   5.938 -0.1075 -0.1631 -0.2550
   18CHL1   H1A 1303   2.455   5.439   5.881  0.9181 -1.8990  1.2539
   18CHL1   H1B 1304   2.602   5.475   5.965 -0.2281 -0.1003  0.2917
   18CHL1    C2 1305   2.443   5.546   6.076 -0.2925  0.2993  0.0913
   18CHL1   H2A 1306   2.449   5.454   6.138 -0.6898 -1.1439 -1.9134
   18CHL1   H2B 1307   2.340   5.579   6.054 -0.6709 -1.5234 -1.0658
   18CHL1   C20 1308   2.820   5.534   5.216 -0.3252  0.5365  0.8821
   18CHL1   H20 1309   2.738   5.595   5.173  1.1378  0.8926 -1.5935
   18CHL1   C21 1310   2.759   5.396   5.230  0.2014  0.1302 -0.3155
   18CHL1  H21A 1311   2.651   5.412   5.251  0.1026 -1.4574  0.4932
   18CHL1  H21B 1312   2.813   5.348   5.313 -0.7546  0.0010  0.2464
   18CHL1  H21C 1313   2.782   5.328   5.145  1.3361  1.5779 -1.2269
   18CHL1   C22 1314   2.944   5.532   5.116 -0.2874  0.0230 -0.2337
   18CHL1  H22A 1315   3.005   5.625   5.121 -1.4335  0.9565 -2.3390
   18CHL1  H22B 1316   3.003   5.442   5.140  0.5293  0.7438  0.5446
   18CHL1   C23 1317   2.894   5.503   4.967 -0.8619 -0.1505 -0.3562
   18CHL1  H23A 1318   2.865   5.396   4.971  1.7706 -0.8954  1.3260
   18CHL1  H23B 1319   2.810   5.574   4.950  2.2069  4.4977  1.7001
   18CHL1   C24 1320   2.997   5.538   4.856 -0.3003 -0.4200  0.1943
   18CHL1  H24A 1321   3.017   5.647   4.870 -1.6331 -0.1342  0.0777
   18CHL1  H24B 1322   3.092   5.494   4.891 -0.6673  0.1937  2.0738
   18CHL1   C25 1323   2.947   5.506   4.714  0.7626 -0.2993  0.3259
   18CHL1   H25 1324   2.864   5.577   4.695 -0.3846 -1.6294  0.2203
   18CHL1   C26 1325   3.065   5.531   4.612 -0.6210 -0.5494 -0.3046
   18CHL1  H26A 1326   3.085   5.640   4.614 -1.5059 -0.3468  3.1937
   18CHL1  H26B 1327   3.150   5.471   4.650 -1.0197 -0.3552  0.9367
   18CHL1  H26C 1328   3.019   5.494   4.518 -2.0440 -0.8677  0.4810
   18CHL1   C27 1329   2.913   5.356   4.695  0.5968  0.3234  0.3873
   18CHL1  H27A 1330   2.825   5.336   4.760  0.2232  1.2652  0.1797
   18CHL1  H27B 1331   2.886   5.337   4.589  0.2099 -0.6180  0.6437
   18CHL1  H27C 1332   3.000   5.294   4.725  0.1668 -0.6371 -0.2838
   19CHL1    C3 1333   1.743   3.764   6.457  0.5384 -0.7015  0.4559
   19CHL1    H3 1334   1.673   3.681   6.480  0.6767 -0.7131  0.8497
   19CHL1    O3 1335   1.799   3.813   6.581  0.2765  0.5881  0.6228
   19CHL1   H3' 1336   1.855   3.885   6.551  1.1900 -0.8891 -1.3989
   19CHL1    C4 1337   1.855   3.723   6.352  0.3000 -0.3460 -0.5893
   19CHL1   H4A 1338   1.920   3.811   6.333 -1.8965  1.3066 -0.9125
   19CHL1   H4B 1339   1.915   3.644   6.401  0.2394 -0.6190 -0.9602
   19CHL1    C5 1340   1.801   3.680   6.223  0.8898 -0.1799  0.9479
   19CHL1    C6 1341   1.840   3.564   6.164 -0.5851 -0.2125 -1.2564
   19CHL1    H6 1342   1.915   3.499   6.213  1.1014 -1.0256 -4.6143
   19CHL1    C7 1343   1.782   3.512   6.037 -0.0409 -0.7083 -0.0794
   19CHL1   H7A 1344   1.860   3.474   5.968 -1.5654  0.7380 -2.8049
   19CHL1   H7B 1345   1.707   3.433   6.056  2.1805 -2.8334  0.3567
   19CHL1    C8 1346   1.719   3.632   5.950  0.0031 -0.1848 -0.5115
   19CHL1    H8 1347   1.802   3.702   5.926  0.2263  0.2464  1.3349
   19CHL1   C14 1348   1.661   3.587   5.823 -0.0940  0.5794  0.2470
   19CHL1   H14 1349   1.574   3.522   5.848  0.1191  0.2034  0.0146
   19CHL1   C15 1350   1.746   3.504   5.723 -0.6906 -0.0217 -0.6486
   19CHL1  H15A 1351   1.853   3.533   5.729 -0.8304  0.2339  0.8523
   19CHL1  H15B 1352   1.735   3.398   5.756 -0.2355  1.1287  3.7994
   19CHL1   C16 1353   1.687   3.524   5.585 -0.4533  0.0641  0.0036
   19CHL1  H16A 1354   1.774   3.561   5.527 -1.8880  0.1130 -2.2512
   19CHL1  H16B 1355   1.661   3.431   5.530  0.3641  0.2520 -0.7297
   19CHL1   C17 1356   1.567   3.619   5.617  0.0155 -0.1045  0.3379
   19CHL1   H17 1357   1.489   3.551   5.658 -0.5734  0.2704 -0.1461
   19CHL1   C13 1358   1.612   3.697   5.739 -0.5400  0.4670 -0.1472
   19CHL1   C18 1359   1.720   3.796   5.695  0.2331 -0.1939  1.0402
   19CHL1  H18A 1360   1.745   3.866   5.778  1.1690 -0.0915  0.6902
   19CHL1  H18B 1361   1.808   3.744   5.653  0.1302 -0.6137  1.3379
   19CHL1  H18C 1362   1.681   3.863   5.616  0.3372 -1.0913  0.2096
   19CHL1   C12 1363   1.495   3.768   5.813  0.0709 -0.2766 -0.6935
   19CHL1  H12A 1364   1.477   3.868   5.767  2.7400  0.1230 -0.9978
   19CHL1  H12B 1365   1.406   3.703   5.803 -1.2718  1.1538  1.2206
   19CHL1   C11 1366   1.536   3.816   5.955 -0.3678 -0.1470 -0.0850
   19CHL1  H11A 1367   1.599   3.905   5.935  0.3845 -0.1436  1.9973
   19CHL1  H11B 1368   1.445   3.848   6.011 -1.4054  1.3146 -2.4893
   19CHL1    C9 1369   1.626   3.717   6.040 -0.2247 -0.4218  0.0206
   19CHL1    H9 1370   1.548   3.647   6.076 -1.3969  0.4613 -0.7197
   19CHL1   C10 1371   1.695   3.781   6.156  0.2580  0.2857  0.2645
   19CHL1   C19 1372   1.769   3.909   6.113 -0.0730 -0.5482  0.1584
   19CHL1  H19A 1373   1.697   3.990   6.090 -1.0374 -1.3286  0.3497
   19CHL1  H19B 1374   1.827   3.960   6.193  0.3590 -1.7972  0.6778
   19CHL1  H19C 1375   1.844   3.900   6.031 -0.4886  1.5528 -0.5085
   19CHL1    C1 1376   1.592   3.815   6.263  0.2744  0.3020  0.3597
   19CHL1   H1A 1377   1.528   3.900   6.232  0.5137  1.3640  2.5693
   19CHL1   H1B 1378   1.517   3.736   6.285 -2.6746  3.0138  0.7460
   19CHL1    C2 1379   1.657   3.875   6.391  0.4538  1.5405 -0.2908
   19CHL1   H2A 1380   1.572   3.909   6.453  0.8133  2.0562 -0.0698
   19CHL1   H2B 1381   1.712   3.967   6.360 -1.4878  2.6994 -0.4785
   19CHL1   C20 1382   1.511   3.704   5.505 -1.2386  0.1496  0.5826
   19CHL1   H20 1383   1.494   3.803   5.551  0.5077  1.5325 -1.5451
   19CHL1   C21 1384   1.372   3.654   5.458 -0.0440  0.3249  0.3921
   19CHL1  H21A 1385   1.325   3.723   5.385  1.9768 -0.3527 -1.6838
   19CHL1  H21B 1386   1.299   3.648   5.541 -0.1641 -3.5613  0.2073
   19CHL1  H21C 1387   1.396   3.554   5.416  2.0776 -0.1532  2.5430
   19CHL1   C22 1388   1.611   3.711   5.381 -0.0102  0.1197  0.4399
   19CHL1  H22A 1389   1.717   3.720   5.412 -0.0729  1.6898  0.2816
   19CHL1  H22B 1390   1.600   3.605   5.348 -0.9898  0.3550 -0.0234
   19CHL1   C23 1391   1.582   3.821   5.279 -0.6330 -0.2779 -0.2916
   19CHL1  H23A 1392   1.481   3.807   5.233 -0.5056 -0.6961 -0.4524
   19CHL1  H23B 1393   1.582   3.912   5.342 -0.0519 -0.4907  0.0234
   19CHL1   C24 1394   1.677   3.859   5.165 -0.0433  0.1525  0.2806
   19CHL1  H24A 1395   1.770   3.888   5.219  0.4919 -1.0753  0.0358
   19CHL1  H24B 1396   1.701   3.761   5.119 -4.1878 -1.4311  1.1015
   19CHL1   C25 1397   1.635   3.969   5.063  1.3807  0.2037  0.6333
   19CHL1   H25 1398   1.575   4.041   5.122  0.3696 -1.4361  1.7082
   19CHL1   C26 1399   1.747   4.045   4.990 -0.3133  1.0963  0.0893
   19CHL1  H26A 1400   1.799   3.980   4.916 -0.0996 -0.8917  1.9025
   19CHL1  H26B 1401   1.702   4.127   4.929 -1.5046 -0.2837 -0.9802
   19CHL1  H26C 1402   1.822   4.080   5.064  2.3358  0.2171 -2.0113
   19CHL1   C27 1403   1.537   3.921   4.956  0.2746 -0.6764 -0.1900
   19CHL1  H27A 1404   1.589   3.849   4.889  2.8702  2.7484 -2.2046
   19CHL1  H27B 1405   1.454   3.867   5.007  0.0669 -1.0480 -0.9100
   19CHL1  H27C 1406   1.495   4.004   4.895 -1.9259 -1.2493  0.4337
   20CHL1    C3 1407   1.552   5.942   6.060 -0.9526 -0.9224 -0.5076
   20CHL1    H3 1408   1.536   6.049   6.035  1.4707 -0.1161  1.0134
   20CHL1    O3 1409   1.609   5.936   6.191  0.5768 -0.3187  0.2629
   20CHL1   H3' 1410   1.627   5.842   6.203  2.4663  0.1541  1.6054
   20CHL1    C4 1411   1.435   5.851   6.044  0.3266  0.2012  0.1723
   20CHL1   H4A 1412   1.469   5.749   6.075  1.7452  1.1227  1.8090
   20CHL1   H4B 1413   1.347   5.869   6.108 -2.4481 -2.3888 -2.5703
   20CHL1    C5 1414   1.389   5.857   5.896  0.8077 -0.0988  0.6674
   20CHL1    C6 1415   1.263   5.898   5.866  0.2509 -0.0629  0.5969
   20CHL1    H6 1416   1.206   5.929   5.955  2.1302  0.1124  1.7935
   20CHL1    C7 1417   1.205   5.901   5.730 -0.5875 -0.0972 -0.3531
   20CHL1   H7A 1418   1.103   5.856   5.728 -0.2750 -1.0202  2.0118
   20CHL1   H7B 1419   1.217   6.007   5.699  0.1335  0.4841  1.7293
   20CHL1    C8 1420   1.282   5.806   5.638  0.3513  0.5135 -0.0030
   20CHL1    H8 1421   1.268   5.701   5.670 -1.4370  0.7266  0.0329
   20CHL1   C14 1422   1.238   5.830   5.492 -0.4369  0.1534  0.9630
   20CHL1   H14 1423   1.265   5.936   5.474 -0.3441  0.3178  1.9982
   20CHL1   C15 1424   1.087   5.815   5.470 -0.4460  0.4648 -0.2505
   20CHL1  H15A 1425   1.050   5.722   5.517  0.7558 -0.9084 -1.8944
   20CHL1  H15B 1426   1.033   5.904   5.510  0.9975  1.4707 -0.4574
   20CHL1   C16 1427   1.083   5.813   5.320  0.1768  0.1423  0.8794
   20CHL1  H16A 1428   1.026   5.725   5.284  0.6920  0.7499 -1.5858
   20CHL1  H16B 1429   1.041   5.901   5.267 -0.1580 -0.4925  0.0743
   20CHL1   C17 1430   1.229   5.800   5.265 -0.7486  0.3435 -0.1419
   20CHL1   H17 1431   1.255   5.905   5.239 -0.6849  0.3848  0.0842
   20CHL1   C13 1432   1.313   5.750   5.387  0.0663 -0.0708 -0.2319
   20CHL1   C18 1433   1.282   5.600   5.413 -0.3218 -0.1982 -0.1837
   20CHL1  H18A 1434   1.304   5.560   5.514 -0.2820 -0.5323 -0.3217
   20CHL1  H18B 1435   1.175   5.576   5.398  0.1284 -0.7104 -3.5756
   20CHL1  H18C 1436   1.339   5.541   5.337 -0.8419 -0.9052 -0.0295
   20CHL1   C12 1437   1.463   5.786   5.393  0.6264 -0.3988  0.3837
   20CHL1  H12A 1438   1.530   5.722   5.331  0.7472  0.5320 -0.4696
   20CHL1  H12B 1439   1.452   5.887   5.348 -0.8750 -0.1681  1.2112
   20CHL1   C11 1440   1.516   5.770   5.537 -0.3576  0.7420 -0.4412
   20CHL1  H11A 1441   1.527   5.661   5.552  1.8439  1.0806  0.9622
   20CHL1  H11B 1442   1.617   5.817   5.543 -0.9671  2.1965 -1.1322
   20CHL1    C9 1443   1.435   5.831   5.648 -0.0090 -0.0112  0.0010
   20CHL1    H9 1444   1.432   5.940   5.624 -1.4757  0.0309  0.3235
   20CHL1   C10 1445   1.490   5.808   5.793  0.7718 -0.2910  0.2066
   20CHL1   C19 1446   1.520   5.657   5.798  0.0200  0.1005  0.0911
   20CHL1  H19A 1447   1.583   5.612   5.718 -1.1264 -2.4814  0.5436
   20CHL1  H19B 1448   1.550   5.620   5.899 -1.2463  0.0209  0.4527
   20CHL1  H19C 1449   1.424   5.604   5.785 -0.3388  0.7914 -0.0912
   20CHL1    C1 1450   1.621   5.893   5.818  0.1823  0.6607  0.1272
   20CHL1   H1A 1451   1.699   5.848   5.752  0.1822 -0.2798  0.7570
   20CHL1   H1B 1452   1.600   5.995   5.777  1.0262  0.6902 -0.2712
   20CHL1    C2 1453   1.672   5.903   5.968  0.3603  0.0397 -0.7080
   20CHL1   H2A 1454   1.747   5.984   5.962 -0.3730  0.7676 -0.2739
   20CHL1   H2B 1455   1.710   5.803   5.998 -0.4958 -0.4964 -1.3736
   20CHL1   C20 1456   1.242   5.715   5.137  0.4668  0.2309  0.1815
   20CHL1   H20 1457   1.194   5.616   5.151  0.4052 -0.2488 -2.9405
   20CHL1   C21 1458   1.386   5.705   5.090 -0.6621 -0.3430  0.4350
   20CHL1  H21A 1459   1.385   5.675   4.983 -0.2061  0.5835  0.1556
   20CHL1  H21B 1460   1.455   5.641   5.149  1.7379 -0.0079 -1.8142
   20CHL1  H21C 1461   1.426   5.809   5.087 -1.4920  0.0812  2.3356
   20CHL1   C22 1462   1.156   5.778   5.021 -0.1244 -0.0315 -0.5923
   20CHL1  H22A 1463   1.090   5.853   5.070 -0.2039 -1.4780  1.6694
   20CHL1  H22B 1464   1.224   5.829   4.950  0.4110  0.2919  0.1365
   20CHL1   C23 1465   1.084   5.668   4.959  0.1443  0.5090  0.2353
   20CHL1  H23A 1466   1.152   5.585   4.931 -0.5928  0.1392 -0.4954
   20CHL1  H23B 1467   1.016   5.627   5.037 -0.4559  1.3067  0.1424
   20CHL1   C24 1468   0.997   5.706   4.837 -0.2363  0.5250 -0.1974
   20CHL1  H24A 1469   1.069   5.736   4.758 -2.5222 -0.4919 -2.8567
   20CHL1  H24B 1470   0.950   5.612   4.802 -0.9072  0.2395  1.3615
   20CHL1   C25 1471   0.896   5.808   4.859  0.4764 -0.4370 -0.1426
   20CHL1   H25 1472   0.948   5.898   4.900  1.0877 -0.6832 -0.3629
   20CHL1   C26 1473   0.840   5.840   4.724 -0.6032 -0.4744 -0.6197
   20CHL1  H26A 1474   0.923   5.868   4.655 -2.5531 -2.8428 -4.2659
   20CHL1  H26B 1475   0.793   5.748   4.681  0.1080 -1.6160  0.9434
   20CHL1  H26C 1476   0.762   5.918   4.729 -0.2214 -0.1052 -0.3730
   20CHL1   C27 1477   0.786   5.765   4.956 -0.2938 -0.0557 -0.4455
   20CHL1  H27A 1478   0.716   5.847   4.982  0.7567  0.8779 -0.4699
   20CHL1  H27B 1479   0.723   5.675   4.937 -1.3697 -0.1971  3.1321
   20CHL1  H27C 1480   0.834   5.746   5.054 -0.9627 -0.9511 -0.2747
   21CHL1    C3 1481   0.956   5.449   6.083  0.3391 -0.2274  0.1127
   21CHL1    H3 1482   0.971   5.340   6.091  1.2962 -0.0661  0.7491
   21CHL1    O3 1483   0.971   5.493   6.214 -0.6152 -0.3954 -0.0633
   21CHL1   H3' 1484   1.058   5.456   6.234 -1.1507 -1.4849  0.3095
   21CHL1    C4 1485   1.064   5.511   5.991 -0.4150  0.4702 -0.4479
   21CHL1   H4A 1486   1.060   5.622   5.999 -1.5598  0.3514  1.0095
   21CHL1   H4B 1487   1.167   5.487   6.026 -0.1203  3.1396  0.8051
   21CHL1    C5 1488   1.037   5.455   5.856  0.3968 -0.0769  0.2369
   21CHL1    C6 1489   1.131   5.388   5.786  0.0995  0.4316 -0.5140
   21CHL1    H6 1490   1.231   5.376   5.829 -0.3200 -1.1070  0.1025
   21CHL1    C7 1491   1.109   5.330   5.648  0.2312  0.0072  0.8350
   21CHL1   H7A 1492   1.201   5.327   5.586  0.5553  0.9909  1.2569
   21CHL1   H7B 1493   1.081   5.224   5.670 -0.6509  0.4047  1.7440
   21CHL1    C8 1494   0.989   5.398   5.571  0.6551  0.2670 -0.6218
   21CHL1    H8 1495   1.025   5.496   5.532  1.2219  0.2329 -0.1920
   21CHL1   C14 1496   0.944   5.307   5.458 -0.8521  0.0189 -0.0547
   21CHL1   H14 1497   0.912   5.214   5.509 -0.6848 -0.3182 -0.5581
   21CHL1   C15 1498   1.051   5.255   5.356 -0.2011  0.5820  0.1649
   21CHL1  H15A 1499   1.113   5.339   5.318 -1.9922  1.0856 -1.9107
   21CHL1  H15B 1500   1.114   5.182   5.411  0.9825  1.3448 -0.1413
   21CHL1   C16 1501   0.981   5.203   5.234 -0.3201 -0.2058  0.5639
   21CHL1  H16A 1502   1.015   5.252   5.141  1.6037  1.1274  1.9097
   21CHL1  H16B 1503   1.002   5.096   5.214 -0.2980  0.1278 -1.4360
   21CHL1   C17 1504   0.829   5.247   5.262  0.1617  0.1410  0.4098
   21CHL1   H17 1505   0.780   5.160   5.311 -2.8670  2.0893  1.1249
   21CHL1   C13 1506   0.832   5.356   5.369 -0.0860 -0.3052  0.2359
   21CHL1   C18 1507   0.871   5.483   5.301 -0.2537  0.2941 -0.5949
   21CHL1  H18A 1508   0.949   5.474   5.223 -0.7653  2.2295 -1.3975
   21CHL1  H18B 1509   0.784   5.527   5.247 -1.7374 -1.6770  0.0444
   21CHL1  H18C 1510   0.899   5.572   5.361  0.2005 -0.8292  0.9257
   21CHL1   C12 1511   0.709   5.372   5.462  0.3619 -0.2502  0.2921
   21CHL1  H12A 1512   0.624   5.424   5.413  0.2209  2.4375  3.0751
   21CHL1  H12B 1513   0.666   5.272   5.483 -3.1515  0.3614 -2.9942
   21CHL1   C11 1514   0.744   5.459   5.582 -0.4659 -0.3495  0.0245
   21CHL1  H11A 1515   0.749   5.567   5.555  0.7496 -0.3060  0.3457
   21CHL1  H11B 1516   0.654   5.443   5.645 -1.0313 -1.8912 -1.1388
   21CHL1    C9 1517   0.872   5.411   5.664  0.5131 -0.3106  0.4831
   21CHL1    H9 1518   0.842   5.307   5.688  1.0024 -0.7819 -0.8351
   21CHL1   C10 1519   0.896   5.484   5.799 -0.3894  0.3723  0.4652
   21CHL1   C19 1520   0.893   5.634   5.764  0.3700 -0.7190  0.3596
   21CHL1  H19A 1521   0.946   5.706   5.831  0.2421  2.2048 -2.4277
   21CHL1  H19B 1522   0.946   5.661   5.670 -0.7718  2.8277  0.5902
   21CHL1  H19C 1523   0.789   5.668   5.746  1.0732  1.1739 -0.4609
   21CHL1    C1 1524   0.785   5.455   5.896  0.2763  0.3592 -0.5283
   21CHL1   H1A 1525   0.697   5.500   5.846  0.1757 -1.6391 -2.2652
   21CHL1   H1B 1526   0.766   5.346   5.892 -1.0435  0.5970 -1.1475
   21CHL1    C2 1527   0.815   5.486   6.040  0.0975 -0.7423  0.2126
   21CHL1   H2A 1528   0.743   5.435   6.108  2.1812 -0.2326  3.0023
   21CHL1   H2B 1529   0.795   5.594   6.056 -2.3695 -0.7906 -1.9932
   21CHL1   C20 1530   0.744   5.271   5.130 -0.5376 -0.1286 -0.6157
   21CHL1   H20 1531   0.787   5.351   5.066 -1.3722  1.5896  0.8712
   21CHL1   C21 1532   0.603   5.333   5.166  1.6374 -0.4780  0.1923
   21CHL1  H21A 1533   0.556   5.269   5.244 -2.6114  1.6507 -0.3131
   21CHL1  H21B 1534   0.529   5.336   5.083 -0.1338  0.3007  1.7168
   21CHL1  H21C 1535   0.613   5.435   5.208  0.9475  0.5156 -1.8931
   21CHL1   C22 1536   0.732   5.138   5.053  0.1006 -0.2791 -0.8282
   21CHL1  H22A 1537   0.834   5.103   5.025  0.7217 -0.1980  1.1443
   21CHL1  H22B 1538   0.698   5.055   5.118  1.1400 -1.7021 -2.0306
   21CHL1   C23 1539   0.647   5.143   4.924  0.1290 -0.1553 -0.4052
   21CHL1  H23A 1540   0.544   5.184   4.936  0.2887 -0.3765  2.2566
   21CHL1  H23B 1541   0.706   5.210   4.859 -0.4662 -0.9345 -1.8090
   21CHL1   C24 1542   0.628   5.002   4.864  0.4827 -0.0240  0.6674
   21CHL1  H24A 1543   0.729   4.956   4.861 -0.2963 -1.8452  0.6526
   21CHL1  H24B 1544   0.562   4.948   4.936 -1.1792 -0.0119 -0.7800
   21CHL1   C25 1545   0.565   5.001   4.725 -0.1874  0.0085  0.2044
   21CHL1   H25 1546   0.621   5.068   4.655  0.7693 -0.5164  0.4429
   21CHL1   C26 1547   0.576   4.860   4.661  1.0231  0.6488  0.0485
   21CHL1  H26A 1548   0.534   4.773   4.716  1.8216 -2.4998 -3.8678
   21CHL1  H26B 1549   0.509   4.858   4.573  0.6322  1.4964  0.3204
   21CHL1  H26C 1550   0.675   4.821   4.628  2.2750  2.2808  1.6636
   21CHL1   C27 1551   0.415   5.050   4.733  0.0859 -0.2684  0.3194
   21CHL1  H27A 1552   0.381   5.005   4.829  2.8449  2.3812  2.7444
   21CHL1  H27B 1553   0.424   5.161   4.736  0.3465 -0.2874  0.1991
   21CHL1  H27C 1554   0.352   5.015   4.649 -0.0327  0.4116  0.1200
   22CHL1    C3 1555   1.562   2.296   6.504 -0.0689  0.7152 -0.3040
   22CHL1    H3 1556   1.528   2.401   6.518 -1.9648  0.2180 -0.8235
   22CHL1    O3 1557   1.525   2.224   6.624 -0.0798  0.5378 -0.5155
   22CHL1   H3' 1558   1.547   2.131   6.611  1.3624  0.9966 -1.7029
   22CHL1    C4 1559   1.488   2.235   6.387  0.3553  0.0726 -0.6608
   22CHL1   H4A 1560   1.501   2.126   6.400  1.3556  0.2700  0.1055
   22CHL1   H4B 1561   1.379   2.245   6.406 -0.0751 -2.0893 -1.6635
   22CHL1    C5 1562   1.526   2.285   6.255 -0.4661  0.3864 -0.0473
   22CHL1    C6 1563   1.435   2.333   6.167  0.0432 -0.0254 -0.3057
   22CHL1    H6 1564   1.331   2.348   6.199 -0.4764 -1.6869 -1.1078
   22CHL1    C7 1565   1.465   2.374   6.029  0.5022  0.1510 -0.6389
   22CHL1   H7A 1566   1.390   2.336   5.956 -2.0209  1.2069  1.2545
   22CHL1   H7B 1567   1.454   2.485   6.022 -0.0206  0.1888  0.5438
   22CHL1    C8 1568   1.609   2.332   5.984  0.4765  0.3020  0.1468
   22CHL1    H8 1569   1.612   2.223   5.960  4.0394  0.3541 -0.3182
   22CHL1   C14 1570   1.653   2.403   5.857 -0.1143  0.5821  0.1175
   22CHL1   H14 1571   1.650   2.510   5.887  0.8535  0.2150  1.6293
   22CHL1   C15 1572   1.555   2.396   5.739  0.1935 -0.4806 -0.2147
   22CHL1  H15A 1573   1.523   2.291   5.722  1.0663 -0.4613 -2.2134
   22CHL1  H15B 1574   1.467   2.461   5.758  1.5700  1.0760  1.2744
   22CHL1   C16 1575   1.642   2.419   5.617  0.4462 -0.2330 -0.1688
   22CHL1  H16A 1576   1.655   2.338   5.543  2.1075  1.1808 -1.5275
   22CHL1  H16B 1577   1.623   2.517   5.567 -0.2070 -0.3818 -0.2190
   22CHL1   C17 1578   1.791   2.436   5.673 -0.0560 -0.2702  0.4753
   22CHL1   H17 1579   1.803   2.545   5.689 -0.1100 -0.0858 -0.6305
   22CHL1   C13 1580   1.791   2.364   5.807 -0.3469 -0.5796  0.0350
   22CHL1   C18 1581   1.810   2.214   5.783 -0.7624  0.9267  0.2728
   22CHL1  H18A 1582   1.751   2.181   5.694  0.9129 -2.2909  0.2236
   22CHL1  H18B 1583   1.917   2.196   5.759 -0.3419  2.7818  0.6029
   22CHL1  H18C 1584   1.791   2.154   5.875 -3.5711  0.9387 -0.2048
   22CHL1   C12 1585   1.895   2.419   5.918  0.8732 -0.2122 -1.2503
   22CHL1  H12A 1586   2.000   2.395   5.891  1.2760  1.4878 -1.2844
   22CHL1  H12B 1587   1.879   2.529   5.923  1.4318 -0.1678 -0.0224
   22CHL1   C11 1588   1.860   2.358   6.059  0.1960 -0.3818 -0.2208
   22CHL1  H11A 1589   1.895   2.253   6.066 -0.0314 -0.5347 -1.2567
   22CHL1  H11B 1590   1.919   2.406   6.140 -1.1100  1.6379 -0.4102
   22CHL1    C9 1591   1.713   2.349   6.094 -0.0528 -0.2553 -0.6104
   22CHL1    H9 1592   1.692   2.455   6.120 -1.9467 -0.5765 -0.7112
   22CHL1   C10 1593   1.681   2.271   6.225  0.3593 -0.2335  0.4485
   22CHL1   C19 1594   1.707   2.120   6.215 -0.3636  0.0662 -0.3927
   22CHL1  H19A 1595   1.816   2.111   6.197 -0.1293  0.7829  0.5546
   22CHL1  H19B 1596   1.675   2.066   6.307 -2.1259  1.3560 -0.2039
   22CHL1  H19C 1597   1.659   2.074   6.127 -0.1784 -0.0945 -0.4102
   22CHL1    C1 1598   1.757   2.338   6.341 -0.4313 -0.1827  0.3170
   22CHL1   H1A 1599   1.864   2.310   6.331 -0.4408  0.4896 -2.9844
   22CHL1   H1B 1600   1.746   2.448   6.352 -3.5321 -0.4336  0.5662
   22CHL1    C2 1601   1.714   2.293   6.487 -0.2461  0.4616  0.5921
   22CHL1   H2A 1602   1.774   2.337   6.570  2.3700  0.6249 -1.2534
   22CHL1   H2B 1603   1.750   2.188   6.498  2.0468  1.2443  0.9985
   22CHL1   C20 1604   1.899   2.397   5.561 -0.0650 -0.7489 -0.2141
   22CHL1   H20 1605   1.896   2.289   5.536  0.4703 -1.3299  2.0225
   22CHL1   C21 1606   2.041   2.419   5.623 -0.5459 -0.6248  0.4231
   22CHL1  H21A 1607   2.028   2.509   5.686 -0.3516 -1.2563  1.3821
   22CHL1  H21B 1608   2.119   2.432   5.544 -2.0222  1.7763 -0.7305
   22CHL1  H21C 1609   2.049   2.336   5.696  0.0124  0.0011  1.0818
   22CHL1   C22 1610   1.883   2.469   5.424  0.2322 -0.1767 -0.4581
   22CHL1  H22A 1611   1.778   2.463   5.390 -0.1945  0.1674  0.7520
   22CHL1  H22B 1612   1.893   2.577   5.448  3.4958 -0.7349  1.2743
   22CHL1   C23 1613   1.981   2.418   5.310  0.0534  0.0444  0.0684
   22CHL1  H23A 1614   2.070   2.484   5.313  0.2623 -0.2593  2.2521
   22CHL1  H23B 1615   2.019   2.315   5.325  1.0030  0.4863  0.7649
   22CHL1   C24 1616   1.920   2.428   5.174  0.1105 -0.4563 -0.0048
   22CHL1  H24A 1617   1.870   2.331   5.150  2.6617 -2.3261  1.6785
   22CHL1  H24B 1618   1.842   2.507   5.179 -0.3792 -0.9937  1.1767
   22CHL1   C25 1619   2.023   2.444   5.055 -1.0918  0.2595  0.4196
   22CHL1   H25 1620   2.080   2.536   5.081 -0.4395  0.2790 -0.9802
   22CHL1   C26 1621   2.109   2.312   5.055 -0.0057  0.2936  0.4710
   22CHL1  H26A 1622   2.179   2.297   5.140  0.9914  0.3036 -0.3256
   22CHL1  H26B 1623   2.047   2.220   5.055  1.9828 -1.1381 -0.6644
   22CHL1  H26C 1624   2.163   2.324   4.958  1.5425  1.0267  1.3815
   22CHL1   C27 1625   1.945   2.458   4.920 -0.0129 -0.5901  0.2213
   22CHL1  H27A 1626   2.013   2.504   4.845 -2.5724 -1.5257 -2.8614
   22CHL1  H27B 1627   1.907   2.359   4.888  0.1533 -0.0719 -1.7109
   22CHL1  H27C 1628   1.865   2.534   4.938  1.3095  0.4423  2.2072
   23CHL1    C3 1629   6.164   0.161   6.138 -1.0104  0.5206  0.2909
   23CHL1    H3 1630   6.067   0.110   6.151 -1.6151  2.0046  1.9759
   23CHL1    O3 1631   6.211   0.221   6.259  0.1435  0.3316  0.2192
   23CHL1   H3' 1632   6.301   0.240   6.234  0.1084 -1.4148 -1.5167
   23CHL1    C4 1633   6.263   0.057   6.087  0.1764  0.6195  0.2512
   23CHL1   H4A 1634   6.362   0.108   6.078  0.8897 -0.5700  0.9741
   23CHL1   H4B 1635   6.276  -0.024   6.162  1.4837 -1.4128 -2.0160
   23CHL1    C5 1636   6.215  -0.001   5.957 -0.0028  0.0248  0.3590
   23CHL1    C6 1637   6.177  -0.126   5.934  0.4265 -0.0724 -0.1657
   23CHL1    H6 1638   6.164  -0.196   6.018 -0.4042  0.1843 -0.0736
   23CHL1    C7 1639   6.131  -0.182   5.799  0.5627 -0.2669 -0.4446
   23CHL1   H7A 1640   6.185  -0.276   5.775  2.7525  1.0644 -1.0128
   23CHL1   H7B 1641   6.021  -0.194   5.811  0.1121  0.2488 -3.2891
   23CHL1    C8 1642   6.158  -0.080   5.684  0.4058 -0.1338  0.0836
   23CHL1    H8 1643   6.267  -0.073   5.659  0.0244  3.4316 -1.1610
   23CHL1   C14 1644   6.085  -0.125   5.564  0.1421  0.1059  0.1080
   23CHL1   H14 1645   5.978  -0.123   5.595 -0.4737 -0.2232 -1.8419
   23CHL1   C15 1646   6.104  -0.275   5.513 -0.5305  0.2327  0.1704
   23CHL1  H15A 1647   6.213  -0.294   5.503 -0.7830 -0.8954 -0.6658
   23CHL1  H15B 1648   6.066  -0.352   5.583  0.4926  1.3255  1.9972
   23CHL1   C16 1649   6.043  -0.277   5.372  0.1863  0.7912 -0.2783
   23CHL1  H16A 1650   6.109  -0.333   5.303 -0.4908 -0.8291  0.3475
   23CHL1  H16B 1651   5.948  -0.332   5.386 -0.0937  0.7039 -2.3154
   23CHL1   C17 1652   6.017  -0.133   5.337 -0.9341 -0.6788  0.1101
   23CHL1   H17 1653   5.909  -0.108   5.351 -0.9535  0.4271 -1.6855
   23CHL1   C13 1654   6.099  -0.041   5.435 -0.0961 -0.3724  0.4730
   23CHL1   C18 1655   6.244  -0.046   5.383 -0.2715 -0.4526 -0.3865
   23CHL1  H18A 1656   6.290  -0.142   5.354 -0.6454 -0.5342 -0.7155
   23CHL1  H18B 1657   6.249   0.004   5.284  2.1279  1.4661  0.5931
   23CHL1  H18C 1658   6.303   0.008   5.461 -1.1089  1.3612 -0.9375
   23CHL1   C12 1659   6.056   0.102   5.458  1.5899  0.2195 -0.3647
   23CHL1  H12A 1660   6.090   0.180   5.388  2.0042  0.1530 -0.2364
   23CHL1  H12B 1661   5.946   0.107   5.474  1.7954  0.8642  0.9324
   23CHL1   C11 1662   6.117   0.160   5.589  0.2089  0.5707  0.6198
   23CHL1  H11A 1663   6.224   0.180   5.568 -0.1781  1.5630 -0.5042
   23CHL1  H11B 1664   6.058   0.246   5.628 -2.3026 -0.8580  0.1452
   23CHL1    C9 1665   6.119   0.062   5.718  0.3372 -0.1954  0.5340
   23CHL1    H9 1666   6.010   0.054   5.737 -0.6624  0.6698 -3.8199
   23CHL1   C10 1667   6.196   0.111   5.845 -0.0442  0.4418 -0.0994
   23CHL1   C19 1668   6.345   0.146   5.802 -0.0097 -0.6198 -0.1561
   23CHL1  H19A 1669   6.400   0.183   5.891 -1.1528  1.6699 -0.3136
   23CHL1  H19B 1670   6.395   0.061   5.751  1.7977 -0.5949  1.4699
   23CHL1  H19C 1671   6.337   0.223   5.723 -3.6408 -0.3615  0.2601
   23CHL1    C1 1672   6.114   0.235   5.897  0.2925  0.4356 -0.2873
   23CHL1   H1A 1673   6.120   0.320   5.825 -0.6342  2.2894  1.7241
   23CHL1   H1B 1674   6.005   0.217   5.902 -0.0486  1.6160 -2.3001
   23CHL1    C2 1675   6.153   0.276   6.036  0.2417 -0.6238 -0.2433
   23CHL1   H2A 1676   6.072   0.341   6.074 -0.5579 -1.5811 -0.2755
   23CHL1   H2B 1677   6.246   0.336   6.029 -1.9283  2.8587 -1.8991
   23CHL1   C20 1678   6.032  -0.123   5.188 -0.5311  0.3256 -0.1367
   23CHL1   H20 1679   6.139  -0.136   5.159  0.2305 -0.8274  2.7595
   23CHL1   C21 1680   5.987   0.023   5.143  0.0402  1.4410 -0.7128
   23CHL1  H21A 1681   6.064   0.090   5.187  0.7548 -0.1535  0.5657
   23CHL1  H21B 1682   5.884   0.044   5.177 -1.2449 -1.1051 -2.6701
   23CHL1  H21C 1683   5.997   0.036   5.033  1.4806 -1.3101 -0.9872
   23CHL1   C22 1684   5.959  -0.228   5.102  0.0589 -0.5629  0.0993
   23CHL1  H22A 1685   5.931  -0.317   5.163  0.3847 -0.4833  0.3640
   23CHL1  H22B 1686   5.862  -0.188   5.067  0.5929  0.4931 -0.2021
   23CHL1   C23 1687   6.039  -0.286   4.987 -0.6040  0.1805  0.6249
   23CHL1  H23A 1688   6.059  -0.202   4.917 -1.5743  1.0871  1.3792
   23CHL1  H23B 1689   6.125  -0.344   5.025  0.1721  0.7020 -0.3041
   23CHL1   C24 1690   5.959  -0.385   4.914  0.0426 -1.5093  0.0961
   23CHL1  H24A 1691   5.937  -0.475   4.975 -1.4221 -0.7660  0.7166
   23CHL1  H24B 1692   5.859  -0.343   4.889  0.3435 -1.8605 -1.8972
   23CHL1   C25 1693   6.006  -0.439   4.778 -0.1137 -0.4711 -0.8043
   23CHL1   H25 1694   6.113  -0.458   4.799 -0.2272 -0.0548  0.2160
   23CHL1   C26 1695   5.935  -0.570   4.749  0.1144  0.7970 -0.1924
   23CHL1  H26A 1696   5.828  -0.546   4.736 -0.4588 -0.1005  2.3064
   23CHL1  H26B 1697   5.973  -0.613   4.654  0.6775  0.3758  0.2168
   23CHL1  H26C 1698   5.954  -0.656   4.817 -0.3922  0.9833  0.1869
   23CHL1   C27 1699   5.991  -0.334   4.670 -0.3385 -0.3478  0.5055
   23CHL1  H27A 1700   6.048  -0.357   4.578  0.1328 -1.7323  1.1087
   23CHL1  H27B 1701   5.885  -0.328   4.638 -0.1729  0.6718  0.1341
   23CHL1  H27C 1702   6.005  -0.234   4.717 -3.0474 -0.7630  2.4843
   24CHL1    C3 1703   4.097   1.525   5.990 -0.4471 -0.0518 -0.2959
   24CHL1    H3 1704   4.027   1.606   5.962  0.1515  0.9506  0.9947
   24CHL1    O3 1705   4.105   1.518   6.131  0.2036 -0.2203 -0.3187
   24CHL1   H3' 1706   4.074   1.429   6.144  0.8390 -0.8064 -2.4162
   24CHL1    C4 1707   4.051   1.398   5.924  0.7451 -0.0428  0.8770
   24CHL1   H4A 1708   4.130   1.325   5.952  1.3361  0.3342  0.2101
   24CHL1   H4B 1709   3.959   1.362   5.976  0.2468 -2.3803 -1.4156
   24CHL1    C5 1710   4.018   1.406   5.778 -0.9332 -1.2692 -0.0105
   24CHL1    C6 1711   3.893   1.387   5.731 -0.1009 -0.5546 -0.0066
   24CHL1    H6 1712   3.813   1.365   5.803 -1.0252 -0.6711 -1.0359
   24CHL1    C7 1713   3.856   1.411   5.584 -0.0199  0.0829  0.2934
   24CHL1   H7A 1714   3.794   1.322   5.558 -2.0084  1.4833  0.0345
   24CHL1   H7B 1715   3.800   1.506   5.573 -0.4314 -0.0002  1.4449
   24CHL1    C8 1716   3.973   1.406   5.486 -0.6731  0.1899 -0.6301
   24CHL1    H8 1717   3.995   1.297   5.487  0.1353  0.3464 -0.7656
   24CHL1   C14 1718   3.948   1.446   5.347  0.4376 -0.2540 -0.4280
   24CHL1   H14 1719   3.918   1.553   5.357  0.8718 -0.1561 -0.1704
   24CHL1   C15 1720   3.836   1.372   5.275  0.1481 -0.1030  0.3683
   24CHL1  H15A 1721   3.859   1.265   5.297 -0.4567  0.0044  1.6026
   24CHL1  H15B 1722   3.729   1.388   5.300 -0.0801  0.6084 -0.9754
   24CHL1   C16 1723   3.864   1.400   5.124 -0.5655 -0.0792  0.4273
   24CHL1  H16A 1724   3.843   1.318   5.052  0.9699  2.0263 -2.6314
   24CHL1  H16B 1725   3.789   1.474   5.088 -1.3833 -0.7813  0.6440
   24CHL1   C17 1726   4.007   1.462   5.118 -0.2933  0.2880  0.9511
   24CHL1   H17 1727   3.988   1.571   5.127 -1.4464  0.1159  0.7729
   24CHL1   C13 1728   4.075   1.436   5.252  0.0774  0.4220 -0.1770
   24CHL1   C18 1729   4.124   1.290   5.247  0.2935 -0.1515  0.8385
   24CHL1  H18A 1730   4.212   1.291   5.179 -0.4035  0.2734 -0.0886
   24CHL1  H18B 1731   4.135   1.266   5.355 -3.4090  1.4335  1.7294
   24CHL1  H18C 1732   4.043   1.227   5.205  1.6063 -0.9696 -0.5524
   24CHL1   C12 1733   4.180   1.530   5.310 -0.0674 -0.3966  0.5050
   24CHL1  H12A 1734   4.271   1.545   5.247 -1.0925  0.4970 -0.8421
   24CHL1  H12B 1735   4.133   1.631   5.313 -0.8001 -0.7073 -0.1974
   24CHL1   C11 1736   4.219   1.497   5.450  0.7243  0.2650  0.3343
   24CHL1  H11A 1737   4.278   1.404   5.440  0.7014  0.1885  0.9031
   24CHL1  H11B 1738   4.285   1.580   5.487  0.1985  1.3578 -1.0812
   24CHL1    C9 1739   4.096   1.481   5.545 -0.2221  0.5814  0.2008
   24CHL1    H9 1740   4.058   1.585   5.535  0.1612  0.5517 -1.8834
   24CHL1   C10 1741   4.138   1.449   5.684  0.1632 -0.4956  0.5525
   24CHL1   C19 1742   4.235   1.326   5.691  0.3872  0.1271  0.3718
   24CHL1  H19A 1743   4.335   1.332   5.642  0.5456 -1.9726  0.3756
   24CHL1  H19B 1744   4.264   1.303   5.796  0.3214  1.7661  0.7802
   24CHL1  H19C 1745   4.181   1.238   5.651 -4.5899  1.8890  2.3497
   24CHL1    C1 1746   4.196   1.574   5.756  0.0661  0.0679  0.5247
   24CHL1   H1A 1747   4.292   1.597   5.705 -0.8914 -0.8555 -1.8485
   24CHL1   H1B 1748   4.131   1.660   5.728  0.5153  0.2090 -0.1144
   24CHL1    C2 1749   4.223   1.566   5.915  0.3412  0.3809  0.2966
   24CHL1   H2A 1750   4.273   1.658   5.950  1.5714 -0.7212  1.5956
   24CHL1   H2B 1751   4.295   1.485   5.939 -0.5229 -0.9236 -1.2919
   24CHL1   C20 1752   4.089   1.444   4.984  0.0019  0.3211  0.0514
   24CHL1   H20 1753   4.161   1.360   4.991  0.1478  0.3252 -1.1592
   24CHL1   C21 1754   4.181   1.566   4.970 -1.0540 -0.5318  0.1676
   24CHL1  H21A 1755   4.126   1.661   4.953  0.3428  0.3006  0.1727
   24CHL1  H21B 1756   4.245   1.538   4.884 -0.8350 -0.8100  0.4186
   24CHL1  H21C 1757   4.249   1.577   5.057 -1.4016 -0.5448  0.4474
   24CHL1   C22 1758   4.001   1.431   4.853  0.5464  0.1506  0.2985
   24CHL1  H22A 1759   4.057   1.388   4.766  0.1911  1.5414 -0.6537
   24CHL1  H22B 1760   3.922   1.353   4.857  1.7179 -1.1143 -0.0906
   24CHL1   C23 1761   3.925   1.559   4.813  0.4862  0.3495 -0.8505
   24CHL1  H23A 1762   3.877   1.599   4.905  1.1866 -1.6411  0.4256
   24CHL1  H23B 1763   4.007   1.629   4.786  0.8803  0.2388  0.0398
   24CHL1   C24 1764   3.811   1.550   4.714 -0.4580 -0.6028  0.7665
   24CHL1  H24A 1765   3.850   1.530   4.612  0.7476  3.7238  0.2042
   24CHL1  H24B 1766   3.749   1.466   4.753 -0.5016  0.2034  2.5311
   24CHL1   C25 1767   3.706   1.665   4.710  0.1910 -0.1996  0.4111
   24CHL1   H25 1768   3.652   1.656   4.806 -0.8193 -0.0624 -0.1346
   24CHL1   C26 1769   3.775   1.797   4.692 -0.7457 -0.6580  0.1080
   24CHL1  H26A 1770   3.856   1.814   4.766  0.1855  1.1343 -1.2568
   24CHL1  H26B 1771   3.836   1.813   4.600  2.5694 -0.3701  2.1774
   24CHL1  H26C 1772   3.703   1.880   4.712  2.3251  2.1593  0.3408
   24CHL1   C27 1773   3.599   1.638   4.603  0.1325 -0.3949  0.1694
   24CHL1  H27A 1774   3.647   1.594   4.514  0.6453 -0.4905  0.4879
   24CHL1  H27B 1775   3.520   1.569   4.638  1.5717 -1.0988  2.2184
   24CHL1  H27C 1776   3.545   1.730   4.571 -0.0560 -0.4434  0.3446
   25CHL1    C3 1777   5.273   5.499   5.963  0.3900 -0.6770 -0.1138
   25CHL1    H3 1778   5.220   5.410   5.922  0.5084 -1.9059  2.1948
   25CHL1    O3 1779   5.292   5.474   6.097  0.5172  0.3302  0.1591
   25CHL1   H3' 1780   5.347   5.548   6.123  1.3851  1.0407 -3.2377
   25CHL1    C4 1781   5.401   5.507   5.891 -0.0869  0.6231  0.2117
   25CHL1   H4A 1782   5.467   5.582   5.939 -0.8421  0.0543  2.2495
   25CHL1   H4B 1783   5.450   5.408   5.902  0.5519  0.8328 -0.5734
   25CHL1    C5 1784   5.368   5.528   5.745 -0.4172 -0.0806 -0.1967
   25CHL1    C6 1785   5.407   5.435   5.657  0.0873 -0.7064  0.9714
   25CHL1    H6 1786   5.480   5.357   5.685  1.7949 -0.0020 -1.2635
   25CHL1    C7 1787   5.377   5.448   5.510 -0.2767 -0.1135 -0.6156
   25CHL1   H7A 1788   5.466   5.406   5.459  0.3290  0.1289  0.2370
   25CHL1   H7B 1789   5.293   5.379   5.484  0.2675 -0.4424 -1.5545
   25CHL1    C8 1790   5.341   5.593   5.468 -0.5367  0.1906 -0.4371
   25CHL1    H8 1791   5.428   5.660   5.481 -1.4745  1.6353 -1.3223
   25CHL1   C14 1792   5.300   5.596   5.323  0.3649  0.4626  0.4405
   25CHL1   H14 1793   5.209   5.534   5.305  0.7292  0.4617 -1.6952
   25CHL1   C15 1794   5.397   5.538   5.224  0.0510  0.4498  0.1764
   25CHL1  H15A 1795   5.501   5.568   5.247 -0.0525 -0.3227  1.8212
   25CHL1  H15B 1796   5.395   5.427   5.236 -1.6057  0.5092  0.7571
   25CHL1   C16 1797   5.349   5.589   5.089 -0.0660  0.3390 -0.2936
   25CHL1  H16A 1798   5.434   5.626   5.028 -1.2713  1.9330 -1.0993
   25CHL1  H16B 1799   5.317   5.502   5.027  2.9638 -0.9616 -0.2094
   25CHL1   C17 1800   5.241   5.692   5.125 -0.4972  0.1658 -0.0799
   25CHL1   H17 1801   5.143   5.639   5.127 -1.2540  1.5463  0.4737
   25CHL1   C13 1802   5.260   5.735   5.264 -0.4645 -0.6304  0.0838
   25CHL1   C18 1803   5.385   5.835   5.265  0.3176 -0.0104 -0.1268
   25CHL1  H18A 1804   5.425   5.857   5.366 -2.1972 -0.2368  1.0119
   25CHL1  H18B 1805   5.473   5.807   5.203  1.2901  1.7136  0.4217
   25CHL1  H18C 1806   5.351   5.934   5.228 -1.6538 -0.1071  1.2409
   25CHL1   C12 1807   5.141   5.779   5.351  0.5851  0.5116  0.3795
   25CHL1  H12A 1808   5.126   5.885   5.319  1.4317  0.7049  0.5913
   25CHL1  H12B 1809   5.054   5.713   5.332 -0.5192  1.6639  1.2318
   25CHL1   C11 1810   5.186   5.784   5.496  0.0895 -0.5792 -0.6056
   25CHL1  H11A 1811   5.255   5.870   5.509  1.1874 -1.5586  0.4215
   25CHL1  H11B 1812   5.098   5.811   5.558  1.4336  1.0163  0.7075
   25CHL1    C9 1813   5.232   5.647   5.560 -0.0108 -0.2278  0.1475
   25CHL1    H9 1814   5.152   5.572   5.572  0.6679 -0.8463  0.9229
   25CHL1   C10 1815   5.283   5.655   5.710 -0.5453 -0.2630 -0.0953
   25CHL1   C19 1816   5.376   5.781   5.722  0.5712  0.1232  0.1690
   25CHL1  H19A 1817   5.462   5.780   5.652  1.9401  3.3571  1.6015
   25CHL1  H19B 1818   5.323   5.877   5.701 -0.4743 -0.5472 -0.3493
   25CHL1  H19C 1819   5.425   5.779   5.821 -0.3209 -4.1365  0.7203
   25CHL1    C1 1820   5.164   5.666   5.797  0.4773 -0.6537  0.2312
   25CHL1   H1A 1821   5.115   5.766   5.796 -2.3011 -1.9073  0.9413
   25CHL1   H1B 1822   5.086   5.589   5.777 -1.1268  0.4908  1.7534
   25CHL1    C2 1823   5.198   5.634   5.945  0.0660 -0.3708 -0.4822
   25CHL1   H2A 1824   5.108   5.621   6.010 -0.5530 -1.1644 -1.4747
   25CHL1   H2B 1825   5.254   5.722   5.983  0.1713 -1.1030  1.1443
   25CHL1   C20 1826   5.218   5.797   5.022 -0.4252  0.2613  0.2006
   25CHL1   H20 1827   5.288   5.881   5.042 -0.6021  0.2494  0.8950
   25CHL1   C21 1828   5.074   5.855   5.041  0.1868 -0.2899  0.4368
   25CHL1  H21A 1829   5.067   5.930   4.960 -0.7090 -0.0948  0.6839
   25CHL1  H21B 1830   5.076   5.910   5.138 -1.5056  2.0552 -0.7621
   25CHL1  H21C 1831   4.994   5.779   5.037 -1.8994  1.8245 -0.0208
   25CHL1   C22 1832   5.236   5.749   4.876  0.4576  0.0550  0.0091
   25CHL1  H22A 1833   5.340   5.714   4.859  0.4463  0.2067 -0.3889
   25CHL1  H22B 1834   5.166   5.665   4.857  0.0207  0.3097  0.4800
   25CHL1   C23 1835   5.215   5.855   4.769 -0.3684 -0.4692 -0.0856
   25CHL1  H23A 1836   5.110   5.892   4.777 -0.3195 -0.1408 -0.9220
   25CHL1  H23B 1837   5.278   5.938   4.808  0.5005 -2.2204  2.4696
   25CHL1   C24 1838   5.240   5.805   4.630  0.1452 -0.0027  0.5203
   25CHL1  H24A 1839   5.344   5.766   4.634 -0.3471 -1.2579  3.1222
   25CHL1  H24B 1840   5.174   5.721   4.602 -1.7870  2.4050 -2.8900
   25CHL1   C25 1841   5.226   5.915   4.521 -0.1839 -0.2310  0.1029
   25CHL1   H25 1842   5.264   6.006   4.572  0.5905 -1.1513  1.1943
   25CHL1   C26 1843   5.307   5.878   4.389  0.2616  0.2420  0.4593
   25CHL1  H26A 1844   5.303   5.962   4.317 -3.7293  3.2492  3.7064
   25CHL1  H26B 1845   5.411   5.855   4.423  0.2470 -0.1880  0.2249
   25CHL1  H26C 1846   5.273   5.788   4.333  0.9750  1.5992 -2.3369
   25CHL1   C27 1847   5.083   5.934   4.495 -0.4161 -0.9827 -1.1494
   25CHL1  H27A 1848   5.071   6.025   4.432  2.1932  0.1283 -0.1996
   25CHL1  H27B 1849   5.030   5.847   4.450 -1.2513 -0.8313 -0.4927
   25CHL1  H27C 1850   5.023   5.959   4.585  0.3055 -1.7166 -0.4509
   26CHL1    C3 1851   0.852   3.199   6.328 -0.2662 -0.6435 -0.3494
   26CHL1    H3 1852   0.754   3.243   6.302  0.1113  0.2087 -0.3683
   26CHL1    O3 1853   0.884   3.237   6.462 -0.2700  0.2102 -0.2708
   26CHL1   H3' 1854   0.973   3.207   6.479  0.2533  1.7270 -0.1336
   26CHL1    C4 1855   0.850   3.050   6.326  0.3035  0.2026  0.1499
   26CHL1   H4A 1856   0.950   3.024   6.367  0.1843  1.4210  1.2972
   26CHL1   H4B 1857   0.773   3.012   6.396 -0.1678 -0.7254 -0.8481
   26CHL1    C5 1858   0.831   2.996   6.185  0.8785 -0.2140 -0.1307
   26CHL1    C6 1859   0.739   2.905   6.159  0.2110  0.3963 -0.3446
   26CHL1    H6 1860   0.685   2.856   6.242  0.3380  1.3326  0.3007
   26CHL1    C7 1861   0.715   2.842   6.022  0.0738 -0.7254 -0.7601
   26CHL1   H7A 1862   0.702   2.732   6.022  0.3228 -0.7568 -1.0506
   26CHL1   H7B 1863   0.615   2.873   5.984  0.1717  0.6968  0.0639
   26CHL1    C8 1864   0.816   2.876   5.917  0.0229 -0.1895  0.9307
   26CHL1    H8 1865   0.904   2.809   5.921  0.6625  0.2540 -2.2780
   26CHL1   C14 1866   0.758   2.860   5.775  0.1649  0.3180 -0.0680
   26CHL1   H14 1867   0.664   2.920   5.767 -0.3270 -0.5086 -0.5614
   26CHL1   C15 1868   0.707   2.727   5.726  0.3428 -0.0281  0.0919
   26CHL1  H15A 1869   0.784   2.651   5.750  1.5141  1.1853  0.2810
   26CHL1  H15B 1870   0.615   2.694   5.779  0.6596 -1.1473 -0.0193
   26CHL1   C16 1871   0.697   2.745   5.572  0.3310  0.2417  0.8216
   26CHL1  H16A 1872   0.749   2.654   5.537  0.7493 -0.3598  2.8790
   26CHL1  H16B 1873   0.592   2.752   5.535  0.2418  2.8132  1.3232
   26CHL1   C17 1874   0.760   2.882   5.533 -0.0928  0.5969 -0.1487
   26CHL1   H17 1875   0.681   2.960   5.536 -1.0169 -0.3514  0.9596
   26CHL1   C13 1876   0.852   2.905   5.657  0.2446 -0.2508  0.6692
   26CHL1   C18 1877   0.967   2.811   5.646 -0.4634 -0.0338 -0.5443
   26CHL1  H18A 1878   0.948   2.705   5.617  2.0290 -0.6548 -0.1170
   26CHL1  H18B 1879   1.030   2.850   5.563 -2.1873  0.3639 -1.7363
   26CHL1  H18C 1880   1.019   2.807   5.744  0.1727 -0.7454 -0.9047
   26CHL1   C12 1881   0.914   3.041   5.674 -0.2906 -0.1203  0.1911
   26CHL1  H12A 1882   0.994   3.070   5.602  0.5977  0.6698  1.4425
   26CHL1  H12B 1883   0.839   3.122   5.657  0.1624  0.1295 -0.6807
   26CHL1   C11 1884   0.968   3.059   5.819  0.5252 -0.5743  0.2553
   26CHL1  H11A 1885   1.066   3.007   5.827  1.4885  0.5881 -2.5987
   26CHL1  H11B 1886   0.994   3.167   5.829 -2.2782  0.6100 -3.2035
   26CHL1    C9 1887   0.863   3.023   5.936  0.0355 -0.2896 -0.1584
   26CHL1    H9 1888   0.770   3.084   5.930  0.8952  1.1266  0.3220
   26CHL1   C10 1889   0.916   3.062   6.076 -0.6353  0.3564 -0.0192
   26CHL1   C19 1890   1.055   3.007   6.097  0.6357  0.0597 -0.3025
   26CHL1  H19A 1891   1.092   3.006   6.202  0.4150 -1.1260 -0.2238
   26CHL1  H19B 1892   1.061   2.899   6.073  2.3049 -0.2766  1.3218
   26CHL1  H19C 1893   1.124   3.050   6.021 -1.1131 -0.0814 -2.0232
   26CHL1    C1 1894   0.926   3.215   6.088  0.4859  0.9857 -0.4389
   26CHL1   H1A 1895   1.002   3.262   6.022  0.5185  0.5000 -0.7536
   26CHL1   H1B 1896   0.831   3.262   6.055 -1.6588 -4.0429 -2.5392
   26CHL1    C2 1897   0.957   3.259   6.236 -0.5449  0.5262  0.2339
   26CHL1   H2A 1898   0.967   3.369   6.246  1.0425  0.3504  0.7542
   26CHL1   H2B 1899   1.056   3.222   6.268  0.1095  2.1353  0.1683
   26CHL1   C20 1900   0.824   2.894   5.390  0.3730 -0.0077 -0.5232
   26CHL1   H20 1901   0.917   2.833   5.389  0.2750 -0.1549 -0.6116
   26CHL1   C21 1902   0.853   3.039   5.349 -0.1077 -0.0915  0.5395
   26CHL1  H21A 1903   0.858   3.054   5.239  1.6415  2.0913  0.8486
   26CHL1  H21B 1904   0.959   3.054   5.380  0.3138 -0.9989 -0.4151
   26CHL1  H21C 1905   0.778   3.114   5.381  0.2444 -0.0120  1.2048
   26CHL1   C22 1906   0.730   2.833   5.288  0.3048 -0.6201 -0.8281
   26CHL1  H22A 1907   0.678   2.743   5.329  1.0013 -1.0457 -0.8726
   26CHL1  H22B 1908   0.655   2.910   5.262  1.1355  1.9616  3.4847
   26CHL1   C23 1909   0.789   2.782   5.157 -0.5077  0.9519 -0.5678
   26CHL1  H23A 1910   0.711   2.743   5.089 -1.0188  0.3169  0.3588
   26CHL1  H23B 1911   0.839   2.866   5.106  1.6722 -0.7942 -1.4700
   26CHL1   C24 1912   0.880   2.657   5.179 -0.3829  0.4537  0.7427
   26CHL1  H24A 1913   0.958   2.684   5.254  0.9235 -0.1313 -0.3569
   26CHL1  H24B 1914   0.822   2.585   5.242  1.5668 -1.2410  0.7045
   26CHL1   C25 1915   0.945   2.597   5.055 -0.0007  0.3853  0.1939
   26CHL1   H25 1916   1.020   2.668   5.014 -1.6672  1.2901 -1.4196
   26CHL1   C26 1917   1.027   2.475   5.093  0.2668  0.2146  0.2408
   26CHL1  H26A 1918   1.090   2.492   5.183  2.4118 -0.8161 -0.9904
   26CHL1  H26B 1919   0.955   2.396   5.123 -0.7182  0.5715 -1.0916
   26CHL1  H26C 1920   1.099   2.447   5.013 -0.6912  0.3939 -0.7061
   26CHL1   C27 1921   0.844   2.562   4.949  0.0205  0.4775  0.3594
   26CHL1  H27A 1922   0.787   2.647   4.904  1.0669  1.2111  0.3892
   26CHL1  H27B 1923   0.894   2.494   4.877 -1.1530  0.0290 -0.0608
   26CHL1  H27C 1924   0.771   2.494   4.998  1.1984 -0.2334  1.1640
   27CHL1    C3 1925   2.538   0.872   5.901 -0.7778  0.0887  1.1795
   27CHL1    H3 1926   2.622   0.942   5.884 -0.2703 -0.3939  1.6345
   27CHL1    O3 1927   2.505   0.886   6.035  0.6655 -0.2482 -0.2524
   27CHL1   H3' 1928   2.458   0.804   6.053  1.3572 -1.1790 -2.3002
   27CHL1    C4 1929   2.424   0.920   5.808  0.1571 -0.5891 -0.3071
   27CHL1   H4A 1930   2.339   0.850   5.820  0.8688 -1.1801  1.7826
   27CHL1   H4B 1931   2.395   1.022   5.840  2.2980  0.1865 -0.6962
   27CHL1    C5 1932   2.456   0.912   5.659 -0.0876 -0.1417  0.0178
   27CHL1    C6 1933   2.463   1.019   5.583 -0.2259  0.3062  0.4243
   27CHL1    H6 1934   2.443   1.115   5.633 -2.1246 -0.8165  1.9893
   27CHL1    C7 1935   2.495   1.024   5.435  0.4379  0.3120  0.1476
   27CHL1   H7A 1936   2.414   1.069   5.374  0.9416 -0.2948 -0.9964
   27CHL1   H7B 1937   2.593   1.074   5.422  0.1609  0.7769 -0.1974
   27CHL1    C8 1938   2.504   0.883   5.374  0.0358 -0.6306  0.0479
   27CHL1    H8 1939   2.396   0.856   5.366 -0.3536  0.4275  1.3118
   27CHL1   C14 1940   2.572   0.877   5.241 -0.2734 -0.4094  0.5012
   27CHL1   H14 1941   2.672   0.926   5.240  0.2814 -1.5152 -0.2332
   27CHL1   C15 1942   2.499   0.968   5.133  0.4426  0.1085  0.0673
   27CHL1  H15A 1943   2.390   0.968   5.151  0.0890 -0.5157 -1.8561
   27CHL1  H15B 1944   2.535   1.073   5.141 -2.1813  1.1053 -0.2450
   27CHL1   C16 1945   2.532   0.904   4.996 -0.0288 -0.4228 -0.0578
   27CHL1  H16A 1946   2.437   0.888   4.942 -0.1434 -0.3796  0.1297
   27CHL1  H16B 1947   2.587   0.976   4.932 -0.6875 -0.9287 -1.2332
   27CHL1   C17 1948   2.613   0.771   5.028 -0.7877  0.2423  0.2231
   27CHL1   H17 1949   2.720   0.801   5.023 -0.1797 -1.5992  1.2548
   27CHL1   C13 1950   2.573   0.741   5.170 -0.5271  0.5349 -0.6799
   27CHL1   C18 1951   2.425   0.691   5.169  0.3366  0.4791  0.1730
   27CHL1  H18A 1952   2.358   0.764   5.120  0.0443  1.5666  2.0726
   27CHL1  H18B 1953   2.418   0.595   5.115  0.3110  0.5434  0.0619
   27CHL1  H18C 1954   2.388   0.684   5.273 -0.0678  0.2293  0.0100
   27CHL1   C12 1955   2.669   0.647   5.255  0.3072  0.3379  0.2489
   27CHL1  H12A 1956   2.679   0.540   5.228 -2.1344  0.0626  0.1983
   27CHL1  H12B 1957   2.771   0.690   5.252  0.3840  0.2103  0.7901
   27CHL1   C11 1958   2.618   0.648   5.406  0.0739  1.0136  0.1914
   27CHL1  H11A 1959   2.544   0.565   5.406  1.4259 -0.2340  1.0276
   27CHL1  H11B 1960   2.702   0.607   5.465 -1.6247 -0.8417  1.4566
   27CHL1    C9 1961   2.580   0.787   5.467  0.2619  0.0288  0.1923
   27CHL1    H9 1962   2.681   0.828   5.486  1.7337 -3.1962  0.0818
   27CHL1   C10 1963   2.520   0.776   5.610  0.4301 -0.1727  0.4869
   27CHL1   C19 1964   2.412   0.668   5.608  0.6879 -0.2461  0.2756
   27CHL1  H19A 1965   2.323   0.697   5.548  1.4601  0.7771 -0.3898
   27CHL1  H19B 1966   2.457   0.569   5.584 -0.4529 -0.7799  0.2333
   27CHL1  H19C 1967   2.368   0.664   5.711 -1.1037 -0.0888 -0.4407
   27CHL1    C1 1968   2.625   0.730   5.711 -0.0751 -0.3358  0.7125
   27CHL1   H1A 1969   2.650   0.622   5.695  0.6627 -0.5265  2.7872
   27CHL1   H1B 1970   2.717   0.793   5.703 -0.4242  0.1632  0.6012
   27CHL1    C2 1971   2.580   0.729   5.863 -0.0152 -0.6533  0.4386
   27CHL1   H2A 1972   2.669   0.719   5.929  0.1288 -0.9296  0.2039
   27CHL1   H2B 1973   2.497   0.657   5.879 -2.6319  1.8819 -0.8506
   27CHL1   C20 1974   2.602   0.663   4.919  1.1008  0.2361 -0.0913
   27CHL1   H20 1975   2.494   0.639   4.909  1.2521  0.1144 -1.9206
   27CHL1   C21 1976   2.671   0.531   4.954 -0.8804 -0.4618  0.1763
   27CHL1  H21A 1977   2.672   0.456   4.873 -2.4505  0.5371 -0.8133
   27CHL1  H21B 1978   2.618   0.487   5.041  0.0202  2.5061  2.4179
   27CHL1  H21C 1979   2.775   0.548   4.991  0.1955 -0.3021 -2.7033
   27CHL1   C22 1980   2.653   0.719   4.779 -0.2251  0.7518 -1.0763
   27CHL1  H22A 1981   2.596   0.814   4.769  0.5050  1.2388 -0.7096
   27CHL1  H22B 1982   2.764   0.732   4.779 -0.3043  1.5276 -1.7600
   27CHL1   C23 1983   2.631   0.632   4.648  0.0822  0.0584  0.1393
   27CHL1  H23A 1984   2.711   0.657   4.574 -0.2083  0.9106  0.0988
   27CHL1  H23B 1985   2.642   0.529   4.689  0.0942  0.3296  0.8291
   27CHL1   C24 1986   2.493   0.659   4.586 -0.4500 -0.5966  0.4439
   27CHL1  H24A 1987   2.455   0.582   4.515  0.6656 -0.0468 -0.7957
   27CHL1  H24B 1988   2.420   0.672   4.669 -0.5411  2.7963 -0.0318
   27CHL1   C25 1989   2.493   0.794   4.507 -0.0758  0.8769  0.0069
   27CHL1   H25 1990   2.544   0.873   4.566  0.3469 -0.2960  1.2684
   27CHL1   C26 1991   2.579   0.774   4.380  0.4879  0.8651 -0.0207
   27CHL1  H26A 1992   2.525   0.718   4.301  0.8555 -0.3901  0.5935
   27CHL1  H26B 1993   2.602   0.876   4.343 -0.4044  0.5288 -1.5493
   27CHL1  H26C 1994   2.676   0.722   4.397 -0.4728 -0.3305  2.2233
   27CHL1   C27 1995   2.353   0.850   4.475  0.7328 -0.0691  0.6447
   27CHL1  H27A 1996   2.289   0.813   4.392 -0.4619 -0.3593  1.6653
   27CHL1  H27B 1997   2.295   0.855   4.570 -0.8869  0.2700 -0.3202
   27CHL1  H27C 1998   2.367   0.959   4.456 -1.3145  0.0799 -0.2930
   28CHL1    C3 1999   0.524   3.522   6.175 -0.5013 -0.0954  0.4251
   28CHL1    H3 2000   0.456   3.438   6.150 -1.4288  0.8794 -0.4845
   28CHL1    O3 2001   0.548   3.519   6.312 -0.1445 -0.2793  0.4753
   28CHL1   H3' 2002   0.570   3.611   6.328  1.0182 -0.4926  0.2156
   28CHL1    C4 2003   0.658   3.523   6.096  0.3023  0.4619 -0.0952
   28CHL1   H4A 2004   0.724   3.593   6.153  0.8762 -1.2687  1.5034
   28CHL1   H4B 2005   0.708   3.424   6.107 -1.3647 -0.3583  0.3837
   28CHL1    C5 2006   0.646   3.566   5.951  0.5923  0.2072  0.1592
   28CHL1    C6 2007   0.704   3.500   5.851  0.8220 -0.1682  0.1002
   28CHL1    H6 2008   0.761   3.408   5.872 -1.3182 -1.1001  2.2385
   28CHL1    C7 2009   0.692   3.537   5.705 -0.7065 -0.8284  0.0828
   28CHL1   H7A 2010   0.795   3.536   5.664 -0.2898 -2.9780  1.0049
   28CHL1   H7B 2011   0.636   3.463   5.643 -0.6067  0.3850 -1.4896
   28CHL1    C8 2012   0.633   3.681   5.683  0.3164  0.0744  0.3031
   28CHL1    H8 2013   0.717   3.752   5.702  1.3859 -0.9897 -0.2850
   28CHL1   C14 2014   0.586   3.698   5.536 -0.1787 -0.2940  0.5678
   28CHL1   H14 2015   0.502   3.627   5.523 -2.5638  2.5112 -0.4708
   28CHL1   C15 2016   0.694   3.660   5.431  0.3208  0.0587 -0.9599
   28CHL1  H15A 2017   0.792   3.707   5.454  0.3595  1.3941 -3.4941
   28CHL1  H15B 2018   0.701   3.549   5.432 -1.5365 -0.0987 -0.3898
   28CHL1   C16 2019   0.634   3.721   5.307  0.2303  0.1868 -0.2052
   28CHL1  H16A 2020   0.721   3.774   5.262  2.1030 -2.2932  0.3042
   28CHL1  H16B 2021   0.599   3.649   5.230  1.3494  0.1582 -0.7079
   28CHL1   C17 2022   0.513   3.819   5.352 -0.2417 -0.6750  0.6334
   28CHL1   H17 2023   0.412   3.773   5.341 -0.2215 -0.9822  1.5684
   28CHL1   C13 2024   0.536   3.841   5.502 -0.5745 -0.2347  0.2463
   28CHL1   C18 2025   0.650   3.946   5.514  0.3033 -0.0208 -0.0783
   28CHL1  H18A 2026   0.736   3.934   5.444  0.4090 -1.8711  0.3187
   28CHL1  H18B 2027   0.600   4.042   5.492 -1.1857 -0.4806  1.1342
   28CHL1  H18C 2028   0.683   3.951   5.620  1.2726  2.4495 -0.4449
   28CHL1   C12 2029   0.408   3.865   5.586 -0.0159 -0.4305  0.0153
   28CHL1  H12A 2030   0.360   3.963   5.566  1.9498  0.7358  0.6793
   28CHL1  H12B 2031   0.338   3.784   5.557  0.1216 -0.6119  0.1822
   28CHL1   C11 2032   0.432   3.846   5.738 -0.2631  0.9766  0.1998
   28CHL1  H11A 2033   0.498   3.934   5.755  2.8400 -0.6734 -2.3644
   28CHL1  H11B 2034   0.337   3.852   5.795 -0.1487 -1.9256  0.8234
   28CHL1    C9 2035   0.518   3.712   5.772 -0.0902 -0.2387 -0.1524
   28CHL1    H9 2036   0.444   3.636   5.740 -0.9430  1.3656 -2.2387
   28CHL1   C10 2037   0.557   3.698   5.927 -0.3118 -0.1898  0.6004
   28CHL1   C19 2038   0.637   3.821   5.976  0.2913 -0.1285  0.1109
   28CHL1  H19A 2039   0.658   3.822   6.085  0.6993 -2.5501  0.1121
   28CHL1  H19B 2040   0.736   3.837   5.928  0.2267 -0.0667 -0.0025
   28CHL1  H19C 2041   0.566   3.902   5.949  0.0695 -0.0298  0.9457
   28CHL1    C1 2042   0.423   3.682   6.000 -0.4623 -0.3163  0.0225
   28CHL1   H1A 2043   0.367   3.776   5.982  1.5378  0.8392 -0.4573
   28CHL1   H1B 2044   0.383   3.590   5.952  1.6114  0.0839 -2.7721
   28CHL1    C2 2045   0.443   3.653   6.149  0.2186  0.7565  0.2194
   28CHL1   H2A 2046   0.341   3.630   6.187 -0.3776 -0.5570 -1.9855
   28CHL1   H2B 2047   0.499   3.731   6.204  0.3019  0.9542 -0.1400
   28CHL1   C20 2048   0.508   3.942   5.255  0.2161  0.1552  0.1378
   28CHL1   H20 2049   0.608   3.988   5.263  0.1572  0.2428  0.4037
   28CHL1   C21 2050   0.399   4.038   5.299 -0.2524 -0.2056 -0.1677
   28CHL1  H21A 2051   0.417   4.070   5.404  0.6264 -0.1480 -0.3305
   28CHL1  H21B 2052   0.297   3.995   5.292  0.3518 -1.5567 -1.2007
   28CHL1  H21C 2053   0.388   4.130   5.237  0.6854 -1.5007 -2.3717
   28CHL1   C22 2054   0.492   3.901   5.106 -0.2533  0.4120 -0.2305
   28CHL1  H22A 2055   0.481   3.992   5.044  0.7384 -1.0292 -2.6517
   28CHL1  H22B 2056   0.592   3.861   5.082  1.1787  1.5500  3.2691
   28CHL1   C23 2057   0.368   3.820   5.062 -0.5899 -0.2201 -0.3538
   28CHL1  H23A 2058   0.363   3.725   5.119 -2.0059  1.3045  2.2356
   28CHL1  H23B 2059   0.278   3.878   5.090 -2.1417 -2.7440  0.1629
   28CHL1   C24 2060   0.368   3.799   4.909  0.9572  0.0350 -0.1041
   28CHL1  H24A 2061   0.355   3.897   4.858  0.1254  0.0740  0.1817
   28CHL1  H24B 2062   0.470   3.761   4.885  0.9745  1.5318 -2.8047
   28CHL1   C25 2063   0.278   3.688   4.854 -0.0991  0.0970  0.5614
   28CHL1   H25 2064   0.322   3.587   4.867 -0.3914 -0.0559  0.3701
   28CHL1   C26 2065   0.149   3.681   4.928 -0.2138  0.1053 -0.3469
   28CHL1  H26A 2066   0.161   3.679   5.038  0.1831 -1.1623 -0.3888
   28CHL1  H26B 2067   0.093   3.770   4.893  0.0900  2.3228  4.1122
   28CHL1  H26C 2068   0.099   3.587   4.895  1.8506 -0.1599 -3.1849
   28CHL1   C27 2069   0.256   3.700   4.700 -0.1761 -0.8673  0.1758
   28CHL1  H27A 2070   0.197   3.613   4.663 -0.7995 -0.6371  0.5999
   28CHL1  H27B 2071   0.198   3.789   4.669 -0.9849 -1.5116 -0.2053
   28CHL1  H27C 2072   0.354   3.688   4.650  0.7446 -0.0802  1.7294
   29CHL1    C3 2073   5.529   1.594   2.798  0.2410 -0.2257  0.0614
   29CHL1    H3 2074   5.640   1.597   2.799  0.2687  0.1645 -1.6318
   29CHL1    O3 2075   5.480   1.635   2.668  0.3445 -0.3609 -0.1539
   29CHL1   H3' 2076   5.388   1.653   2.686  0.9017  0.4486  2.3337
   29CHL1    C4 2077   5.477   1.456   2.829  0.2141  0.6307  0.1085
   29CHL1   H4A 2078   5.367   1.461   2.818  0.3989  2.5696 -1.6993
   29CHL1   H4B 2079   5.513   1.389   2.748 -1.4571 -0.7883  0.4985
   29CHL1    C5 2080   5.511   1.421   2.970  0.5084  1.3527 -0.2468
   29CHL1    C6 2081   5.576   1.306   3.009  0.5739  0.8921 -0.1504
   29CHL1    H6 2082   5.628   1.238   2.939  0.5904  0.8023 -0.0515
   29CHL1    C7 2083   5.573   1.250   3.148  0.6052 -0.7962 -0.1181
   29CHL1   H7A 2084   5.543   1.144   3.161  1.1215 -0.9861 -0.4226
   29CHL1   H7B 2085   5.679   1.257   3.181  1.8678 -0.8361 -3.7752
   29CHL1    C8 2086   5.499   1.340   3.253 -0.3354  0.3618 -0.8279
   29CHL1    H8 2087   5.397   1.298   3.264 -0.3556  0.2605 -1.3709
   29CHL1   C14 2088   5.550   1.329   3.394 -0.8845  0.0215 -0.1227
   29CHL1   H14 2089   5.649   1.374   3.373 -0.1096 -1.3157  0.4890
   29CHL1   C15 2090   5.570   1.190   3.452  0.1554  0.0543  0.8100
   29CHL1  H15A 2091   5.474   1.135   3.441  0.5013 -0.1099 -1.9966
   29CHL1  H15B 2092   5.654   1.129   3.412  0.4131 -0.4804  2.0963
   29CHL1   C16 2093   5.603   1.219   3.599 -0.0446 -0.2178  0.3591
   29CHL1  H16A 2094   5.555   1.144   3.666  1.0917 -1.8046 -0.5307
   29CHL1  H16B 2095   5.706   1.218   3.639 -0.0302 -0.7287  0.3113
   29CHL1   C17 2096   5.570   1.371   3.622 -0.2511  0.0455  0.3010
   29CHL1   H17 2097   5.665   1.429   3.613 -1.7026  2.7610  1.3926
   29CHL1   C13 2098   5.481   1.410   3.504 -0.7791 -0.9904 -0.9920
   29CHL1   C18 2099   5.335   1.355   3.525  0.0334  0.0813  0.7001
   29CHL1  H18A 2100   5.282   1.409   3.606 -0.7489 -0.6057  0.6567
   29CHL1  H18B 2101   5.271   1.379   3.438 -0.6582  2.7014  1.8248
   29CHL1  H18C 2102   5.329   1.249   3.558 -0.8727 -0.3181 -0.6967
   29CHL1   C12 2103   5.495   1.559   3.460 -0.0620  0.1395 -0.3198
   29CHL1  H12A 2104   5.441   1.622   3.534  0.2859 -0.5325  0.5248
   29CHL1  H12B 2105   5.601   1.592   3.458  0.0087 -0.1093 -1.3057
   29CHL1   C11 2106   5.440   1.586   3.322 -0.6343 -0.1318  1.1170
   29CHL1  H11A 2107   5.330   1.567   3.324 -0.4471 -2.0141 -1.3901
   29CHL1  H11B 2108   5.469   1.692   3.304  1.9278 -1.3012 -2.9311
   29CHL1    C9 2109   5.506   1.493   3.223  0.5426 -0.2127  0.6569
   29CHL1    H9 2110   5.614   1.518   3.218  0.2243  1.2451  0.6641
   29CHL1   C10 2111   5.457   1.526   3.080  0.2943  0.0640  0.5232
   29CHL1   C19 2112   5.305   1.520   3.083  0.6109  1.0028 -0.3824
   29CHL1  H19A 2113   5.254   1.595   3.148  1.1985 -0.5286  1.9850
   29CHL1  H19B 2114   5.266   1.539   2.981 -1.3553  3.6734  0.7213
   29CHL1  H19C 2115   5.270   1.422   3.122 -2.4680  2.2577  0.3554
   29CHL1    C1 2116   5.503   1.668   3.040  0.6025  0.1040  0.1382
   29CHL1   H1A 2117   5.444   1.746   3.093  1.4557  0.1296  1.0640
   29CHL1   H1B 2118   5.612   1.672   3.060  1.4165 -1.6679 -3.1390
   29CHL1    C2 2119   5.468   1.698   2.893 -0.1069  0.6531  0.2412
   29CHL1   H2A 2120   5.500   1.801   2.864  0.3793  0.1661 -1.0396
   29CHL1   H2B 2121   5.357   1.696   2.892 -0.1094  0.6831  0.4888
   29CHL1   C20 2122   5.529   1.395   3.766  0.6149 -0.5147 -0.3834
   29CHL1   H20 2123   5.430   1.345   3.778  0.5140 -0.9096 -2.3834
   29CHL1   C21 2124   5.501   1.547   3.775 -0.8228 -0.6802  0.1482
   29CHL1  H21A 2125   5.477   1.573   3.880 -1.7095  1.0406 -0.4367
   29CHL1  H21B 2126   5.410   1.573   3.717 -1.6532 -4.5353 -0.5035
   29CHL1  H21C 2127   5.581   1.615   3.737 -2.4777  0.1150 -2.1499
   29CHL1   C22 2128   5.625   1.341   3.875  0.0091  0.1118  0.3418
   29CHL1  H22A 2129   5.641   1.232   3.864  0.8337  0.3759 -1.4952
   29CHL1  H22B 2130   5.722   1.396   3.870  0.4060 -0.5020  1.0008
   29CHL1   C23 2131   5.581   1.377   4.012 -0.5429 -0.2775 -0.0758
   29CHL1  H23A 2132   5.611   1.482   4.029  3.6611 -1.2233 -0.4511
   29CHL1  H23B 2133   5.471   1.363   4.012 -0.6249  0.2834  1.0042
   29CHL1   C24 2134   5.644   1.306   4.134  0.8336 -0.1438 -0.0107
   29CHL1  H24A 2135   5.627   1.197   4.122  1.4124 -0.3300  0.7534
   29CHL1  H24B 2136   5.754   1.305   4.121  0.9477 -0.2546  0.8748
   29CHL1   C25 2137   5.589   1.342   4.272 -0.2716 -0.1784  1.1876
   29CHL1   H25 2138   5.585   1.453   4.270 -0.0962 -0.1824  0.1486
   29CHL1   C26 2139   5.446   1.288   4.293  1.1059 -0.3720  0.0209
   29CHL1  H26A 2140   5.374   1.336   4.223  1.8958  0.0416 -0.5225
   29CHL1  H26B 2141   5.440   1.179   4.276 -0.6063 -0.6162  1.8460
   29CHL1  H26C 2142   5.414   1.310   4.397  1.4322 -1.6658  0.4083
   29CHL1   C27 2143   5.682   1.304   4.381  0.1411  0.2428  0.3158
   29CHL1  H27A 2144   5.785   1.345   4.373  0.7706 -1.3586 -0.2897
   29CHL1  H27B 2145   5.644   1.333   4.481 -1.5676 -2.4545  0.5659
   29CHL1  H27C 2146   5.687   1.193   4.385 -0.6748  0.0517 -2.0682
   30CHL1    C3 2147   2.335   1.250   2.705  0.5576 -0.2231  0.0770
   30CHL1    H3 2148   2.230   1.269   2.675  0.9546  2.0111 -0.1225
   30CHL1    O3 2149   2.412   1.273   2.593 -0.0419  0.3468 -0.5403
   30CHL1   H3' 2150   2.368   1.215   2.530 -2.0718  1.6780 -0.4524
   30CHL1    C4 2151   2.371   1.350   2.811  0.7657 -0.0820 -0.0150
   30CHL1   H4A 2152   2.477   1.333   2.838  0.9933  0.1382 -0.7410
   30CHL1   H4B 2153   2.353   1.454   2.773 -1.5787 -1.0254 -1.7337
   30CHL1    C5 2154   2.283   1.317   2.932  0.2100 -0.0339  0.9927
   30CHL1    C6 2155   2.200   1.410   2.980 -0.0132 -0.3006  0.4168
   30CHL1    H6 2156   2.185   1.510   2.935 -0.8254 -1.0537 -1.0951
   30CHL1    C7 2157   2.118   1.391   3.109  0.2173  0.4511  1.0092
   30CHL1   H7A 2158   2.147   1.474   3.177  1.2960 -0.2374  1.4135
   30CHL1   H7B 2159   2.010   1.400   3.087  0.8357 -1.0525 -3.6516
   30CHL1    C8 2160   2.169   1.261   3.190 -1.1946 -0.4688  0.1643
   30CHL1    H8 2161   2.265   1.289   3.239 -2.9488  0.9180  3.1180
   30CHL1   C14 2162   2.068   1.224   3.299  0.6309 -0.1392 -0.0092
   30CHL1   H14 2163   1.967   1.215   3.254  0.7179 -0.3714 -0.1635
   30CHL1   C15 2164   2.042   1.335   3.407  0.1426  0.2668  0.5666
   30CHL1  H15A 2165   2.147   1.350   3.441  0.3586 -0.1348  0.0928
   30CHL1  H15B 2166   1.993   1.431   3.381  1.2366  0.7738  0.3061
   30CHL1   C16 2167   1.979   1.251   3.522  0.7361  0.3100 -0.9406
   30CHL1  H16A 2168   2.024   1.256   3.624  0.6971 -1.9375 -0.7466
   30CHL1  H16B 2169   1.877   1.292   3.529  0.1288 -1.0075 -1.6646
   30CHL1   C17 2170   1.973   1.100   3.478 -0.0947  0.1183  0.2861
   30CHL1   H17 2171   1.879   1.078   3.422  0.4917 -2.7950  0.2987
   30CHL1   C13 2172   2.091   1.093   3.374  0.2497  0.1329 -0.2715
   30CHL1   C18 2173   2.224   1.090   3.451 -0.1816  0.1585 -0.2602
   30CHL1  H18A 2174   2.221   1.166   3.531 -0.1733 -0.7783  0.6559
   30CHL1  H18B 2175   2.248   0.990   3.494 -0.2736  0.7125  1.1145
   30CHL1  H18C 2176   2.312   1.111   3.388 -0.2780 -1.8527 -1.1654
   30CHL1   C12 2177   2.093   0.981   3.270  0.4547  0.7570  0.6751
   30CHL1  H12A 2178   2.119   0.881   3.310  0.6245  0.5666  0.1013
   30CHL1  H12B 2179   1.992   0.975   3.223  0.2651  0.8864  1.0572
   30CHL1   C11 2180   2.202   1.003   3.161  1.2696  0.0379 -0.7040
   30CHL1  H11A 2181   2.307   0.992   3.195  1.6502  0.9816 -1.5168
   30CHL1  H11B 2182   2.183   0.929   3.079 -0.9718 -1.5394  1.1002
   30CHL1    C9 2183   2.189   1.143   3.092 -0.5804 -0.0842 -0.2628
   30CHL1    H9 2184   2.092   1.139   3.039  0.1207  0.4863 -1.6216
   30CHL1   C10 2185   2.295   1.173   2.979 -0.2131 -0.0787 -0.5959
   30CHL1   C19 2186   2.437   1.139   3.038 -0.2598 -0.3834 -0.0254
   30CHL1  H19A 2187   2.454   1.181   3.140 -1.9291 -1.3885  0.7123
   30CHL1  H19B 2188   2.455   1.032   3.063 -3.0222 -0.6248  1.3953
   30CHL1  H19C 2189   2.513   1.181   2.970 -1.7056  0.7758 -0.9901
   30CHL1    C1 2190   2.264   1.078   2.865 -0.2330  0.5840  0.5313
   30CHL1   H1A 2191   2.272   0.968   2.875 -1.9987  0.1506 -1.9033
   30CHL1   H1B 2192   2.156   1.088   2.845 -0.3127 -1.6410 -0.4897
   30CHL1    C2 2193   2.350   1.097   2.739  0.5253  0.2801 -0.3782
   30CHL1   H2A 2194   2.310   1.039   2.653  3.8321 -1.9270 -0.6206
   30CHL1   H2B 2195   2.457   1.071   2.754  0.0297 -2.3023 -0.8019
   30CHL1   C20 2196   1.983   0.988   3.591  0.8708  0.2011  0.1856
   30CHL1   H20 2197   2.090   0.976   3.616  1.6368  2.5270 -1.6426
   30CHL1   C21 2198   1.932   0.845   3.544 -0.5350 -0.0379  0.2743
   30CHL1  H21A 2199   1.838   0.863   3.489 -1.1851 -0.1726  1.3214
   30CHL1  H21B 2200   1.930   0.770   3.626  1.7133  1.8185  2.1717
   30CHL1  H21C 2201   2.007   0.800   3.475  0.6046 -1.7338  2.4641
   30CHL1   C22 2202   1.903   1.038   3.715 -0.9585  0.4387  0.0559
   30CHL1  H22A 2203   1.954   1.132   3.744  0.2708  0.8412 -2.9875
   30CHL1  H22B 2204   1.794   1.047   3.696 -0.7889  0.7841 -0.7978
   30CHL1   C23 2205   1.918   0.947   3.846  0.1107 -0.5327  0.3226
   30CHL1  H23A 2206   1.874   1.007   3.929  0.0268  0.0518 -0.1332
   30CHL1  H23B 2207   1.853   0.857   3.836  0.0287 -0.6045  1.4092
   30CHL1   C24 2208   2.062   0.919   3.894 -0.1892  0.5169 -0.0064
   30CHL1  H24A 2209   2.113   0.859   3.816 -0.5613 -1.6328  1.3151
   30CHL1  H24B 2210   2.117   1.015   3.891  1.2731 -0.2998 -2.9389
   30CHL1   C25 2211   2.063   0.845   4.030 -0.6804  1.1742  0.4572
   30CHL1   H25 2212   1.988   0.890   4.098 -0.5191  1.0887  0.6933
   30CHL1   C26 2213   2.014   0.700   4.005 -0.1837 -0.7725 -0.6562
   30CHL1  H26A 2214   2.072   0.639   3.932 -0.9261  0.4215 -2.2792
   30CHL1  H26B 2215   2.017   0.638   4.098  0.1175  0.3944  0.1295
   30CHL1  H26C 2216   1.910   0.698   3.968 -0.1548 -0.0455 -0.7734
   30CHL1   C27 2217   2.209   0.837   4.083 -0.4046 -0.0811 -0.3607
   30CHL1  H27A 2218   2.216   0.798   4.187  0.9549 -0.2893 -0.5174
   30CHL1  H27B 2219   2.271   0.776   4.015  0.8178 -0.1631  0.7860
   30CHL1  H27C 2220   2.248   0.941   4.090 -0.3791  0.2052 -3.3966
   31CHL1    C3 2221   5.472   2.147   2.913 -0.4427 -0.1404  0.4739
   31CHL1    H3 2222   5.518   2.052   2.879  1.6304  1.1991 -0.7405
   31CHL1    O3 2223   5.509   2.232   2.804  0.0159 -0.5594  0.1421
   31CHL1   H3' 2224   5.476   2.197   2.721 -1.0438  1.0049 -0.1384
   31CHL1    C4 2225   5.322   2.140   2.922  1.0774 -0.2881  0.5965
   31CHL1   H4A 2226   5.281   2.243   2.922  1.8580  0.0237  0.3171
   31CHL1   H4B 2227   5.288   2.095   2.826  1.5475 -0.6099  0.5792
   31CHL1    C5 2228   5.275   2.073   3.042  0.3232 -0.5882 -0.5010
   31CHL1    C6 2229   5.180   1.971   3.035 -0.2703 -0.7265  0.2494
   31CHL1    H6 2230   5.135   1.932   2.942  0.2409  0.0446 -0.3302
   31CHL1    C7 2231   5.120   1.912   3.159 -0.1526  0.3031 -0.5839
   31CHL1   H7A 2232   5.009   1.908   3.164 -0.1375  0.7362  2.4766
   31CHL1   H7B 2233   5.152   1.806   3.157  0.2202  0.2176  3.0360
   31CHL1    C8 2234   5.167   1.970   3.294  0.3806 -0.2680 -0.7390
   31CHL1    H8 2235   5.105   2.060   3.315 -0.4381 -0.9822  0.0577
   31CHL1   C14 2236   5.147   1.863   3.400  0.3988  0.1588  0.4014
   31CHL1   H14 2237   5.220   1.784   3.374  0.5723  0.3235  0.3857
   31CHL1   C15 2238   5.010   1.791   3.406 -0.1411  0.9625 -0.1326
   31CHL1  H15A 2239   4.928   1.864   3.389 -0.5416  0.5015 -0.2037
   31CHL1  H15B 2240   4.998   1.718   3.323  0.1566  3.0641 -2.1322
   31CHL1   C16 2241   5.011   1.728   3.550  0.1738  0.0108  0.4140
   31CHL1  H16A 2242   4.923   1.774   3.599 -0.5136  0.6739 -1.3648
   31CHL1  H16B 2243   5.014   1.617   3.559  0.7092 -0.1883 -1.8217
   31CHL1   C17 2244   5.144   1.778   3.621  0.0561 -0.3740 -0.6290
   31CHL1   H17 2245   5.225   1.706   3.598  0.1881 -0.6970  0.7651
   31CHL1   C13 2246   5.176   1.907   3.547 -0.0520  0.0761  0.8080
   31CHL1   C18 2247   5.087   2.025   3.599 -0.6523  0.4499  0.4153
   31CHL1  H18A 2248   4.983   1.990   3.586 -0.3513 -1.2437  2.0882
   31CHL1  H18B 2249   5.117   2.042   3.704  2.5035 -0.3420 -0.2473
   31CHL1  H18C 2250   5.082   2.116   3.536  0.2831  2.8484  3.5708
   31CHL1   C12 2251   5.326   1.949   3.549  0.5103  0.3577 -0.3124
   31CHL1  H12A 2252   5.351   1.996   3.646 -3.0898 -0.2664  1.0626
   31CHL1  H12B 2253   5.382   1.853   3.542 -1.8463 -1.6221  4.1454
   31CHL1   C11 2254   5.358   2.054   3.439  0.0716 -0.2903  0.5009
   31CHL1  H11A 2255   5.306   2.152   3.451 -0.0145  0.0335 -2.0855
   31CHL1  H11B 2256   5.465   2.082   3.447  0.2146 -0.6448 -0.1687
   31CHL1    C9 2257   5.314   2.011   3.291  0.4653  0.2264  0.2791
   31CHL1    H9 2258   5.376   1.921   3.270  0.5916  0.3333  0.1917
   31CHL1   C10 2259   5.346   2.108   3.181 -0.5266  0.3589 -0.0685
   31CHL1   C19 2260   5.285   2.246   3.215  0.0372  0.7134 -0.0166
   31CHL1  H19A 2261   5.352   2.290   3.291  1.1437 -2.6284  1.1364
   31CHL1  H19B 2262   5.286   2.307   3.122 -1.0190  1.4594  0.4456
   31CHL1  H19C 2263   5.179   2.243   3.248 -0.9224  1.5953 -2.7111
   31CHL1    C1 2264   5.489   2.138   3.170 -0.3090  0.1098 -0.6190
   31CHL1   H1A 2265   5.533   2.198   3.252  0.6738 -0.2556 -0.8717
   31CHL1   H1B 2266   5.540   2.040   3.168 -1.2503 -0.3933 -1.9794
   31CHL1    C2 2267   5.524   2.212   3.044 -0.0196 -0.7906  0.2708
   31CHL1   H2A 2268   5.634   2.215   3.037 -0.1355  1.8678 -1.8936
   31CHL1   H2B 2269   5.492   2.318   3.052 -1.1169 -1.2636  3.7923
   31CHL1   C20 2270   5.120   1.776   3.775  0.6084 -0.7495 -0.0289
   31CHL1   H20 2271   5.055   1.861   3.803 -0.0079 -1.6747  1.4578
   31CHL1   C21 2272   5.257   1.795   3.855  1.0927 -0.3166 -0.1551
   31CHL1  H21A 2273   5.248   1.812   3.964  0.7405 -2.0805  0.1135
   31CHL1  H21B 2274   5.304   1.882   3.803  2.5037 -1.1115 -0.2470
   31CHL1  H21C 2275   5.317   1.703   3.841 -0.5800 -1.4263 -0.2490
   31CHL1   C22 2276   5.052   1.644   3.818 -0.5090  0.7954 -0.3172
   31CHL1  H22A 2277   4.948   1.647   3.781 -0.1273  0.4896 -1.4560
   31CHL1  H22B 2278   5.103   1.550   3.787  2.2452  1.5354  1.5611
   31CHL1   C23 2279   5.038   1.613   3.971 -0.1335 -0.3225  0.0030
   31CHL1  H23A 2280   5.138   1.617   4.019 -0.9044  1.3852  1.6149
   31CHL1  H23B 2281   4.983   1.700   4.013  0.6677 -0.1908  0.8086
   31CHL1   C24 2282   4.975   1.484   4.022 -0.1300 -0.2599  0.1080
   31CHL1  H24A 2283   4.867   1.483   3.994  0.6464 -3.5654 -3.6943
   31CHL1  H24B 2284   5.015   1.403   3.958  0.2730  0.4718 -0.5759
   31CHL1   C25 2285   5.001   1.452   4.165 -0.4311  0.0608 -0.4118
   31CHL1   H25 2286   4.967   1.545   4.215  1.0778  0.5497 -0.2627
   31CHL1   C26 2287   4.916   1.331   4.209  0.1774  0.1259 -0.3880
   31CHL1  H26A 2288   4.930   1.314   4.318  0.7834 -1.7797 -0.7304
   31CHL1  H26B 2289   4.809   1.363   4.210  0.8554  3.0662  3.5027
   31CHL1  H26C 2290   4.932   1.237   4.153 -3.5271 -0.8830 -0.0008
   31CHL1   C27 2291   5.143   1.424   4.211 -0.0227 -0.3119 -0.9545
   31CHL1  H27A 2292   5.133   1.394   4.318 -1.0731  1.2383 -0.5766
   31CHL1  H27B 2293   5.183   1.337   4.155  1.2597  0.1516 -0.7768
   31CHL1  H27C 2294   5.221   1.502   4.200  1.1810 -1.1947  0.8327
   32CHL1    C3 2295   0.207   0.373   3.102  0.1105 -1.0841 -0.2331
   32CHL1    H3 2296   0.134   0.290   3.095  0.6912 -1.5299 -1.1857
   32CHL1    O3 2297   0.205   0.467   2.990 -0.2563 -0.2734  0.1435
   32CHL1   H3' 2298   0.280   0.522   3.013 -1.0454 -0.0994  2.5898
   32CHL1    C4 2299   0.195   0.456   3.232 -0.4467  0.0201 -0.1008
   32CHL1   H4A 2300   0.275   0.533   3.235  0.5589 -1.0129  3.0517
   32CHL1   H4B 2301   0.097   0.508   3.232 -0.0564  0.7727  0.2957
   32CHL1    C5 2302   0.204   0.361   3.357  0.0060 -0.4963 -0.5990
   32CHL1    C6 2303   0.103   0.367   3.442 -0.8988 -0.4217  0.2454
   32CHL1    H6 2304   0.020   0.438   3.423 -0.6425  1.1277  4.0733
   32CHL1    C7 2305   0.103   0.285   3.571 -0.4306 -0.1088  0.2725
   32CHL1   H7A 2306   0.074   0.346   3.659 -0.6242  1.0522 -0.5658
   32CHL1   H7B 2307   0.023   0.208   3.558  0.9962 -1.4955 -0.6061
   32CHL1    C8 2308   0.247   0.228   3.606  0.5529  0.4861  0.0660
   32CHL1    H8 2309   0.318   0.308   3.637  0.7278 -0.4830  2.4236
   32CHL1   C14 2310   0.234   0.135   3.718  0.5252  0.3479  0.2182
   32CHL1   H14 2311   0.185   0.047   3.672  1.2633 -0.7373  1.4383
   32CHL1   C15 2312   0.156   0.175   3.845  0.2201 -0.4000  0.7559
   32CHL1  H15A 2313   0.187   0.281   3.857 -1.2510  0.0922  0.4461
   32CHL1  H15B 2314   0.048   0.164   3.825  0.3950 -0.7473 -0.0653
   32CHL1   C16 2315   0.212   0.085   3.956 -0.3273 -0.0753 -0.1797
   32CHL1  H16A 2316   0.266   0.153   4.026 -0.1029 -1.7320  1.3462
   32CHL1  H16B 2317   0.130   0.035   4.011  1.2548  1.7782  4.3921
   32CHL1   C17 2318   0.317  -0.012   3.885  0.0438  0.3407 -0.0265
   32CHL1   H17 2319   0.252  -0.090   3.839 -0.2597  0.3967  0.3044
   32CHL1   C13 2320   0.362   0.074   3.765 -0.0186  0.1493 -0.2158
   32CHL1   C18 2321   0.463   0.184   3.831  0.1070  0.0023 -0.3818
   32CHL1  H18A 2322   0.406   0.244   3.906  0.1449 -0.0701 -0.2943
   32CHL1  H18B 2323   0.561   0.139   3.856 -0.2833 -1.4108 -1.2574
   32CHL1  H18C 2324   0.486   0.260   3.755  1.6641  2.3352  2.2397
   32CHL1   C12 2325   0.437   0.000   3.648  0.1272 -0.2649  0.2187
   32CHL1  H12A 2326   0.541  -0.027   3.676  0.3858 -0.2293 -0.6892
   32CHL1  H12B 2327   0.384  -0.094   3.624 -0.4696 -0.5005  2.2239
   32CHL1   C11 2328   0.447   0.096   3.531 -0.9157  0.6059 -0.2261
   32CHL1  H11A 2329   0.524   0.169   3.563 -1.5146  1.8619 -1.5623
   32CHL1  H11B 2330   0.488   0.052   3.438 -0.7550 -0.6308  0.4001
   32CHL1    C9 2331   0.313   0.167   3.485  1.0283  0.3407 -0.0231
   32CHL1    H9 2332   0.237   0.092   3.455  0.2933  0.8219  0.5801
   32CHL1   C10 2333   0.324   0.270   3.365  0.3450 -0.6279  0.2290
   32CHL1   C19 2334   0.451   0.355   3.386  0.0920 -0.5382 -0.5861
   32CHL1  H19A 2335   0.455   0.450   3.330 -2.9157  0.8760  1.3482
   32CHL1  H19B 2336   0.453   0.394   3.490 -0.3417  0.6636 -1.0132
   32CHL1  H19C 2337   0.545   0.298   3.368  0.4035  0.0716 -0.9051
   32CHL1    C1 2338   0.333   0.197   3.224 -0.8278 -0.2976 -0.7360
   32CHL1   H1A 2339   0.421   0.129   3.221  0.7238  1.5936 -0.2037
   32CHL1   H1B 2340   0.245   0.129   3.214 -2.1003  1.3225 -0.8823
   32CHL1    C2 2341   0.340   0.294   3.110  0.2335 -0.7486 -0.0467
   32CHL1   H2A 2342   0.326   0.234   3.017 -1.3958 -0.2253 -0.1650
   32CHL1   H2B 2343   0.436   0.351   3.113  0.1087 -0.5925  1.5838
   32CHL1   C20 2344   0.425  -0.073   3.982  0.5302  0.8419  0.7080
   32CHL1   H20 2345   0.462   0.013   4.042  0.2538  1.6378 -0.2340
   32CHL1   C21 2346   0.536  -0.153   3.911 -0.2734 -0.3144  0.4636
   32CHL1  H21A 2347   0.486  -0.218   3.836  0.3234  1.3954 -1.5069
   32CHL1  H21B 2348   0.600  -0.209   3.983  1.9281  2.0737  0.5216
   32CHL1  H21C 2349   0.606  -0.082   3.862 -1.0361  0.2638  0.1927
   32CHL1   C22 2350   0.347  -0.165   4.081  0.4765 -0.0690 -0.1374
   32CHL1  H22A 2351   0.290  -0.101   4.151  0.5355  0.0438 -0.1937
   32CHL1  H22B 2352   0.283  -0.236   4.024  0.7867 -1.6039  1.3563
   32CHL1   C23 2353   0.419  -0.269   4.166 -0.5642 -0.5547  0.1781
   32CHL1  H23A 2354   0.463  -0.337   4.090 -0.0431  0.7586 -0.7247
   32CHL1  H23B 2355   0.501  -0.230   4.230 -0.6766  0.0467 -0.0433
   32CHL1   C24 2356   0.331  -0.376   4.239 -0.4721 -0.2681 -0.5322
   32CHL1  H24A 2357   0.261  -0.315   4.300  0.4119 -0.3605  0.6228
   32CHL1  H24B 2358   0.283  -0.451   4.173 -0.7009 -1.4112  0.8851
   32CHL1   C25 2359   0.413  -0.460   4.337  0.0932  0.0320  0.3773
   32CHL1   H25 2360   0.501  -0.512   4.293 -1.3407 -1.6214 -0.6377
   32CHL1   C26 2361   0.461  -0.377   4.464 -0.3498  0.8172  0.1892
   32CHL1  H26A 2362   0.520  -0.430   4.542 -1.0671 -0.2881 -0.0040
   32CHL1  H26B 2363   0.527  -0.290   4.445  0.5443 -0.0121 -0.5907
   32CHL1  H26C 2364   0.366  -0.341   4.511  0.2294  0.7307  1.4796
   32CHL1   C27 2365   0.312  -0.561   4.389 -0.0597 -0.5082 -0.0980
   32CHL1  H27A 2366   0.343  -0.607   4.485 -0.7625  2.0059  1.4081
   32CHL1  H27B 2367   0.218  -0.511   4.419 -0.1843 -0.1498 -1.0557
   32CHL1  H27C 2368   0.268  -0.638   4.322 -0.8191  0.3470 -0.6045
   33CHL1    C3 2369   5.737   0.118   2.596  0.4601  0.1914  0.6648
   33CHL1    H3 2370   5.680   0.023   2.603  2.6550 -1.3414 -0.6562
   33CHL1    O3 2371   5.780   0.151   2.462  0.6551 -0.0414 -0.1829
   33CHL1   H3' 2372   5.837   0.078   2.436  2.6046  1.2834  0.1875
   33CHL1    C4 2373   5.633   0.224   2.621 -0.4194 -0.2766 -0.4131
   33CHL1   H4A 2374   5.665   0.324   2.585 -2.4604  0.5955  0.0192
   33CHL1   H4B 2375   5.542   0.200   2.561 -2.0002  1.6188  1.0651
   33CHL1    C5 2376   5.588   0.231   2.770 -0.2931  0.0789  0.2108
   33CHL1    C6 2377   5.458   0.223   2.800  0.4143 -0.2716  1.1024
   33CHL1    H6 2378   5.385   0.203   2.720  0.0761  3.4483  0.2980
   33CHL1    C7 2379   5.413   0.240   2.942 -0.0640  0.5065 -0.5972
   33CHL1   H7A 2380   5.317   0.295   2.949 -1.7657 -2.3713  1.0530
   33CHL1   H7B 2381   5.375   0.143   2.982 -1.9323  0.4855 -2.2899
   33CHL1    C8 2382   5.515   0.294   3.038 -0.6598 -0.1677  0.9101
   33CHL1    H8 2383   5.530   0.404   3.026  1.1219 -0.5928 -1.5845
   33CHL1   C14 2384   5.472   0.258   3.178  0.7567  0.1718 -0.1304
   33CHL1   H14 2385   5.456   0.149   3.187 -0.0206  0.4525  4.1436
   33CHL1   C15 2386   5.329   0.301   3.224 -0.0827 -0.2026 -0.6041
   33CHL1  H15A 2387   5.317   0.409   3.199  1.1801 -0.1596 -1.0877
   33CHL1  H15B 2388   5.243   0.238   3.190 -0.5362 -0.1077  0.3369
   33CHL1   C16 2389   5.329   0.293   3.380 -0.3358  0.6646  0.6372
   33CHL1  H16A 2390   5.317   0.395   3.421 -0.4003  1.0164 -0.2374
   33CHL1  H16B 2391   5.261   0.215   3.420  0.6793 -0.4548  0.2432
   33CHL1   C17 2392   5.479   0.246   3.417 -0.2948  0.0998  0.0793
   33CHL1   H17 2393   5.464   0.136   3.408 -0.8837  0.3311 -3.1684
   33CHL1   C13 2394   5.568   0.287   3.296 -0.3211 -0.4882  0.0324
   33CHL1   C18 2395   5.594   0.439   3.318 -0.0119  0.2630 -0.4171
   33CHL1  H18A 2396   5.627   0.497   3.230 -1.9740  1.3046 -0.5268
   33CHL1  H18B 2397   5.496   0.482   3.349  0.1040 -0.2450  0.7168
   33CHL1  H18C 2398   5.664   0.463   3.401  0.1619  0.2335 -0.5548
   33CHL1   C12 2399   5.694   0.205   3.270 -0.2059 -0.0404 -0.1838
   33CHL1  H12A 2400   5.771   0.236   3.344 -1.5333  0.2088  1.1311
   33CHL1  H12B 2401   5.666   0.098   3.282  0.9592 -0.5610 -1.6442
   33CHL1   C11 2402   5.750   0.243   3.128  0.5036  0.3354 -0.1346
   33CHL1  H11A 2403   5.780   0.349   3.134 -0.8411  0.7594 -0.5791
   33CHL1  H11B 2404   5.845   0.188   3.112  1.0545  1.4580 -0.8054
   33CHL1    C9 2405   5.646   0.221   3.016 -1.1547 -0.2487 -0.4698
   33CHL1    H9 2406   5.618   0.113   3.028 -0.5739 -0.1233  3.0438
   33CHL1   C10 2407   5.703   0.242   2.874  0.0594  0.5182  0.8296
   33CHL1   C19 2408   5.763   0.375   2.866  0.1703 -0.1265 -0.1350
   33CHL1  H19A 2409   5.694   0.451   2.908  1.0681  0.7861 -0.2847
   33CHL1  H19B 2410   5.853   0.388   2.930 -0.1240 -1.0398  0.4921
   33CHL1  H19C 2411   5.789   0.406   2.763 -3.4790 -1.0085 -1.4939
   33CHL1    C1 2412   5.806   0.127   2.842 -0.0202  0.7799  0.0279
   33CHL1   H1A 2413   5.900   0.136   2.901  0.7528 -0.2755 -0.9903
   33CHL1   H1B 2414   5.760   0.029   2.868  0.1170  0.0735 -2.1680
   33CHL1    C2 2415   5.850   0.121   2.695  0.4766 -0.1031  0.6242
   33CHL1   H2A 2416   5.920   0.035   2.688 -0.5216 -0.9238  0.4738
   33CHL1   H2B 2417   5.912   0.210   2.670  2.5493 -1.6083  0.1082
   33CHL1   C20 2418   5.527   0.293   3.558  0.1318 -0.2525  0.2792
   33CHL1   H20 2419   5.551   0.402   3.551  4.0445 -1.0371 -1.6482
   33CHL1   C21 2420   5.666   0.228   3.592  0.1650 -0.7537  0.2087
   33CHL1  H21A 2421   5.700   0.257   3.693  1.0797 -0.7348 -0.0965
   33CHL1  H21B 2422   5.745   0.276   3.531 -2.3624  3.7202 -0.0044
   33CHL1  H21C 2423   5.671   0.118   3.578  1.6571 -0.6410 -0.2531
   33CHL1   C22 2424   5.428   0.262   3.668 -0.2184 -0.3320 -0.6659
   33CHL1  H22A 2425   5.465   0.316   3.758  0.4475 -1.6475 -0.1223
   33CHL1  H22B 2426   5.331   0.312   3.648 -1.3850 -2.2971 -0.1884
   33CHL1   C23 2427   5.421   0.110   3.705 -0.0009 -0.6367 -0.0182
   33CHL1  H23A 2428   5.358   0.062   3.628  1.1010 -1.3794 -0.4848
   33CHL1  H23B 2429   5.525   0.069   3.703  0.8522  1.4014 -0.4344
   33CHL1   C24 2430   5.360   0.073   3.840  0.4587  0.4999  0.1739
   33CHL1  H24A 2431   5.419   0.116   3.923  0.8731  1.1916 -0.4646
   33CHL1  H24B 2432   5.257   0.114   3.840 -0.2055 -1.0938 -0.2987
   33CHL1   C25 2433   5.352  -0.081   3.858 -0.8347  0.4152 -0.3577
   33CHL1   H25 2434   5.348  -0.131   3.759 -0.7389  1.5848 -0.9797
   33CHL1   C26 2435   5.472  -0.144   3.931  0.3409  0.6312  0.5011
   33CHL1  H26A 2436   5.470  -0.107   4.036  0.9029  2.0511  0.0367
   33CHL1  H26B 2437   5.465  -0.254   3.939 -1.5450  0.8423  2.6726
   33CHL1  H26C 2438   5.571  -0.121   3.887 -0.8746 -0.0245 -2.8675
   33CHL1   C27 2439   5.224  -0.126   3.937 -1.3084 -0.9574  0.4852
   33CHL1  H27A 2440   5.234  -0.084   4.040  1.3444  1.0361 -0.4750
   33CHL1  H27B 2441   5.137  -0.080   3.885  0.7800  0.9959 -1.4891
   33CHL1  H27C 2442   5.218  -0.237   3.939  2.1947 -1.3165 -1.4611
   34CHL1    C3 2443   4.960   3.795   2.670  0.3853  0.3861 -0.3577
   34CHL1    H3 2444   4.870   3.854   2.642  0.9368  0.9865 -0.9262
   34CHL1    O3 2445   5.022   3.761   2.546  0.6427  0.2201  0.0775
   34CHL1   H3' 2446   5.110   3.732   2.568  0.6127 -1.3890 -1.6715
   34CHL1    C4 2447   5.055   3.882   2.743  0.1471  0.1627 -0.8091
   34CHL1   H4A 2448   5.153   3.832   2.759 -0.4701 -1.1139 -0.9016
   34CHL1   H4B 2449   5.068   3.969   2.676 -1.1711  0.1485 -1.1123
   34CHL1    C5 2450   5.005   3.911   2.884 -0.1548 -0.3834  0.8841
   34CHL1    C6 2451   5.000   4.039   2.925  0.2814  0.3472 -0.0956
   34CHL1    H6 2452   5.043   4.118   2.862  0.3072 -0.6188 -1.3242
   34CHL1    C7 2453   4.966   4.069   3.065  0.6580 -0.3749 -0.2501
   34CHL1   H7A 2454   5.019   4.156   3.109  2.4414 -1.1300 -0.8230
   34CHL1   H7B 2455   4.859   4.099   3.067  0.7491 -0.0573  1.5173
   34CHL1    C8 2456   4.966   3.943   3.166  0.4283 -0.3229  0.3457
   34CHL1    H8 2457   5.071   3.912   3.185  0.4635 -0.4368 -0.0301
   34CHL1   C14 2458   4.902   3.976   3.299 -0.3059 -0.2489  0.7734
   34CHL1   H14 2459   4.800   4.007   3.267  0.0227  0.4866  0.4126
   34CHL1   C15 2460   4.952   4.104   3.370 -0.1989  0.7060 -0.4842
   34CHL1  H15A 2461   5.062   4.090   3.375 -0.5359 -2.5595 -0.3107
   34CHL1  H15B 2462   4.925   4.200   3.320 -0.1536  1.4465  0.8698
   34CHL1   C16 2463   4.905   4.084   3.517  0.6188 -0.1816  0.4319
   34CHL1  H16A 2464   4.989   4.105   3.587  1.3186  2.4424 -1.0603
   34CHL1  H16B 2465   4.835   4.165   3.547  1.3478  1.5944 -2.2942
   34CHL1   C17 2466   4.824   3.953   3.523  0.2609  0.0398 -0.1440
   34CHL1   H17 2467   4.723   3.972   3.482  0.5996  0.4772 -0.7988
   34CHL1   C13 2468   4.885   3.866   3.403  0.1735 -0.4209  0.1588
   34CHL1   C18 2469   5.028   3.825   3.447 -0.1040 -0.0668  0.2140
   34CHL1  H18A 2470   5.090   3.787   3.364  0.3146 -2.6615  1.6044
   34CHL1  H18B 2471   5.084   3.908   3.495  1.7286 -0.7336 -0.6842
   34CHL1  H18C 2472   5.025   3.740   3.518 -1.9147  0.3634  0.7246
   34CHL1   C12 2473   4.810   3.754   3.334  0.3135 -0.2594 -0.1438
   34CHL1  H12A 2474   4.813   3.662   3.397  1.8125  0.7942  1.3883
   34CHL1  H12B 2475   4.706   3.788   3.317  0.1097 -1.7606 -2.2196
   34CHL1   C11 2476   4.861   3.713   3.195  0.0042  0.6542  0.8039
   34CHL1  H11A 2477   4.944   3.639   3.201  2.1382  2.6690 -1.6906
   34CHL1  H11B 2478   4.786   3.653   3.138  2.0013  0.3492 -1.6935
   34CHL1    C9 2479   4.895   3.833   3.097  0.4287 -0.3714 -0.7634
   34CHL1    H9 2480   4.794   3.871   3.067  0.8689 -0.4488 -2.4481
   34CHL1   C10 2481   4.961   3.789   2.954  0.4678  0.1359  0.4328
   34CHL1   C19 2482   5.094   3.713   2.992  0.9153 -0.6882  0.0254
   34CHL1  H19A 2483   5.158   3.768   3.065 -2.9761  1.0309  2.4417
   34CHL1  H19B 2484   5.070   3.616   3.041  0.3747 -0.9255 -0.7034
   34CHL1  H19C 2485   5.149   3.676   2.902  2.7286  2.5387 -0.3474
   34CHL1    C1 2486   4.868   3.696   2.876 -0.6932  0.1655 -0.3697
   34CHL1   H1A 2487   4.857   3.601   2.932  1.8432 -0.9327 -1.5909
   34CHL1   H1B 2488   4.769   3.747   2.871  0.0681  1.8346  0.5276
   34CHL1    C2 2489   4.922   3.665   2.739  0.5662 -0.6429  0.2146
   34CHL1   H2A 2490   4.850   3.614   2.671  0.0497  1.7854 -1.2101
   34CHL1   H2B 2491   5.007   3.598   2.762  0.7285  0.0415  1.7172
   34CHL1   C20 2492   4.816   3.897   3.668 -0.3900  0.3314  0.4236
   34CHL1   H20 2493   4.921   3.883   3.701 -0.7895 -0.6969  1.3019
   34CHL1   C21 2494   4.772   3.750   3.650 -0.4926  0.4737 -0.1250
   34CHL1  H21A 2495   4.851   3.678   3.618 -1.7899 -0.4907 -1.2286
   34CHL1  H21B 2496   4.675   3.742   3.597 -0.3148 -1.5883 -0.2448
   34CHL1  H21C 2497   4.742   3.721   3.753 -1.1639 -0.0691 -0.4664
   34CHL1   C22 2498   4.732   3.977   3.770  0.0125 -0.4793  0.3006
   34CHL1  H22A 2499   4.653   4.030   3.712  0.1329  2.2088  2.4039
   34CHL1  H22B 2500   4.677   3.900   3.827 -0.5543 -0.4346 -0.1721
   34CHL1   C23 2501   4.823   4.070   3.845  0.0769 -0.4398  0.1084
   34CHL1  H23A 2502   4.921   4.019   3.850 -0.3670 -1.2323  0.9344
   34CHL1  H23B 2503   4.842   4.169   3.798  1.5903  0.4364  2.3802
   34CHL1   C24 2504   4.765   4.101   3.978  0.8137 -0.0458 -0.5814
   34CHL1  H24A 2505   4.679   4.171   3.963 -1.0827 -2.0170  0.4958
   34CHL1  H24B 2506   4.723   4.011   4.028  0.7792  0.6257  0.6532
   34CHL1   C25 2507   4.863   4.178   4.075 -0.3038 -0.2213 -0.5459
   34CHL1   H25 2508   4.913   4.255   4.014  1.1080  1.0659  2.0957
   34CHL1   C26 2509   4.792   4.242   4.192  0.8732  0.2825 -0.3433
   34CHL1  H26A 2510   4.870   4.280   4.261  1.8146  0.2599 -1.3802
   34CHL1  H26B 2511   4.727   4.325   4.158 -1.0273 -1.4177 -1.0761
   34CHL1  H26C 2512   4.735   4.163   4.247  2.1286  0.6486  1.5524
   34CHL1   C27 2513   4.979   4.081   4.127  0.5332  0.2814  0.3337
   34CHL1  H27A 2514   5.021   4.025   4.040 -0.8279 -0.8616  0.3644
   34CHL1  H27B 2515   5.048   4.144   4.186 -0.2439  1.3948  0.0850
   34CHL1  H27C 2516   4.930   4.006   4.193 -1.8020  0.6241 -0.9117
   35CHL1    C3 2517   1.643   3.170   2.669 -0.5461 -0.8142 -0.3170
   35CHL1    H3 2518   1.590   3.262   2.700 -0.9670 -0.9302 -0.6685
   35CHL1    O3 2519   1.662   3.166   2.533 -0.7951 -0.0491 -0.3740
   35CHL1   H3' 2520   1.685   3.077   2.505 -0.8083 -0.1430 -0.0945
   35CHL1    C4 2521   1.781   3.161   2.739 -0.3770 -0.4117 -0.3276
   35CHL1   H4A 2522   1.827   3.064   2.711 -0.4248 -1.0546  1.6503
   35CHL1   H4B 2523   1.843   3.242   2.694 -0.3582 -1.0182 -1.4383
   35CHL1    C5 2524   1.773   3.167   2.894  0.4158 -0.3241 -0.4146
   35CHL1    C6 2525   1.829   3.261   2.972 -0.3272 -0.1895  0.7772
   35CHL1    H6 2526   1.888   3.333   2.913 -0.6969 -0.0414  0.5875
   35CHL1    C7 2527   1.844   3.259   3.122  0.0564  0.4274  0.6047
   35CHL1   H7A 2528   1.947   3.272   3.164 -0.5708  4.6298  1.2989
   35CHL1   H7B 2529   1.791   3.345   3.167  1.1877  0.3163  2.2580
   35CHL1    C8 2530   1.789   3.129   3.176  0.3651 -0.0094 -1.1626
   35CHL1    H8 2531   1.869   3.051   3.174 -0.6291 -1.2949  2.2020
   35CHL1   C14 2532   1.757   3.144   3.330 -0.0430  0.1913 -0.3596
   35CHL1   H14 2533   1.668   3.212   3.328 -0.5030 -0.4157 -0.8210
   35CHL1   C15 2534   1.857   3.199   3.433 -0.1819 -0.5295 -0.8907
   35CHL1  H15A 2535   1.954   3.154   3.405  0.1638  0.5515 -1.5201
   35CHL1  H15B 2536   1.851   3.309   3.414 -0.9029 -0.6179 -1.2079
   35CHL1   C16 2537   1.785   3.171   3.562 -0.2366  0.5027  0.4466
   35CHL1  H16A 2538   1.855   3.132   3.639 -0.7686 -1.0868  0.1505
   35CHL1  H16B 2539   1.734   3.265   3.594 -1.0293  0.5895 -0.9928
   35CHL1   C17 2540   1.670   3.064   3.537 -0.0544 -0.3368  0.1511
   35CHL1   H17 2541   1.576   3.122   3.530 -0.4958 -1.0779 -0.1932
   35CHL1   C13 2542   1.690   3.020   3.391 -0.0328  0.1766 -0.6450
   35CHL1   C18 2543   1.795   2.907   3.389 -0.5702  0.8167 -0.1719
   35CHL1  H18A 2544   1.880   2.932   3.456  1.3820 -1.3511 -1.6651
   35CHL1  H18B 2545   1.768   2.809   3.436 -1.6522  0.3931 -1.5876
   35CHL1  H18C 2546   1.827   2.877   3.287  1.9518 -1.4616  1.1531
   35CHL1   C12 2547   1.557   2.985   3.313 -0.1741 -0.7472 -0.7401
   35CHL1  H12A 2548   1.500   2.898   3.352 -0.0630 -0.5822 -0.2028
   35CHL1  H12B 2549   1.484   3.068   3.313  3.0048  2.2701 -0.8161
   35CHL1   C11 2550   1.583   2.952   3.166 -0.1345  0.0524 -0.3404
   35CHL1  H11A 2551   1.643   2.859   3.151 -1.2920 -0.5737 -1.2246
   35CHL1  H11B 2552   1.488   2.928   3.115 -0.1505 -3.4178  1.0621
   35CHL1    C9 2553   1.660   3.073   3.101  0.0135 -0.7347  0.0203
   35CHL1    H9 2554   1.592   3.160   3.111  0.8923 -0.0837  0.5085
   35CHL1   C10 2555   1.688   3.059   2.953  0.1981  0.4042  0.0170
   35CHL1   C19 2556   1.758   2.928   2.935  0.4544  0.4979 -1.1496
   35CHL1  H19A 2557   1.839   2.917   3.010  0.2811  2.3368 -0.6407
   35CHL1  H19B 2558   1.694   2.841   2.957 -1.8736  1.8150 -2.3089
   35CHL1  H19C 2559   1.793   2.912   2.830 -0.8207  2.5203 -1.9277
   35CHL1    C1 2560   1.550   3.063   2.878  0.2732  0.2739 -0.2377
   35CHL1   H1A 2561   1.486   2.983   2.918  2.1347  0.0574  2.6153
   35CHL1   H1B 2562   1.508   3.160   2.912 -2.1533 -0.8970  0.2812
   35CHL1    C2 2563   1.552   3.060   2.725  0.1792 -0.5841  0.0930
   35CHL1   H2A 2564   1.451   3.077   2.683 -0.4812  0.2444  1.9267
   35CHL1   H2B 2565   1.589   2.959   2.694  0.8219 -0.9554  1.9511
   35CHL1   C20 2566   1.645   2.962   3.650  0.5509  0.2625 -0.6942
   35CHL1   H20 2567   1.736   2.903   3.673 -0.5931 -1.7690 -1.0899
   35CHL1   C21 2568   1.532   2.868   3.604  0.0627 -0.0693 -0.4004
   35CHL1  H21A 2569   1.562   2.798   3.524  0.6301 -1.5974  1.0851
   35CHL1  H21B 2570   1.456   2.937   3.562  1.0371  1.2845 -0.0122
   35CHL1  H21C 2571   1.487   2.820   3.694 -1.6853 -0.5738 -1.4925
   35CHL1   C22 2572   1.614   3.044   3.778 -0.4859 -0.2597  0.5081
   35CHL1  H22A 2573   1.690   3.124   3.788 -0.5943 -0.2456  1.2887
   35CHL1  H22B 2574   1.513   3.091   3.776 -0.1042  0.5796  0.4422
   35CHL1   C23 2575   1.620   2.956   3.898 -0.1923  0.4594 -0.1983
   35CHL1  H23A 2576   1.534   2.886   3.893 -0.7603  1.0826  0.5251
   35CHL1  H23B 2577   1.717   2.904   3.911 -0.2743  0.2520 -0.4117
   35CHL1   C24 2578   1.592   3.048   4.020  0.5325 -0.3344  0.0682
   35CHL1  H24A 2579   1.653   3.140   4.007 -0.6055  0.3149 -0.9375
   35CHL1  H24B 2580   1.484   3.071   4.031  0.2926 -1.4298  0.1171
   35CHL1   C25 2581   1.632   2.999   4.158  0.0189 -0.0515  0.1349
   35CHL1   H25 2582   1.729   2.944   4.151 -0.9449 -1.9872  1.1672
   35CHL1   C26 2583   1.631   3.107   4.267 -0.1320 -0.0032  0.4606
   35CHL1  H26A 2584   1.716   3.177   4.248 -1.0176  0.9113 -0.2115
   35CHL1  H26B 2585   1.537   3.164   4.255  0.8011  1.7153  1.0422
   35CHL1  H26C 2586   1.642   3.069   4.371  0.7006  0.0561  0.4059
   35CHL1   C27 2587   1.530   2.897   4.206 -0.4312 -0.0496  0.4655
   35CHL1  H27A 2588   1.518   2.826   4.121  0.5218 -1.9757  1.8782
   35CHL1  H27B 2589   1.551   2.846   4.302 -1.0802 -1.8031 -0.2857
   35CHL1  H27C 2590   1.433   2.948   4.223  0.1617  1.2101  0.1694
   36CHL1    C3 2591   4.116   4.290   2.908 -0.4222  0.6964 -0.2722
   36CHL1    H3 2592   4.176   4.215   2.966 -0.4276  2.4608  2.1645
   36CHL1    O3 2593   4.099   4.261   2.772  0.0640 -0.8098  0.4722
   36CHL1   H3' 2594   4.080   4.346   2.731  4.3201  0.6869  1.1349
   36CHL1    C4 2595   3.988   4.312   2.978 -0.2427  0.1912  0.3031
   36CHL1   H4A 2596   3.939   4.390   2.916  1.1242  0.6202 -0.2695
   36CHL1   H4B 2597   3.941   4.211   2.983  1.7604 -0.7663  4.0856
   36CHL1    C5 2598   4.003   4.352   3.121 -0.4075 -1.0321 -0.6419
   36CHL1    C6 2599   3.949   4.284   3.224 -0.5727  0.4641  1.3895
   36CHL1    H6 2600   3.903   4.189   3.193  2.1710 -0.0441 -1.7995
   36CHL1    C7 2601   3.969   4.330   3.363 -0.5699 -0.0014  0.2286
   36CHL1   H7A 2602   3.876   4.312   3.420  0.0297  0.2149  1.3130
   36CHL1   H7B 2603   4.045   4.265   3.411  0.8648  1.3276 -0.1373
   36CHL1    C8 2604   4.021   4.473   3.383 -0.5977  0.3323  0.5849
   36CHL1    H8 2605   3.934   4.537   3.358 -0.9787 -0.4039 -0.0179
   36CHL1   C14 2606   4.058   4.488   3.527 -0.5568 -1.0408 -0.2103
   36CHL1   H14 2607   4.136   4.410   3.541  0.4243 -0.7402 -3.3709
   36CHL1   C15 2608   3.953   4.474   3.638  0.6265 -0.0123 -0.5496
   36CHL1  H15A 2609   3.859   4.526   3.611  1.4027  0.4552 -2.5683
   36CHL1  H15B 2610   3.919   4.371   3.665 -2.3730  0.1856 -2.9862
   36CHL1   C16 2611   4.017   4.536   3.765 -0.6803 -0.8589  0.0764
   36CHL1  H16A 2612   3.949   4.601   3.824  1.9736  3.0281 -0.7650
   36CHL1  H16B 2613   4.042   4.460   3.842  0.1519  1.6809  2.4859
   36CHL1   C17 2614   4.147   4.607   3.716  0.6866 -0.3418  0.7590
   36CHL1   H17 2615   4.220   4.524   3.721  0.4271 -0.6952 -0.7727
   36CHL1   C13 2616   4.131   4.622   3.559  0.6163  0.1233  0.5352
   36CHL1   C18 2617   4.034   4.741   3.537  0.6461 -0.5323  0.2791
   36CHL1  H18A 2618   3.943   4.732   3.601  1.4945  0.6325  1.7024
   36CHL1  H18B 2619   4.088   4.833   3.569 -0.3389  0.4007 -0.6499
   36CHL1  H18C 2620   4.007   4.749   3.430  0.0431 -0.8811  0.3987
   36CHL1   C12 2621   4.260   4.632   3.482  0.7132 -0.0498 -0.1674
   36CHL1  H12A 2622   4.299   4.735   3.495 -0.2489  0.9787 -4.1934
   36CHL1  H12B 2623   4.333   4.557   3.519  0.7153 -0.4298 -0.9240
   36CHL1   C11 2624   4.229   4.611   3.327 -0.5750 -0.0490 -0.0688
   36CHL1  H11A 2625   4.182   4.706   3.293  0.6282  0.3198 -0.7894
   36CHL1  H11B 2626   4.323   4.603   3.268 -1.0763  0.4289 -0.9381
   36CHL1    C9 2627   4.137   4.491   3.292 -0.4152 -0.2854  0.1579
   36CHL1    H9 2628   4.197   4.400   3.317 -0.2870  0.0113  0.9586
   36CHL1   C10 2629   4.098   4.474   3.140 -0.1799  0.0241 -0.7697
   36CHL1   C19 2630   4.023   4.605   3.096  0.7072 -0.5593  0.7165
   36CHL1  H19A 2631   4.013   4.615   2.986  0.1645  0.4155  0.8481
   36CHL1  H19B 2632   3.926   4.620   3.147  0.8256 -0.5227  0.9305
   36CHL1  H19C 2633   4.083   4.691   3.131  0.7716 -0.2900 -0.0409
   36CHL1    C1 2634   4.237   4.446   3.062 -0.2621  0.0158 -0.5418
   36CHL1   H1A 2635   4.303   4.535   3.071 -0.2055 -0.1751  1.2081
   36CHL1   H1B 2636   4.291   4.361   3.110 -0.3224 -0.0560 -0.6011
   36CHL1    C2 2637   4.207   4.412   2.918  0.2978  0.4694  0.7724
   36CHL1   H2A 2638   4.303   4.404   2.864  1.1978  2.0066  2.0296
   36CHL1   H2B 2639   4.145   4.492   2.871  0.9702  0.3588 -0.3281
   36CHL1   C20 2640   4.191   4.716   3.817  0.5991 -0.0048  0.2340
   36CHL1   H20 2641   4.117   4.797   3.805 -0.5526 -1.1082 -0.4074
   36CHL1   C21 2642   4.340   4.766   3.779 -0.6601  0.3494  0.0709
   36CHL1  H21A 2643   4.390   4.827   3.856  0.8408 -0.7864  0.0475
   36CHL1  H21B 2644   4.323   4.839   3.697 -0.9919  0.3666  0.1516
   36CHL1  H21C 2645   4.410   4.683   3.757 -2.0015 -0.4229 -1.5370
   36CHL1   C22 2646   4.189   4.678   3.968 -0.1025 -0.5898 -0.3143
   36CHL1  H22A 2647   4.087   4.644   3.997 -1.4873  1.8954 -1.9420
   36CHL1  H22B 2648   4.250   4.587   3.991 -0.1671 -0.4909  0.2825
   36CHL1   C23 2649   4.224   4.794   4.065 -0.0212 -0.2777 -0.5665
   36CHL1  H23A 2650   4.335   4.795   4.079  0.2480  1.5960 -2.3369
   36CHL1  H23B 2651   4.199   4.891   4.018 -0.4673 -0.6798 -1.1624
   36CHL1   C24 2652   4.158   4.797   4.200 -0.0877  0.1561 -0.0544
   36CHL1  H24A 2653   4.061   4.851   4.188 -0.5924 -0.9278 -0.9903
   36CHL1  H24B 2654   4.143   4.696   4.243 -1.5068 -0.5245 -2.0271
   36CHL1   C25 2655   4.231   4.886   4.300  0.6463 -0.7769 -0.4995
   36CHL1   H25 2656   4.339   4.864   4.317  0.5223 -0.1144  1.3640
   36CHL1   C26 2657   4.221   5.040   4.267 -0.7704  0.1221 -0.7468
   36CHL1  H26A 2658   4.118   5.071   4.242 -0.9808 -0.3595 -0.5077
   36CHL1  H26B 2659   4.257   5.092   4.358  0.3889  0.1189 -1.1929
   36CHL1  H26C 2660   4.296   5.070   4.192  1.3837 -2.2803  0.2953
   36CHL1   C27 2661   4.154   4.881   4.437 -0.6024 -0.5468 -0.6245
   36CHL1  H27A 2662   4.140   4.778   4.477 -0.5883  0.4796  2.2982
   36CHL1  H27B 2663   4.205   4.936   4.519  0.0796  0.1222 -1.4823
   36CHL1  H27C 2664   4.057   4.934   4.431 -0.8482 -0.6274  1.6091
   37CHL1    C3 2665   1.090   2.862   3.060 -1.0679  1.1429  0.7049
   37CHL1    H3 2666   0.996   2.920   3.075 -1.9400 -0.2651  0.8579
   37CHL1    O3 2667   1.133   2.872   2.924  0.2058  0.0156  0.1722
   37CHL1   H3' 2668   1.228   2.856   2.927  0.4574  1.2294 -0.6980
   37CHL1    C4 2669   1.201   2.917   3.151 -0.0873 -0.2284  0.0430
   37CHL1   H4A 2670   1.294   2.863   3.123 -0.1703 -0.4726  0.2431
   37CHL1   H4B 2671   1.215   3.022   3.115  1.2930 -0.5906 -0.5236
   37CHL1    C5 2672   1.174   2.894   3.300  0.4640 -0.0861 -0.5508
   37CHL1    C6 2673   1.158   3.000   3.380  0.3088  0.2155 -0.1854
   37CHL1    H6 2674   1.189   3.100   3.346 -0.5134  0.7312  0.5521
   37CHL1    C7 2675   1.137   2.981   3.526  0.1072 -0.5563 -0.3295
   37CHL1   H7A 2676   1.196   3.051   3.589 -0.1431 -2.1455  1.7662
   37CHL1   H7B 2677   1.033   3.019   3.538  0.6309  1.0707 -0.5847
   37CHL1    C8 2678   1.155   2.844   3.581 -0.0581  0.1077  0.5809
   37CHL1    H8 2679   1.264   2.822   3.576  0.0583  0.8873 -0.5312
   37CHL1   C14 2680   1.101   2.828   3.722 -0.0785 -0.2724  0.4009
   37CHL1   H14 2681   0.991   2.841   3.722 -0.1668 -0.9916  0.4747
   37CHL1   C15 2682   1.146   2.935   3.828 -0.6164 -0.3370 -0.5921
   37CHL1  H15A 2683   1.254   2.959   3.817 -0.2089 -0.6621  2.1226
   37CHL1  H15B 2684   1.093   3.032   3.832 -0.0890 -0.0417 -0.7019
   37CHL1   C16 2685   1.127   2.859   3.961 -0.2607 -0.3708  0.1224
   37CHL1  H16A 2686   1.219   2.854   4.024 -1.0996  0.4825  1.4622
   37CHL1  H16B 2687   1.047   2.918   4.011  0.2359  2.9325 -2.5795
   37CHL1   C17 2688   1.073   2.709   3.926 -0.9634  0.8031  0.1557
   37CHL1   H17 2689   0.962   2.713   3.917 -0.9810  0.1896  0.0656
   37CHL1   C13 2690   1.125   2.693   3.783 -0.0288 -0.0074 -0.2849
   37CHL1   C18 2691   1.275   2.654   3.776  0.0264 -0.7883 -0.0011
   37CHL1  H18A 2692   1.327   2.737   3.829 -0.3903  0.6891 -1.7880
   37CHL1  H18B 2693   1.297   2.561   3.831  1.9651 -1.2723 -1.4713
   37CHL1  H18C 2694   1.315   2.644   3.673 -0.2275 -4.3456  0.1397
   37CHL1   C12 2695   1.053   2.588   3.696  0.0551 -0.4839  0.1320
   37CHL1  H12A 2696   1.060   2.483   3.734  1.0327 -0.9303 -1.2072
   37CHL1  H12B 2697   0.949   2.624   3.683 -0.1240 -1.7307 -2.5203
   37CHL1   C11 2698   1.086   2.595   3.543  0.1100 -1.1111 -0.1803
   37CHL1  H11A 2699   1.184   2.545   3.537  0.3414 -1.0791  2.1694
   37CHL1  H11B 2700   1.001   2.545   3.492 -1.2326 -0.4406  1.3013
   37CHL1    C9 2701   1.085   2.737   3.489 -0.4565 -0.3595 -0.8134
   37CHL1    H9 2702   0.982   2.776   3.478 -0.1699  1.1456  1.1861
   37CHL1   C10 2703   1.144   2.751   3.344 -0.2414 -0.5347  0.0118
   37CHL1   C19 2704   1.275   2.670   3.330 -0.8202 -0.2726 -0.4687
   37CHL1  H19A 2705   1.321   2.695   3.232 -1.1742 -0.9028 -0.8027
   37CHL1  H19B 2706   1.347   2.705   3.406  1.2348 -4.5463 -0.1655
   37CHL1  H19C 2707   1.262   2.560   3.330 -0.1895 -0.3500  0.1052
   37CHL1    C1 2708   1.036   2.687   3.242 -0.1532 -0.9284 -0.0832
   37CHL1   H1A 2709   1.037   2.578   3.263 -1.3823 -0.9508 -0.0677
   37CHL1   H1B 2710   0.936   2.729   3.265  0.9448  1.3035  1.0082
   37CHL1    C2 2711   1.067   2.710   3.093 -0.0513  0.5319  0.0808
   37CHL1   H2A 2712   0.979   2.687   3.029 -0.1580  1.5214 -0.1354
   37CHL1   H2B 2713   1.150   2.638   3.077 -1.2521 -0.9693  0.4045
   37CHL1   C20 2714   1.115   2.607   4.034  0.4038 -0.2188  1.1024
   37CHL1   H20 2715   1.225   2.597   4.022 -0.0968 -3.4918 -2.9836
   37CHL1   C21 2716   1.061   2.469   4.012  0.0922  0.3888  0.5579
   37CHL1  H21A 2717   1.076   2.393   4.092  3.2883  1.3482  0.9940
   37CHL1  H21B 2718   1.095   2.419   3.919  0.0304  0.9103  0.2530
   37CHL1  H21C 2719   0.951   2.480   4.000 -0.0127 -2.0434 -1.6544
   37CHL1   C22 2720   1.084   2.663   4.166  0.3894 -0.2787 -0.8243
   37CHL1  H22A 2721   1.116   2.767   4.190  0.4736 -0.6021  0.5775
   37CHL1  H22B 2722   0.974   2.676   4.174  0.1976 -2.2463  0.4156
   37CHL1   C23 2723   1.135   2.575   4.288 -0.7501  0.1767  0.7308
   37CHL1  H23A 2724   1.082   2.478   4.296  1.6803 -1.1492  1.9311
   37CHL1  H23B 2725   1.243   2.553   4.270 -0.7709 -2.4669  3.1869
   37CHL1   C24 2726   1.126   2.646   4.419 -0.6352  0.0951 -0.2169
   37CHL1  H24A 2727   1.159   2.751   4.405 -1.7252  0.5104  0.2537
   37CHL1  H24B 2728   1.020   2.639   4.448 -0.2149 -0.2560  1.2888
   37CHL1   C25 2729   1.209   2.571   4.525  0.4268 -0.2492  0.6538
   37CHL1   H25 2730   1.313   2.601   4.501  0.0142 -0.4724 -1.6440
   37CHL1   C26 2731   1.164   2.631   4.661  0.3302 -0.7165  0.0549
   37CHL1  H26A 2732   1.241   2.596   4.734  1.8386 -1.2642 -1.7260
   37CHL1  H26B 2733   1.165   2.741   4.649  0.2274 -0.8654 -1.5268
   37CHL1  H26C 2734   1.063   2.593   4.686 -0.3100  0.9949  0.1564
   37CHL1   C27 2735   1.199   2.420   4.541  0.1584 -0.2451 -0.0684
   37CHL1  H27A 2736   1.214   2.371   4.442  1.2294  1.4302 -0.7849
   37CHL1  H27B 2737   1.270   2.382   4.617 -0.2128  0.7423  0.8040
   37CHL1  H27C 2738   1.094   2.398   4.570  0.1106  1.3593  1.1321
   38CHL1    C3 2739   3.337   3.171   3.193 -0.2422  0.3139  0.5423
   38CHL1    H3 2740   3.391   3.268   3.199  0.6240 -0.2228  2.0407
   38CHL1    O3 2741   3.322   3.140   3.054 -0.0085  0.3440  0.0422
   38CHL1   H3' 2742   3.280   3.054   3.059 -1.2497  0.9868  1.1632
   38CHL1    C4 2743   3.417   3.050   3.262 -0.6401 -0.2453  0.1851
   38CHL1   H4A 2744   3.356   2.963   3.227 -0.9867 -0.0219  0.2222
   38CHL1   H4B 2745   3.519   3.049   3.218 -0.6799  0.7375  0.0409
   38CHL1    C5 2746   3.418   3.071   3.415 -0.1759 -0.1582 -0.5184
   38CHL1    C6 2747   3.531   3.068   3.486 -0.3398  0.1211 -0.2078
   38CHL1    H6 2748   3.623   3.039   3.432 -1.7710 -0.4524 -2.4616
   38CHL1    C7 2749   3.543   3.078   3.636 -0.0815  0.0077  0.1929
   38CHL1   H7A 2750   3.613   3.006   3.684  0.6952  0.4815 -0.2122
   38CHL1   H7B 2751   3.574   3.180   3.667  0.2947 -0.1180  0.2381
   38CHL1    C8 2752   3.411   3.043   3.703  0.3741 -0.2028  0.3424
   38CHL1    H8 2753   3.389   2.934   3.707  0.5058 -0.3486 -1.8056
   38CHL1   C14 2754   3.414   3.093   3.844  0.4871  0.4107  0.0081
   38CHL1   H14 2755   3.430   3.203   3.839  1.6682  0.1817 -2.9159
   38CHL1   C15 2756   3.525   3.045   3.934  0.1315 -0.2267 -0.6345
   38CHL1  H15A 2757   3.536   2.937   3.911  0.8636 -0.6697  1.5815
   38CHL1  H15B 2758   3.618   3.103   3.910  0.0099 -0.3880 -1.5389
   38CHL1   C16 2759   3.472   3.063   4.076  0.7306  0.7000 -0.0918
   38CHL1  H16A 2760   3.463   2.958   4.111  0.7200  1.6170  2.8780
   38CHL1  H16B 2761   3.543   3.123   4.137 -0.0252 -0.0972  1.6307
   38CHL1   C17 2762   3.335   3.123   4.065 -0.0914 -0.3102  0.3574
   38CHL1   H17 2763   3.361   3.231   4.058  0.0204 -0.3370  0.3558
   38CHL1   C13 2764   3.283   3.082   3.929 -0.2391  0.6769 -0.4595
   38CHL1   C18 2765   3.225   2.938   3.931 -0.1934  0.1335  0.3897
   38CHL1  H18A 2766   3.191   2.907   3.830  1.2232  0.7172 -0.2928
   38CHL1  H18B 2767   3.298   2.862   3.966 -1.2838 -1.0520  0.1885
   38CHL1  H18C 2768   3.135   2.925   3.996 -0.9138  0.3925 -0.5389
   38CHL1   C12 2769   3.178   3.182   3.863  0.9799 -0.2770  0.2550
   38CHL1  H12A 2770   3.078   3.165   3.909 -0.2290  0.3965 -1.9823
   38CHL1  H12B 2771   3.207   3.289   3.875  0.2561 -0.1401  0.8475
   38CHL1   C11 2772   3.163   3.149   3.714  0.1699 -0.4328  0.0592
   38CHL1  H11A 2773   3.092   3.064   3.703  0.5113 -0.5198 -1.7658
   38CHL1  H11B 2774   3.096   3.231   3.679 -1.9729 -2.5038 -0.9365
   38CHL1    C9 2775   3.299   3.129   3.634  0.3627  0.9530 -1.0073
   38CHL1    H9 2776   3.336   3.234   3.641 -2.4897  1.9283  2.8488
   38CHL1   C10 2777   3.283   3.094   3.486 -0.4645  0.6505  0.3450
   38CHL1   C19 2778   3.198   2.957   3.472  0.0460  0.7191 -0.8507
   38CHL1  H19A 2779   3.095   2.953   3.512  0.7154 -0.7464  0.8716
   38CHL1  H19B 2780   3.196   2.918   3.367 -2.1561 -2.9648  0.3711
   38CHL1  H19C 2781   3.261   2.880   3.522 -0.4893  1.0143  0.3056
   38CHL1    C1 2782   3.219   3.211   3.412  0.4621 -0.0328  0.2125
   38CHL1   H1A 2783   3.119   3.223   3.458 -0.3151 -1.0951 -1.1112
   38CHL1   H1B 2784   3.275   3.304   3.436  0.3534 -0.1045  0.7380
   38CHL1    C2 2785   3.202   3.193   3.258 -1.3014  0.6211  0.5756
   38CHL1   H2A 2786   3.162   3.288   3.217 -0.9603  1.2410  1.6364
   38CHL1   H2B 2787   3.130   3.109   3.243  0.3740 -0.7978  0.0612
   38CHL1   C20 2788   3.244   3.105   4.187 -0.6418  0.8786  0.0586
   38CHL1   H20 2789   3.209   3.000   4.191 -0.4288  0.8478  2.3672
   38CHL1   C21 2790   3.135   3.212   4.180  0.1285  0.3030  0.0285
   38CHL1  H21A 2791   3.177   3.314   4.166  0.5870  0.3140  1.3079
   38CHL1  H21B 2792   3.069   3.204   4.270 -0.1024 -2.0666 -0.2884
   38CHL1  H21C 2793   3.068   3.185   4.095 -0.0248  0.4958  0.0847
   38CHL1   C22 2794   3.307   3.118   4.321 -0.7652  0.3878 -0.4990
   38CHL1  H22A 2795   3.401   3.059   4.323 -0.6044  0.6293 -0.8622
   38CHL1  H22B 2796   3.343   3.220   4.342  1.6697 -0.7652  1.4714
   38CHL1   C23 2797   3.222   3.065   4.437  0.7622  0.3134  0.1451
   38CHL1  H23A 2798   3.123   3.115   4.431  0.2365 -0.7936 -0.6595
   38CHL1  H23B 2799   3.200   2.957   4.433 -1.7980  0.6563  2.4668
   38CHL1   C24 2800   3.293   3.106   4.571  0.0784 -0.0202  0.8912
   38CHL1  H24A 2801   3.393   3.058   4.571  0.6868  1.2288  0.9006
   38CHL1  H24B 2802   3.319   3.213   4.560  0.0340 -0.2251 -2.5848
   38CHL1   C25 2803   3.219   3.061   4.696  0.0656 -0.3600  0.5485
   38CHL1   H25 2804   3.196   2.953   4.693  1.1161 -0.6477 -3.2277
   38CHL1   C26 2805   3.306   3.084   4.825  0.0016 -0.7825 -0.7694
   38CHL1  H26A 2806   3.407   3.037   4.830  0.1555 -0.3473  0.9021
   38CHL1  H26B 2807   3.327   3.192   4.844 -1.9245 -0.4679 -0.1865
   38CHL1  H26C 2808   3.241   3.047   4.907  0.9437 -0.4696  0.1490
   38CHL1   C27 2809   3.085   3.137   4.707  0.4417 -0.2578  0.2473
   38CHL1  H27A 2810   3.038   3.110   4.804 -1.5494  1.1127 -0.2859
   38CHL1  H27B 2811   3.111   3.245   4.706  2.6452 -0.6912  1.9873
   38CHL1  H27C 2812   3.019   3.110   4.622 -0.9431 -0.6121  1.3929
   39CHL1    C3 2813   0.886   1.725   3.061 -0.2342 -0.7615  0.1106
   39CHL1    H3 2814   0.776   1.719   3.051 -0.2372 -0.7014  0.1056
   39CHL1    O3 2815   0.947   1.759   2.936 -0.3050 -0.6055 -0.3284
   39CHL1   H3' 2816   0.991   1.678   2.909 -1.1976 -1.1952 -0.0508
   39CHL1    C4 2817   0.930   1.831   3.165 -0.3375  0.3661 -0.6744
   39CHL1   H4A 2818   1.040   1.840   3.150 -0.1788 -0.3097  0.0503
   39CHL1   H4B 2819   0.880   1.929   3.146 -2.7963 -0.0974  2.6188
   39CHL1    C5 2820   0.904   1.803   3.316  0.7693 -0.2443 -0.5256
   39CHL1    C6 2821   0.814   1.879   3.385  0.0840 -0.0244 -0.0898
   39CHL1    H6 2822   0.772   1.965   3.330  0.4947  0.1026 -0.2074
   39CHL1    C7 2823   0.769   1.843   3.522  0.7116  0.4242 -0.0435
   39CHL1   H7A 2824   0.753   1.933   3.586 -0.6280  0.5754 -0.5645
   39CHL1   H7B 2825   0.673   1.789   3.535  0.5938  0.8670  1.0282
   39CHL1    C8 2826   0.866   1.753   3.592  0.0696  0.5089  0.1052
   39CHL1    H8 2827   0.952   1.822   3.603 -0.4929  1.4225 -1.0892
   39CHL1   C14 2828   0.810   1.710   3.727  0.6680 -0.4187  0.2669
   39CHL1   H14 2829   0.714   1.663   3.699 -1.2721  1.9291  2.4157
   39CHL1   C15 2830   0.766   1.826   3.825 -0.1266 -0.8486  0.1251
   39CHL1  H15A 2831   0.840   1.909   3.814  0.4901 -1.2337  1.1711
   39CHL1  H15B 2832   0.664   1.868   3.812 -0.9802 -2.5404  1.0783
   39CHL1   C16 2833   0.768   1.760   3.961  0.3354  0.2157 -0.2794
   39CHL1  H16A 2834   0.834   1.818   4.029 -1.6726  0.7237  1.3562
   39CHL1  H16B 2835   0.672   1.749   4.015  2.0443  0.6260  3.1089
   39CHL1   C17 2836   0.820   1.607   3.931  0.2700 -0.1342 -0.8564
   39CHL1   H17 2837   0.730   1.543   3.916  1.0082 -1.2205 -0.7479
   39CHL1   C13 2838   0.899   1.619   3.802  0.1503 -0.1779 -0.1017
   39CHL1   C18 2839   1.034   1.689   3.831 -0.4657 -0.3476  0.3767
   39CHL1  H18A 2840   1.032   1.783   3.889 -0.1248 -0.8533  1.2311
   39CHL1  H18B 2841   1.093   1.611   3.883  1.8734  1.2750  0.3118
   39CHL1  H18C 2842   1.074   1.697   3.727 -0.0923  0.8495  0.5999
   39CHL1   C12 2843   0.909   1.486   3.719 -0.0850 -0.4122  0.3634
   39CHL1  H12A 2844   0.969   1.407   3.769  0.0725 -1.3542 -1.2313
   39CHL1  H12B 2845   0.811   1.439   3.698  0.0972 -1.6473  2.0346
   39CHL1   C11 2846   0.969   1.514   3.577 -0.7294  0.0301 -0.8013
   39CHL1  H11A 2847   1.080   1.523   3.588 -0.6975 -2.1514  1.7650
   39CHL1  H11B 2848   0.949   1.422   3.518  1.3077 -0.5321 -0.7038
   39CHL1    C9 2849   0.893   1.627   3.502  0.0407  0.1455 -0.7693
   39CHL1    H9 2850   0.790   1.586   3.494 -1.0227  2.5041  0.0811
   39CHL1   C10 2851   0.949   1.659   3.361 -0.7460  0.1377  0.1554
   39CHL1   C19 2852   1.100   1.646   3.359 -0.0059 -0.2411  1.0259
   39CHL1  H19A 2853   1.144   1.699   3.446  3.6804 -1.0938 -0.1141
   39CHL1  H19B 2854   1.133   1.542   3.380 -0.0077 -0.4462  0.0807
   39CHL1  H19C 2855   1.150   1.674   3.264 -1.2764 -1.3065  0.0001
   39CHL1    C1 2856   0.900   1.553   3.256 -0.6078  0.2351 -0.3592
   39CHL1   H1A 2857   0.944   1.455   3.282 -3.1433 -0.9740 -0.3164
   39CHL1   H1B 2858   0.790   1.537   3.262 -0.4359 -1.2667 -0.9849
   39CHL1    C2 2859   0.938   1.584   3.105 -0.2652  0.2918  0.5351
   39CHL1   H2A 2860   0.887   1.513   3.037  3.1129 -0.8814 -0.9971
   39CHL1   H2B 2861   1.048   1.570   3.095 -0.1734 -2.8157  3.8603
   39CHL1   C20 2862   0.884   1.559   4.062 -0.7780 -0.0583  0.7129
   39CHL1   H20 2863   0.982   1.610   4.074 -0.4446 -0.7355  0.9159
   39CHL1   C21 2864   0.916   1.410   4.034 -0.1720  0.0667 -0.0409
   39CHL1  H21A 2865   0.940   1.365   4.133  0.3816 -1.4945 -0.8506
   39CHL1  H21B 2866   1.007   1.403   3.972 -0.2473 -1.5916 -0.0002
   39CHL1  H21C 2867   0.835   1.352   3.986 -0.7639  0.3724  0.5634
   39CHL1   C22 2868   0.800   1.576   4.193 -0.0965  0.1429 -0.0849
   39CHL1  H22A 2869   0.872   1.551   4.274  1.1891  0.5280 -1.0800
   39CHL1  H22B 2870   0.786   1.685   4.209  0.3701  0.3531 -1.0555
   39CHL1   C23 2871   0.661   1.516   4.216 -1.1960 -0.1507  0.6799
   39CHL1  H23A 2872   0.582   1.580   4.170  0.2630 -0.8046 -3.0732
   39CHL1  H23B 2873   0.665   1.431   4.145  0.6380 -0.4712  1.1245
   39CHL1   C24 2874   0.631   1.456   4.345 -0.2103 -0.0229 -0.5086
   39CHL1  H24A 2875   0.717   1.402   4.390  0.2798  0.5519 -0.7313
   39CHL1  H24B 2876   0.618   1.547   4.407 -4.1056 -1.2698  0.7908
   39CHL1   C25 2877   0.495   1.375   4.349 -0.7160  0.1807  0.5303
   39CHL1   H25 2878   0.417   1.426   4.288 -0.4011 -1.4679 -1.3391
   39CHL1   C26 2879   0.517   1.228   4.294 -0.2097  0.0950  0.5379
   39CHL1  H26A 2880   0.414   1.187   4.293 -0.5385  0.8578  1.3206
   39CHL1  H26B 2881   0.559   1.235   4.191  1.4423  1.6653  1.2547
   39CHL1  H26C 2882   0.588   1.165   4.352 -0.0054 -1.7569 -1.5985
   39CHL1   C27 2883   0.445   1.359   4.495  0.1706  0.2915 -0.1095
   39CHL1  H27A 2884   0.342   1.317   4.504 -0.0401  0.2846 -2.2208
   39CHL1  H27B 2885   0.510   1.292   4.556  0.9249  1.4493  0.4060
   39CHL1  H27C 2886   0.451   1.454   4.552 -0.3474  0.3105 -0.0863
   40CHL1    C3 2887   1.126   6.572   2.872 -0.2139  0.2291  0.1146
   40CHL1    H3 2888   1.026   6.592   2.917 -0.9495  0.8349 -1.7263
   40CHL1    O3 2889   1.113   6.570   2.731  0.2207  0.2221  0.2600
   40CHL1   H3' 2890   1.193   6.610   2.697  0.8413 -2.5552 -1.8830
   40CHL1    C4 2891   1.237   6.666   2.913  0.0512 -0.3599 -0.5953
   40CHL1   H4A 2892   1.332   6.633   2.866  0.5530 -2.6163  1.7601
   40CHL1   H4B 2893   1.225   6.771   2.880  4.5277  1.0190  1.3762
   40CHL1    C5 2894   1.261   6.661   3.064  0.0788  0.5182 -0.0534
   40CHL1    C6 2895   1.267   6.771   3.130 -0.1550  0.3038 -0.4705
   40CHL1    H6 2896   1.254   6.871   3.085 -0.7352  0.8133  0.7966
   40CHL1    C7 2897   1.292   6.771   3.281 -0.0528  0.1791 -0.0849
   40CHL1   H7A 2898   1.379   6.837   3.300 -1.8800  2.9169 -0.5752
   40CHL1   H7B 2899   1.199   6.814   3.324  0.3529  0.0049  0.9930
   40CHL1    C8 2900   1.325   6.631   3.347  0.5507 -0.1996  0.4330
   40CHL1    H8 2901   1.434   6.615   3.331  0.5153 -0.1403  0.1170
   40CHL1   C14 2902   1.298   6.618   3.501 -0.4389  0.1166  0.7695
   40CHL1   H14 2903   1.189   6.639   3.508 -0.5515  0.9891 -2.1249
   40CHL1   C15 2904   1.363   6.716   3.595 -0.6862 -0.7606  0.5810
   40CHL1  H15A 2905   1.472   6.722   3.571 -0.5744  1.0960  1.3860
   40CHL1  H15B 2906   1.309   6.813   3.586 -0.6100 -0.8412 -0.9834
   40CHL1   C16 2907   1.343   6.655   3.729 -0.4532  0.0427 -0.1709
   40CHL1  H16A 2908   1.431   6.659   3.797  0.4633  0.7593 -1.3639
   40CHL1  H16B 2909   1.247   6.692   3.771 -0.3764 -2.4662  2.5794
   40CHL1   C17 2910   1.305   6.504   3.703  0.6299 -0.0366  0.7278
   40CHL1   H17 2911   1.194   6.504   3.710  0.4501  2.7205 -0.9321
   40CHL1   C13 2912   1.327   6.480   3.557 -0.6876 -0.0883  1.0871
   40CHL1   C18 2913   1.476   6.459   3.540 -0.0160  1.1812  0.6944
   40CHL1  H18A 2914   1.497   6.351   3.555 -0.0369  1.1891  0.7795
   40CHL1  H18B 2915   1.507   6.482   3.436 -1.0524  0.3066  0.1689
   40CHL1  H18C 2916   1.551   6.511   3.603  0.0376  1.0089  0.7762
   40CHL1   C12 2917   1.246   6.377   3.496  0.2750  0.2234  0.3699
   40CHL1  H12A 2918   1.269   6.274   3.530 -0.8049 -0.4860 -0.9276
   40CHL1  H12B 2919   1.139   6.383   3.527 -0.7281 -3.1556 -1.8537
   40CHL1   C11 2920   1.268   6.384   3.341  0.1662  0.2664  0.2443
   40CHL1  H11A 2921   1.370   6.342   3.324  0.0065 -0.4227  0.9571
   40CHL1  H11B 2922   1.199   6.315   3.288 -1.9662  1.1737  1.7345
   40CHL1    C9 2923   1.240   6.525   3.275  0.2517 -0.4522 -0.0133
   40CHL1    H9 2924   1.131   6.538   3.292 -0.0471  0.8119 -2.5093
   40CHL1   C10 2925   1.268   6.523   3.121  0.5837  0.3109  0.2760
   40CHL1   C19 2926   1.413   6.470   3.088  0.6448 -0.1781 -0.4966
   40CHL1  H19A 2927   1.490   6.542   3.122  1.5149 -1.2002 -0.2311
   40CHL1  H19B 2928   1.445   6.368   3.121 -0.6597  0.0113  1.5460
   40CHL1  H19C 2929   1.422   6.466   2.977 -0.5537 -0.8894 -0.5930
   40CHL1    C1 2930   1.164   6.422   3.058  0.3502 -0.0683 -0.4455
   40CHL1   H1A 2931   1.193   6.317   3.081  0.2129 -0.1505 -0.6409
   40CHL1   H1B 2932   1.062   6.433   3.103 -0.5055 -1.4392 -1.9372
   40CHL1    C2 2933   1.155   6.425   2.905 -0.1227  0.0518  0.6043
   40CHL1   H2A 2934   1.063   6.370   2.876  0.9436 -0.4520 -2.0905
   40CHL1   H2B 2935   1.243   6.378   2.857 -0.1698  1.5401 -1.0567
   40CHL1   C20 2936   1.371   6.407   3.802  0.5981  0.7537  0.4213
   40CHL1   H20 2937   1.481   6.424   3.795  1.3488 -3.4996 -1.9199
   40CHL1   C21 2938   1.330   6.259   3.787 -0.2667 -1.0225  0.3699
   40CHL1  H21A 2939   1.337   6.196   3.877 -0.7147  0.6499  1.6219
   40CHL1  H21B 2940   1.391   6.211   3.707 -1.7499 -2.3206 -0.0241
   40CHL1  H21C 2941   1.226   6.246   3.751 -0.2576 -1.0089  0.3376
   40CHL1   C22 2942   1.322   6.446   3.943  0.3444 -0.7721 -0.3013
   40CHL1  H22A 2943   1.342   6.555   3.956 -0.4465 -0.6105 -0.4147
   40CHL1  H22B 2944   1.213   6.429   3.946 -0.0054  1.2791  0.8606
   40CHL1   C23 2945   1.391   6.373   4.059  0.1772  0.3814  0.4216
   40CHL1  H23A 2946   1.359   6.267   4.066  2.0229 -0.3491 -1.0208
   40CHL1  H23B 2947   1.502   6.379   4.049 -0.0990  1.9223 -3.1564
   40CHL1   C24 2948   1.351   6.431   4.189 -0.2945 -0.0358  0.1285
   40CHL1  H24A 2949   1.388   6.535   4.206  0.8204 -0.0523 -1.9158
   40CHL1  H24B 2950   1.243   6.456   4.191 -0.1623  0.9527 -2.0782
   40CHL1   C25 2951   1.377   6.341   4.312 -0.0087 -0.3272  0.4100
   40CHL1   H25 2952   1.317   6.249   4.297 -1.2415  0.2417  1.5712
   40CHL1   C26 2953   1.521   6.300   4.306 -0.2656  0.2974  0.2272
   40CHL1  H26A 2954   1.588   6.386   4.283 -0.1264 -0.2725 -1.6410
   40CHL1  H26B 2955   1.547   6.263   4.407  0.0796 -2.0498 -0.6579
   40CHL1  H26C 2956   1.534   6.220   4.230 -1.6084  0.4534 -0.1944
   40CHL1   C27 2957   1.343   6.414   4.443  0.5190 -0.8189 -0.6405
   40CHL1  H27A 2958   1.391   6.514   4.453  2.3096 -1.8614  2.6879
   40CHL1  H27B 2959   1.233   6.421   4.461  0.5884  2.5517 -0.8437
   40CHL1  H27C 2960   1.382   6.365   4.534  1.0317 -0.1898 -0.5151
   41CHL1    C3 2961   5.241   2.653   3.110 -0.1212 -0.5984  0.5996
   41CHL1    H3 2962   5.200   2.550   3.113  0.2025 -0.8317 -1.6482
   41CHL1    O3 2963   5.206   2.726   2.989 -0.7791  0.1744 -0.4145
   41CHL1   H3' 2964   5.265   2.802   2.991 -1.0881  0.4021  0.7533
   41CHL1    C4 2965   5.184   2.737   3.231  0.1660 -0.3900  0.3751
   41CHL1   H4A 2966   5.243   2.829   3.250 -0.1652 -0.4314  1.7207
   41CHL1   H4B 2967   5.079   2.763   3.204  1.0870  0.9916 -2.1850
   41CHL1    C5 2968   5.202   2.640   3.354  0.2838 -0.2870  0.4493
   41CHL1    C6 2969   5.099   2.579   3.413  0.2367  0.1968 -0.8201
   41CHL1    H6 2970   4.995   2.591   3.379  0.0820  0.1600 -0.3580
   41CHL1    C7 2971   5.118   2.496   3.539 -0.2321 -0.0308  0.2834
   41CHL1   H7A 2972   5.036   2.528   3.608 -1.4595  1.4787 -1.7659
   41CHL1   H7B 2973   5.117   2.388   3.515 -0.1587  0.3595 -1.5833
   41CHL1    C8 2974   5.260   2.519   3.606  0.4479  0.5233  0.1556
   41CHL1    H8 2975   5.256   2.620   3.651 -0.8249  1.0017 -0.9678
   41CHL1   C14 2976   5.282   2.405   3.712  0.0240  0.1634 -0.0179
   41CHL1   H14 2977   5.289   2.320   3.641  0.8331 -0.3332  0.6328
   41CHL1   C15 2978   5.173   2.366   3.820  0.4986  0.0550 -0.0937
   41CHL1  H15A 2979   5.129   2.459   3.863 -2.0261 -0.9616 -0.2712
   41CHL1  H15B 2980   5.088   2.317   3.767  1.9163 -1.1538 -1.3425
   41CHL1   C16 2981   5.246   2.285   3.922 -0.1786 -0.4191 -0.4073
   41CHL1  H16A 2982   5.215   2.325   4.021  1.9083 -0.5743  0.3696
   41CHL1  H16B 2983   5.219   2.177   3.924  1.1989 -0.8393 -1.9401
   41CHL1   C17 2984   5.402   2.285   3.886 -0.4075 -0.6124 -0.6312
   41CHL1   H17 2985   5.415   2.194   3.824 -0.4964 -1.5957  0.7657
   41CHL1   C13 2986   5.418   2.405   3.791 -0.1294 -0.1333  0.4139
   41CHL1   C18 2987   5.425   2.538   3.875 -0.1357 -0.2477  0.6536
   41CHL1  H18A 2988   5.527   2.544   3.917  0.4335 -0.1096 -0.6740
   41CHL1  H18B 2989   5.423   2.626   3.806 -1.1683  0.1907  1.2161
   41CHL1  H18C 2990   5.352   2.552   3.958 -0.8550 -0.9758  0.1657
   41CHL1   C12 2991   5.533   2.400   3.680  0.7526  0.0165 -0.4961
   41CHL1  H12A 2992   5.640   2.404   3.710  0.2422  0.5432  1.3733
   41CHL1  H12B 2993   5.524   2.302   3.628  0.0739 -0.6946  0.9111
   41CHL1   C11 2994   5.511   2.505   3.568 -0.2735  0.3504 -0.1907
   41CHL1  H11A 2995   5.523   2.605   3.614  0.3266 -0.3305  1.2071
   41CHL1  H11B 2996   5.595   2.498   3.495 -2.6862  0.2018 -3.1335
   41CHL1    C9 2997   5.369   2.507   3.503  0.0670 -0.4595  0.1326
   41CHL1    H9 2998   5.341   2.408   3.461  0.3242  0.2737 -1.9194
   41CHL1   C10 2999   5.347   2.622   3.397  0.5211 -0.0635 -0.8749
   41CHL1   C19 3000   5.382   2.760   3.463  0.1430 -0.3276 -0.8407
   41CHL1  H19A 3001   5.382   2.840   3.385 -0.2626 -0.4573 -0.9778
   41CHL1  H19B 3002   5.305   2.784   3.539  0.5174 -1.2664 -0.1511
   41CHL1  H19C 3003   5.474   2.768   3.524 -1.0281 -0.7365  1.0710
   41CHL1    C1 3004   5.430   2.589   3.270  0.2029  0.2101  0.3138
   41CHL1   H1A 3005   5.535   2.623   3.280 -0.0471  0.9063  0.5909
   41CHL1   H1B 3006   5.421   2.479   3.262 -2.9303  0.4399 -0.9992
   41CHL1    C2 3007   5.394   2.650   3.132 -0.9613 -0.3608 -0.5464
   41CHL1   H2A 3008   5.455   2.611   3.047  1.1925 -0.0807  0.7890
   41CHL1   H2B 3009   5.422   2.757   3.141 -1.0447 -0.3536 -0.3774
   41CHL1   C20 3010   5.490   2.276   4.010 -0.3344 -0.7281  0.0992
   41CHL1   H20 3011   5.472   2.363   4.077 -1.5664 -1.4785  0.7814
   41CHL1   C21 3012   5.639   2.285   3.973 -0.4361  0.0157  0.0992
   41CHL1  H21A 3013   5.666   2.385   3.935 -0.8565 -0.1157 -0.5819
   41CHL1  H21B 3014   5.665   2.216   3.889  3.1263 -0.2756  1.2813
   41CHL1  H21C 3015   5.700   2.253   4.060  0.1843 -2.4230 -1.1281
   41CHL1   C22 3016   5.453   2.149   4.087  0.3093 -0.6725 -0.1759
   41CHL1  H22A 3017   5.361   2.178   4.143  0.1370  0.4649 -1.0161
   41CHL1  H22B 3018   5.438   2.068   4.013  1.0357  0.5351 -1.6897
   41CHL1   C23 3019   5.559   2.097   4.179  0.8076 -0.0726  0.1395
   41CHL1  H23A 3020   5.649   2.060   4.124  0.3779 -0.9657  0.0198
   41CHL1  H23B 3021   5.594   2.187   4.233  1.8755 -0.0183 -0.6108
   41CHL1   C24 3022   5.508   1.994   4.280  0.1351 -0.7984  0.0211
   41CHL1  H24A 3023   5.591   1.940   4.331  0.4170 -0.7579 -0.3864
   41CHL1  H24B 3024   5.459   2.049   4.363  0.7820  1.5669 -1.0804
   41CHL1   C25 3025   5.410   1.891   4.223 -0.2404  0.5011 -0.0248
   41CHL1   H25 3026   5.327   1.947   4.174 -2.3613  0.1042  2.8342
   41CHL1   C26 3027   5.483   1.795   4.129 -0.7101  0.0522  0.0249
   41CHL1  H26A 3028   5.419   1.712   4.091 -0.3462  0.4480 -1.4935
   41CHL1  H26B 3029   5.523   1.852   4.043  0.2017 -1.0656 -0.3209
   41CHL1  H26C 3030   5.574   1.754   4.178 -0.2337  2.7141  1.5552
   41CHL1   C27 3031   5.342   1.809   4.334 -1.0322 -0.2342 -0.1334
   41CHL1  H27A 3032   5.257   1.754   4.287 -1.1789  0.4198 -0.6603
   41CHL1  H27B 3033   5.415   1.740   4.381  0.3344  1.4287  0.2616
   41CHL1  H27C 3034   5.300   1.875   4.413  3.9426  3.5819 -0.2292
   42CHL1    C3 3035   6.629   3.234   3.108 -0.0635  0.1067 -0.0917
   42CHL1    H3 3036   6.518   3.222   3.112 -0.3468  2.2898 -0.0024
   42CHL1    O3 3037   6.670   3.249   2.975  0.2081  0.3149  0.6028
   42CHL1   H3' 3038   6.637   3.170   2.932  2.9056 -0.6260  0.0452
   42CHL1    C4 3039   6.672   3.352   3.189 -0.5334 -0.2239 -0.0779
   42CHL1   H4A 3040   6.781   3.361   3.173 -0.5664  0.0244 -0.1713
   42CHL1   H4B 3041   6.627   3.444   3.144  0.8050 -0.6980 -2.5238
   42CHL1    C5 3042   6.642   3.328   3.339  0.4290 -0.1504  0.2149
   42CHL1    C6 3043   6.574   3.420   3.415  0.3512  0.3397 -0.7046
   42CHL1    H6 3044   6.524   3.506   3.368 -0.0632  0.6170  0.2372
   42CHL1    C7 3045   6.569   3.416   3.566 -0.4901  0.1259  0.3899
   42CHL1   H7A 3046   6.594   3.511   3.616  2.3418  0.3865 -1.3278
   42CHL1   H7B 3047   6.463   3.388   3.584 -0.6762  0.1847 -0.5215
   42CHL1    C8 3048   6.653   3.302   3.633 -0.2542 -0.2273  0.6353
   42CHL1    H8 3049   6.753   3.348   3.642 -0.1122 -0.5609  0.7881
   42CHL1   C14 3050   6.603   3.270   3.771  0.8100 -0.3699 -0.2047
   42CHL1   H14 3051   6.498   3.235   3.761  0.1057  1.1287  1.4782
   42CHL1   C15 3052   6.582   3.389   3.865  0.3394  0.0580 -0.2970
   42CHL1  H15A 3053   6.663   3.465   3.872  0.2958  0.1256 -0.5386
   42CHL1  H15B 3054   6.494   3.453   3.844  0.7324  1.1334  1.1282
   42CHL1   C16 3055   6.565   3.323   4.003 -0.2182  0.4705 -0.5542
   42CHL1  H16A 3056   6.643   3.361   4.073  1.2430 -0.0701 -1.8406
   42CHL1  H16B 3057   6.460   3.333   4.040 -0.4385  0.3916 -1.1437
   42CHL1   C17 3058   6.588   3.165   3.983  0.3317 -0.2018 -0.2303
   42CHL1   H17 3059   6.492   3.113   3.965  0.7047 -3.4986  5.1177
   42CHL1   C13 3060   6.665   3.160   3.851 -0.1037  0.1256 -0.2108
   42CHL1   C18 3061   6.818   3.196   3.869 -0.2468 -0.0928  0.1528
   42CHL1  H18A 3062   6.873   3.218   3.775  1.1434  3.1624  1.5718
   42CHL1  H18B 3063   6.831   3.291   3.925  0.1385 -0.4996  0.7668
   42CHL1  H18C 3064   6.865   3.108   3.919 -1.5163 -2.1739 -2.0824
   42CHL1   C12 3065   6.651   3.030   3.763 -0.2177 -0.1116  0.4374
   42CHL1  H12A 3066   6.690   2.941   3.817  2.5111 -0.0920 -1.3224
   42CHL1  H12B 3067   6.543   3.014   3.744 -0.3062  0.8360  0.1003
   42CHL1   C11 3068   6.719   3.057   3.631 -0.0624 -0.0655 -0.5824
   42CHL1  H11A 3069   6.827   3.084   3.638 -0.2546  0.3954  1.1665
   42CHL1  H11B 3070   6.719   2.972   3.560  1.3784 -0.1461 -0.5211
   42CHL1    C9 3071   6.649   3.172   3.549 -0.5509 -0.0029  0.1172
   42CHL1    H9 3072   6.544   3.138   3.534 -1.1394  0.5372  2.5967
   42CHL1   C10 3073   6.708   3.206   3.402  0.3341  0.6305 -0.0479
   42CHL1   C19 3074   6.862   3.214   3.405  0.1853 -0.7264  0.2101
   42CHL1  H19A 3075   6.886   3.249   3.303  0.8361  1.5447  1.0750
   42CHL1  H19B 3076   6.903   3.286   3.479  1.4280  1.9422 -2.8472
   42CHL1  H19C 3077   6.892   3.109   3.426 -3.1744 -1.9018 -0.2913
   42CHL1    C1 3078   6.656   3.088   3.313 -1.1927 -0.3337 -0.8675
   42CHL1   H1A 3079   6.712   3.000   3.350  1.8574  2.1371  0.8856
   42CHL1   H1B 3080   6.548   3.063   3.319 -2.3034  2.9536 -3.8645
   42CHL1    C2 3081   6.698   3.106   3.163 -0.1776  0.3317 -0.2238
   42CHL1   H2A 3082   6.676   3.019   3.097 -0.3344  0.8499 -0.8590
   42CHL1   H2B 3083   6.806   3.128   3.153 -0.2974  2.0671  1.6429
   42CHL1   C20 3084   6.646   3.100   4.108 -0.2772  0.0838  0.6175
   42CHL1   H20 3085   6.747   3.141   4.131 -0.3959  0.6336  0.1870
   42CHL1   C21 3086   6.656   2.943   4.088  0.6913  0.0071 -0.3817
   42CHL1  H21A 3087   6.558   2.904   4.051 -0.3837  2.0048  0.2435
   42CHL1  H21B 3088   6.691   2.893   4.180  0.2977 -0.1364 -0.3081
   42CHL1  H21C 3089   6.735   2.919   4.013 -0.1322 -0.7336 -1.0463
   42CHL1   C22 3090   6.563   3.130   4.228 -0.4109 -0.6063 -0.2885
   42CHL1  H22A 3091   6.510   3.227   4.216  0.1829 -0.3804 -1.2096
   42CHL1  H22B 3092   6.479   3.058   4.239 -0.4567 -0.4453  0.5005
   42CHL1   C23 3093   6.648   3.115   4.357 -0.9147 -1.0704  0.0217
   42CHL1  H23A 3094   6.579   3.137   4.441 -0.0373 -0.3978  0.5816
   42CHL1  H23B 3095   6.682   3.010   4.374 -1.1902 -1.1072  0.3540
   42CHL1   C24 3096   6.765   3.217   4.363  0.5305 -0.0139 -0.0759
   42CHL1  H24A 3097   6.849   3.190   4.295  2.3934  0.2544  1.9905
   42CHL1  H24B 3098   6.722   3.316   4.337 -2.5597 -1.6059 -1.6053
   42CHL1   C25 3099   6.821   3.234   4.512  0.1127  0.3979  0.2794
   42CHL1   H25 3100   6.727   3.230   4.572 -1.3132 -1.2287 -1.8981
   42CHL1   C26 3101   6.914   3.109   4.546 -0.0835 -0.2039 -0.0755
   42CHL1  H26A 3102   6.860   3.013   4.534 -1.2864  0.0274  2.6831
   42CHL1  H26B 3103   7.003   3.115   4.479  0.9900 -0.2410  1.2855
   42CHL1  H26C 3104   6.947   3.108   4.652  1.5025 -0.9156 -0.5449
   42CHL1   C27 3105   6.884   3.376   4.541 -0.5749 -0.6173  0.4661
   42CHL1  H27A 3106   6.825   3.465   4.510  1.7105  1.5249  1.8082
   42CHL1  H27B 3107   6.911   3.382   4.649 -1.9455  1.1123  0.7575
   42CHL1  H27C 3108   6.977   3.377   4.480  0.3328 -0.9468  1.7944
   43CHL1    C3 3109   1.404   3.472   2.939  0.6785  0.5187  0.4968
   43CHL1    H3 3110   1.477   3.389   2.955  1.6601  1.2138 -0.2925
   43CHL1    O3 3111   1.353   3.479   2.806  0.5709 -1.0244  0.2439
   43CHL1   H3' 3112   1.274   3.426   2.802 -0.8694  1.0541 -0.5623
   43CHL1    C4 3113   1.290   3.449   3.038 -0.2286 -0.1601 -0.0362
   43CHL1   H4A 3114   1.208   3.520   3.018  0.4945  0.3775 -1.1951
   43CHL1   H4B 3115   1.243   3.353   3.008 -2.7294  0.4916  1.4893
   43CHL1    C5 3116   1.344   3.439   3.176  0.0369  0.2416 -0.1104
   43CHL1    C6 3117   1.344   3.323   3.250 -0.9027 -0.3120 -0.2306
   43CHL1    H6 3118   1.307   3.230   3.205 -0.2891 -1.7555  2.0832
   43CHL1    C7 3119   1.382   3.323   3.399 -0.3205  0.4078 -0.1516
   43CHL1   H7A 3120   1.328   3.242   3.453 -0.5165  0.9441  0.4788
   43CHL1   H7B 3121   1.485   3.284   3.411 -0.8209 -0.8892  0.1193
   43CHL1    C8 3122   1.367   3.461   3.463 -0.2110 -0.2782  0.0569
   43CHL1    H8 3123   1.260   3.477   3.492 -0.0427  1.2694 -0.0699
   43CHL1   C14 3124   1.435   3.451   3.603  0.2636 -0.3308 -0.6468
   43CHL1   H14 3125   1.542   3.436   3.579  0.5460  1.4105 -0.6219
   43CHL1   C15 3126   1.387   3.336   3.692  0.3302  0.4207 -0.3949
   43CHL1  H15A 3127   1.277   3.335   3.684  0.2761  2.0310 -0.0131
   43CHL1  H15B 3128   1.416   3.232   3.663 -2.6604 -0.3523 -0.8796
   43CHL1   C16 3129   1.441   3.385   3.828 -0.1068 -0.1467 -0.5224
   43CHL1  H16A 3130   1.356   3.367   3.898  0.2031 -0.1208 -0.1342
   43CHL1  H16B 3131   1.528   3.318   3.841 -0.2077 -0.4161 -1.2168
   43CHL1   C17 3132   1.498   3.532   3.819  0.4092 -0.4261  0.5721
   43CHL1   H17 3133   1.606   3.525   3.795 -0.1885 -0.7011 -2.4904
   43CHL1   C13 3134   1.436   3.582   3.681  0.0275  0.7205 -0.1254
   43CHL1   C18 3135   1.293   3.638   3.711 -0.9756 -0.0434  0.0412
   43CHL1  H18A 3136   1.231   3.557   3.753  0.0475 -1.8404 -1.7389
   43CHL1  H18B 3137   1.298   3.729   3.775  1.0066  0.4479 -0.7244
   43CHL1  H18C 3138   1.257   3.663   3.608 -1.5629 -1.3599 -0.0866
   43CHL1   C12 3139   1.515   3.676   3.597  0.1090  0.0053 -0.0626
   43CHL1  H12A 3140   1.498   3.781   3.627  1.6163 -0.0101  0.9453
   43CHL1  H12B 3141   1.618   3.637   3.587  0.0435 -0.0377 -0.5924
   43CHL1   C11 3142   1.462   3.696   3.447  0.2404  0.5968 -0.1160
   43CHL1  H11A 3143   1.370   3.757   3.460 -0.8046 -1.1792  1.3009
   43CHL1  H11B 3144   1.540   3.755   3.395  2.5454 -0.5702  1.8509
   43CHL1    C9 3145   1.440   3.560   3.370 -0.0502 -0.1962 -0.3231
   43CHL1    H9 3146   1.548   3.534   3.368 -0.2851 -1.2083 -1.5792
   43CHL1   C10 3147   1.386   3.578   3.224  0.0524 -0.1939  0.2173
   43CHL1   C19 3148   1.273   3.684   3.227  0.6094 -0.1727  0.7487
   43CHL1  H19A 3149   1.212   3.672   3.319 -1.2148 -1.3685 -0.5572
   43CHL1  H19B 3150   1.318   3.786   3.226 -0.2252  0.2035  0.1917
   43CHL1  H19C 3151   1.214   3.683   3.133 -0.8257  0.9251  1.5852
   43CHL1    C1 3152   1.498   3.626   3.125  0.6113 -0.6917  0.2754
   43CHL1   H1A 3153   1.516   3.734   3.142  1.2687 -0.6464 -0.6386
   43CHL1   H1B 3154   1.592   3.577   3.158  1.2899  0.1837 -0.3166
   43CHL1    C2 3155   1.473   3.607   2.973  0.3622 -0.1482  0.0771
   43CHL1   H2A 3156   1.567   3.617   2.915 -0.2082  1.0719 -0.6703
   43CHL1   H2B 3157   1.408   3.689   2.937 -1.3269 -2.0287 -1.3819
   43CHL1   C20 3158   1.482   3.611   3.947 -0.1841  0.7654  0.3727
   43CHL1   H20 3159   1.374   3.630   3.967  0.0786  0.1689  2.6145
   43CHL1   C21 3160   1.557   3.746   3.920 -0.6422 -0.1524  0.0617
   43CHL1  H21A 3161   1.589   3.796   4.013 -0.9927 -0.2919  0.2596
   43CHL1  H21B 3162   1.509   3.813   3.845 -2.1632 -0.3604  0.8195
   43CHL1  H21C 3163   1.650   3.728   3.862  0.2120  0.1385  1.3192
   43CHL1   C22 3164   1.525   3.526   4.064 -0.2674  0.3306 -0.2271
   43CHL1  H22A 3165   1.450   3.452   4.100  0.6974 -0.7479 -0.3551
   43CHL1  H22B 3166   1.619   3.473   4.037 -0.9635 -1.4862  0.7375
   43CHL1   C23 3167   1.551   3.596   4.198 -0.2072  0.4843  0.1613
   43CHL1  H23A 3168   1.641   3.661   4.187  1.2391 -1.4782 -0.0864
   43CHL1  H23B 3169   1.463   3.654   4.232 -1.8855 -1.7001 -0.2460
   43CHL1   C24 3170   1.580   3.507   4.312 -0.1837 -0.2604 -0.0741
   43CHL1  H24A 3171   1.517   3.417   4.325  0.6334 -0.6856  1.0484
   43CHL1  H24B 3172   1.679   3.467   4.285  1.0214  3.2572 -1.4498
   43CHL1   C25 3173   1.598   3.590   4.444 -0.4982  0.1092  0.0025
   43CHL1   H25 3174   1.660   3.673   4.403 -0.1568 -1.3733 -2.7672
   43CHL1   C26 3175   1.474   3.633   4.513  0.3725 -0.3337  0.3703
   43CHL1  H26A 3176   1.421   3.702   4.444 -0.0825 -3.7602 -3.0361
   43CHL1  H26B 3177   1.407   3.549   4.542  0.2654  0.3095  2.1412
   43CHL1  H26C 3178   1.507   3.675   4.611  1.2822 -3.0979  1.3671
   43CHL1   C27 3179   1.687   3.501   4.543 -0.2782 -0.7708  0.0066
   43CHL1  H27A 3180   1.646   3.404   4.575  0.4870 -0.6036  1.5732
   43CHL1  H27B 3181   1.787   3.486   4.497  0.3913  1.6535  0.4926
   43CHL1  H27C 3182   1.705   3.555   4.638 -0.4927 -2.4375  1.0271
   44CHL1    C3 3183   5.371   3.289   3.017 -0.7082  0.3067  0.5939
   44CHL1    H3 3184   5.447   3.208   3.020  0.3411  1.0064 -2.6836
   44CHL1    O3 3185   5.343   3.302   2.876  0.0284  0.5475 -0.2245
   44CHL1   H3' 3186   5.359   3.214   2.842  2.1386  1.4679 -1.8922
   44CHL1    C4 3187   5.247   3.251   3.096 -0.3977  0.1501 -0.3154
   44CHL1   H4A 3188   5.186   3.342   3.077  0.0992 -0.1437 -4.2263
   44CHL1   H4B 3189   5.194   3.165   3.050 -0.0837 -0.2662  0.0947
   44CHL1    C5 3190   5.275   3.231   3.245 -0.7557  0.1526  0.9672
   44CHL1    C6 3191   5.252   3.113   3.298  1.0569  0.1087 -0.3913
   44CHL1    H6 3192   5.201   3.035   3.240  0.4420 -0.5493  0.9849
   44CHL1    C7 3193   5.284   3.085   3.440  0.2306  0.6424  0.5959
   44CHL1   H7A 3194   5.200   3.031   3.489  1.5502  0.0731  2.3579
   44CHL1   H7B 3195   5.377   3.025   3.445  0.3365  0.7839  0.3116
   44CHL1    C8 3196   5.307   3.215   3.525 -0.8495  0.1168 -0.0112
   44CHL1    H8 3197   5.207   3.264   3.533 -0.8059  0.4021 -1.0991
   44CHL1   C14 3198   5.360   3.184   3.663 -0.5129  0.3681 -0.1769
   44CHL1   H14 3199   5.464   3.145   3.656 -0.7669 -0.9510  2.3185
   44CHL1   C15 3200   5.282   3.080   3.745 -0.1442 -0.6518 -0.3590
   44CHL1  H15A 3201   5.175   3.110   3.747 -0.0958 -0.2364 -2.0161
   44CHL1  H15B 3202   5.312   2.980   3.709 -0.1901 -0.3461 -1.2767
   44CHL1   C16 3203   5.340   3.110   3.884  0.4834 -0.0539 -0.7912
   44CHL1  H16A 3204   5.259   3.145   3.952  0.9375  1.7216 -1.1151
   44CHL1  H16B 3205   5.383   3.015   3.923  0.4969  0.2103 -0.1401
   44CHL1   C17 3206   5.436   3.227   3.877  0.4362  0.1878  0.0702
   44CHL1   H17 3207   5.539   3.197   3.845  0.8439  1.5906 -0.0082
   44CHL1   C13 3208   5.393   3.304   3.750  0.4124 -0.5992  0.1600
   44CHL1   C18 3209   5.260   3.390   3.777 -0.4596 -0.6313  0.0544
   44CHL1  H18A 3210   5.176   3.327   3.814  0.2271 -1.5580  0.0694
   44CHL1  H18B 3211   5.285   3.476   3.843  0.0083 -0.8420  0.1530
   44CHL1  H18C 3212   5.224   3.435   3.681  1.4422  0.2442 -0.2992
   44CHL1   C12 3213   5.498   3.389   3.679 -0.5760  0.7392  0.2407
   44CHL1  H12A 3214   5.532   3.482   3.729  1.2916 -0.5746  1.5346
   44CHL1  H12B 3215   5.591   3.331   3.664  0.0219  1.2614  1.7211
   44CHL1   C11 3216   5.455   3.426   3.537 -0.4328  0.6597  0.1238
   44CHL1  H11A 3217   5.374   3.500   3.554 -1.1205 -0.4627  2.0406
   44CHL1  H11B 3218   5.541   3.474   3.485 -1.5632 -0.1714 -2.7022
   44CHL1    C9 3219   5.399   3.308   3.452  0.1181  0.5646  0.0422
   44CHL1    H9 3220   5.494   3.252   3.441  0.0995  0.9048 -2.4416
   44CHL1   C10 3221   5.343   3.353   3.318 -0.3452 -0.1584 -0.2156
   44CHL1   C19 3222   5.237   3.455   3.345 -0.0287  0.0969  0.0952
   44CHL1  H19A 3223   5.157   3.433   3.420 -1.5157  0.5691 -1.3045
   44CHL1  H19B 3224   5.291   3.543   3.386  0.8966 -1.6874  3.0411
   44CHL1  H19C 3225   5.170   3.483   3.261 -0.5717  1.3775  0.9342
   44CHL1    C1 3226   5.451   3.428   3.229  0.6498  0.2918 -0.2550
   44CHL1   H1A 3227   5.463   3.535   3.256  2.2785  0.1951 -0.4961
   44CHL1   H1B 3228   5.554   3.391   3.245  0.3265 -1.4616 -1.8373
   44CHL1    C2 3229   5.420   3.424   3.076  0.2086 -0.1315 -0.2302
   44CHL1   H2A 3230   5.513   3.440   3.018  0.1970  1.7623  0.2173
   44CHL1   H2B 3231   5.342   3.491   3.036  0.8264  0.0471 -1.1706
   44CHL1   C20 3232   5.445   3.305   4.009  0.1146  0.1985  0.0304
   44CHL1   H20 3233   5.349   3.357   4.030  0.8625  0.7744  2.2806
   44CHL1   C21 3234   5.556   3.412   4.003  0.2167  0.7800 -0.5324
   44CHL1  H21A 3235   5.556   3.474   4.095 -0.9245  2.0429 -1.3511
   44CHL1  H21B 3236   5.538   3.482   3.919  1.0909 -1.1980 -2.4892
   44CHL1  H21C 3237   5.650   3.361   3.974 -0.2818  0.2580 -1.2695
   44CHL1   C22 3238   5.447   3.214   4.135 -0.5332 -0.5621 -0.3337
   44CHL1  H22A 3239   5.445   3.280   4.224 -0.0700 -0.5938 -0.2997
   44CHL1  H22B 3240   5.355   3.152   4.144 -0.8855  0.0306  0.2003
   44CHL1   C23 3241   5.581   3.132   4.136  0.5324  0.6513 -0.6308
   44CHL1  H23A 3242   5.596   3.070   4.045 -0.0508 -1.3777  0.5839
   44CHL1  H23B 3243   5.666   3.203   4.131  1.5245 -0.5621 -1.2281
   44CHL1   C24 3244   5.587   3.055   4.268 -0.3893  0.3411  0.1097
   44CHL1  H24A 3245   5.561   3.124   4.351 -0.4929  2.7359 -1.8058
   44CHL1  H24B 3246   5.509   2.976   4.267 -0.2584  0.1963 -1.2708
   44CHL1   C25 3247   5.714   2.979   4.296  0.0715  0.4653  0.0029
   44CHL1   H25 3248   5.697   2.896   4.369  3.7113  0.2000  0.7359
   44CHL1   C26 3249   5.747   2.889   4.168  0.2171  0.0624 -1.0317
   44CHL1  H26A 3250   5.785   2.962   4.094 -0.1543 -0.9903 -2.2982
   44CHL1  H26B 3251   5.831   2.822   4.196 -0.2527  0.1562  0.7132
   44CHL1  H26C 3252   5.651   2.848   4.130  0.0318  0.8159 -1.3923
   44CHL1   C27 3253   5.831   3.064   4.337 -0.2954 -0.0007  1.0006
   44CHL1  H27A 3254   5.928   3.009   4.341 -0.3837 -0.2019  0.4130
   44CHL1  H27B 3255   5.848   3.145   4.263 -1.2997  0.2322  1.0111
   44CHL1  H27C 3256   5.813   3.114   4.435 -2.4196 -1.4577  1.4091
   45CHL1    C3 3257   0.462   2.547   2.949  0.3415  0.0826 -0.0269
   45CHL1    H3 3258   0.543   2.612   2.989 -0.7308  0.3207  1.8586
   45CHL1    O3 3259   0.424   2.573   2.816 -0.0678 -0.2536  0.6288
   45CHL1   H3' 3260   0.340   2.618   2.824 -0.4560 -0.5741 -1.2182
   45CHL1    C4 3261   0.501   2.398   2.954 -0.0543 -0.2983  0.4468
   45CHL1   H4A 3262   0.417   2.332   2.926  0.4128  0.4686 -3.3213
   45CHL1   H4B 3263   0.578   2.377   2.878 -1.3705 -2.9342 -0.2481
   45CHL1    C5 3264   0.544   2.376   3.094 -0.3127  1.3529  0.2838
   45CHL1    C6 3265   0.675   2.339   3.111  0.5225 -0.2954 -0.1012
   45CHL1    H6 3266   0.731   2.320   3.018 -1.5397 -1.2277 -1.2357
   45CHL1    C7 3267   0.746   2.328   3.247  0.0522  0.3252  0.5651
   45CHL1   H7A 3268   0.807   2.235   3.246 -0.0094  0.2760 -1.0412
   45CHL1   H7B 3269   0.819   2.410   3.266  3.1127 -1.8320 -0.9516
   45CHL1    C8 3270   0.638   2.314   3.356 -0.7687 -0.2920  0.3507
   45CHL1    H8 3271   0.596   2.212   3.342  0.5224 -0.7962 -0.0744
   45CHL1   C14 3272   0.703   2.332   3.495 -0.1345  1.0507 -0.0331
   45CHL1   H14 3273   0.732   2.439   3.497 -0.5151  1.2356 -2.2075
   45CHL1   C15 3274   0.823   2.245   3.528 -0.7123  0.5585  0.0278
   45CHL1  H15A 3275   0.797   2.143   3.493  1.5166  0.4740 -1.6300
   45CHL1  H15B 3276   0.917   2.274   3.477 -0.0522 -1.6689 -0.0926
   45CHL1   C16 3277   0.828   2.246   3.686  0.1636  0.0035  0.3113
   45CHL1  H16A 3278   0.847   2.141   3.715  4.4765  0.7148  0.7473
   45CHL1  H16B 3279   0.915   2.308   3.717  0.9685  0.3030 -2.2969
   45CHL1   C17 3280   0.693   2.300   3.731 -0.1456  0.3740 -0.2380
   45CHL1   H17 3281   0.706   2.404   3.770  0.3135 -0.1656  1.1104
   45CHL1   C13 3282   0.599   2.307   3.605  0.4721  0.3343  0.2696
   45CHL1   C18 3283   0.519   2.174   3.583  0.4797  0.4561  0.2642
   45CHL1  H18A 3284   0.443   2.151   3.661  1.5838  0.2527  1.3197
   45CHL1  H18B 3285   0.459   2.189   3.491 -0.4842  3.9166  1.3035
   45CHL1  H18C 3286   0.598   2.095   3.582  1.8998  1.8187 -0.1048
   45CHL1   C12 3287   0.500   2.418   3.606  0.7670 -0.5097  0.3408
   45CHL1  H12A 3288   0.435   2.429   3.695  0.9860 -0.5483  0.5074
   45CHL1  H12B 3289   0.569   2.505   3.612  0.9715 -0.5084 -1.3472
   45CHL1   C11 3290   0.426   2.427   3.474  0.3352 -0.5812  0.3295
   45CHL1  H11A 3291   0.353   2.343   3.469  0.6080 -0.7969 -0.0217
   45CHL1  H11B 3292   0.371   2.524   3.470  0.9524 -0.2145  0.7824
   45CHL1    C9 3293   0.529   2.423   3.346  0.2135  0.0753 -0.7795
   45CHL1    H9 3294   0.580   2.522   3.350 -0.8355  0.5992  0.2708
   45CHL1   C10 3295   0.451   2.416   3.211 -0.3498  0.9635  0.3397
   45CHL1   C19 3296   0.338   2.308   3.217  0.0508 -0.4961 -0.4868
   45CHL1  H19A 3297   0.372   2.220   3.274 -0.4777 -0.3300  0.0924
   45CHL1  H19B 3298   0.248   2.345   3.270  0.9490 -0.7328  1.2855
   45CHL1  H19C 3299   0.313   2.272   3.115  1.9582 -1.5951 -0.6099
   45CHL1    C1 3300   0.385   2.553   3.192 -0.1559 -0.3621 -0.4188
   45CHL1   H1A 3301   0.292   2.556   3.253 -1.1699 -2.6108 -1.7242
   45CHL1   H1B 3302   0.452   2.634   3.227  0.4147 -1.1529  0.3450
   45CHL1    C2 3303   0.342   2.580   3.041  0.5917  0.0150 -0.3694
   45CHL1   H2A 3304   0.323   2.689   3.027 -0.5134 -0.1083  0.0778
   45CHL1   H2B 3305   0.252   2.519   3.019  0.8757 -0.1537 -1.0907
   45CHL1   C20 3306   0.647   2.212   3.856  0.1056 -0.3405  0.1025
   45CHL1   H20 3307   0.635   2.106   3.825  0.7122 -0.2325 -0.5283
   45CHL1   C21 3308   0.510   2.270   3.904  0.2913  0.0525  0.3693
   45CHL1  H21A 3309   0.529   2.378   3.925  0.4144 -0.2408  1.8968
   45CHL1  H21B 3310   0.482   2.222   4.001  0.2339 -1.1523 -0.2301
   45CHL1  H21C 3311   0.422   2.263   3.837 -1.0099  0.9839  1.8844
   45CHL1   C22 3312   0.743   2.208   3.975 -0.2003  0.5697 -0.2536
   45CHL1  H22A 3313   0.844   2.179   3.938 -0.3086  1.5414 -1.3841
   45CHL1  H22B 3314   0.745   2.314   4.009 -0.8010 -0.0929  1.9813
   45CHL1   C23 3315   0.709   2.130   4.100 -0.2197 -0.3125 -0.3963
   45CHL1  H23A 3316   0.625   2.181   4.152 -0.1951 -1.2586  0.6253
   45CHL1  H23B 3317   0.675   2.030   4.067 -1.3082 -0.1330  0.1368
   45CHL1   C24 3318   0.828   2.127   4.196 -0.4365 -0.3015  0.7944
   45CHL1  H24A 3319   0.921   2.103   4.140 -0.6427 -2.1244  1.1758
   45CHL1  H24B 3320   0.850   2.228   4.236  2.5555 -0.7386  0.4824
   45CHL1   C25 3321   0.806   2.043   4.322 -0.2988  0.7603 -0.6074
   45CHL1   H25 3322   0.774   1.939   4.299  1.3563 -0.5130  2.2864
   45CHL1   C26 3323   0.942   2.026   4.401  0.0970  0.1098  0.5975
   45CHL1  H26A 3324   1.020   1.971   4.344  0.1684  0.9914 -0.1902
   45CHL1  H26B 3325   0.977   2.129   4.421  0.8843  0.2265 -1.1568
   45CHL1  H26C 3326   0.930   1.968   4.495 -2.0961 -0.0700  0.2696
   45CHL1   C27 3327   0.700   2.105   4.417 -0.4303 -0.4879  0.1151
   45CHL1  H27A 3328   0.602   2.106   4.365 -0.3418 -1.1945 -0.0722
   45CHL1  H27B 3329   0.691   2.042   4.508 -2.4929 -0.3043  0.0829
   45CHL1  H27C 3330   0.731   2.210   4.440 -1.5259  0.3982 -2.1433
   46CHL1    C3 3331   5.635   3.067   3.195  0.2451 -0.2711  0.4880
   46CHL1    H3 3332   5.547   3.121   3.237 -0.6482 -1.5814  0.3676
   46CHL1    O3 3333   5.608   3.035   3.058 -0.9233  0.4803 -0.1092
   46CHL1   H3' 3334   5.693   3.026   3.015 -0.8401 -1.4851  0.3769
   46CHL1    C4 3335   5.754   3.161   3.189 -0.2888  0.4682  0.5620
   46CHL1   H4A 3336   5.837   3.106   3.140 -0.6621  1.1169 -0.8404
   46CHL1   H4B 3337   5.729   3.246   3.122 -0.8018 -0.2845 -0.2129
   46CHL1    C5 3338   5.807   3.206   3.329 -0.2768  0.2879  0.3197
   46CHL1    C6 3339   5.824   3.333   3.366  0.5965  0.1721 -0.4435
   46CHL1    H6 3340   5.807   3.410   3.289 -1.9705 -1.4463 -1.6388
   46CHL1    C7 3341   5.878   3.377   3.499 -0.3922 -0.6573  0.4654
   46CHL1   H7A 3342   5.950   3.459   3.476 -2.7622  1.5899  0.5274
   46CHL1   H7B 3343   5.804   3.427   3.565 -1.0328  1.2866 -1.5640
   46CHL1    C8 3344   5.941   3.255   3.577 -0.4047  0.1243 -0.7026
   46CHL1    H8 3345   6.036   3.232   3.524  1.0460 -1.7744  2.4721
   46CHL1   C14 3346   5.959   3.290   3.724 -0.2050 -0.2687  0.3810
   46CHL1   H14 3347   5.854   3.302   3.759 -1.1370  1.7672 -2.7708
   46CHL1   C15 3348   6.025   3.429   3.757  0.5601  0.0764  0.1875
   46CHL1  H15A 3349   6.120   3.431   3.699  1.5058  0.1900  1.6858
   46CHL1  H15B 3350   5.962   3.514   3.723 -0.4721 -0.2847  1.1293
   46CHL1   C16 3351   6.049   3.423   3.910 -0.1702  0.0210  0.2615
   46CHL1  H16A 3352   6.149   3.458   3.943 -0.8242  1.2383  1.0406
   46CHL1  H16B 3353   5.976   3.480   3.970 -0.4550 -1.6116  1.5529
   46CHL1   C17 3354   6.033   3.272   3.948 -0.4574 -0.4825  0.2194
   46CHL1   H17 3355   5.933   3.246   3.990 -1.5938 -2.1527 -3.1803
   46CHL1   C13 3356   6.027   3.186   3.814 -1.1481 -0.1881 -0.2311
   46CHL1   C18 3357   6.167   3.161   3.752 -0.7358 -0.1916 -0.1199
   46CHL1  H18A 3358   6.222   3.257   3.768 -1.1852 -0.0288  0.5117
   46CHL1  H18B 3359   6.219   3.071   3.792  1.3564  1.9567  2.4319
   46CHL1  H18C 3360   6.169   3.132   3.645  0.7213 -1.5062  0.2288
   46CHL1   C12 3361   5.931   3.062   3.811  0.3134  0.6146 -0.3955
   46CHL1  H12A 3362   5.975   2.978   3.869  3.3890  3.1752  1.3538
   46CHL1  H12B 3363   5.827   3.078   3.847 -0.4472 -2.0446 -1.2110
   46CHL1   C11 3364   5.913   3.020   3.659 -1.1871  0.1381 -0.3742
   46CHL1  H11A 3365   6.013   2.977   3.634 -0.4339  0.8974  1.1944
   46CHL1  H11B 3366   5.846   2.932   3.664  1.4620 -1.9509  2.1857
   46CHL1    C9 3367   5.860   3.132   3.576 -0.3881  0.0546 -0.8560
   46CHL1    H9 3368   5.759   3.157   3.613  0.8309  2.7182  0.9433
   46CHL1   C10 3369   5.839   3.086   3.426 -0.9339 -0.4047  0.6803
   46CHL1   C19 3370   5.956   3.013   3.381 -0.0398 -0.1146 -0.0087
   46CHL1  H19A 3371   5.960   2.918   3.439 -0.1726  0.2072  0.5404
   46CHL1  H19B 3372   5.940   2.986   3.275  0.9750  0.8677 -0.4324
   46CHL1  H19C 3373   6.054   3.061   3.400  0.0235  0.5738 -1.9091
   46CHL1    C1 3374   5.717   2.991   3.425  0.5059  0.2386 -0.0303
   46CHL1   H1A 3375   5.754   2.897   3.472 -0.9000 -0.9652 -1.2530
   46CHL1   H1B 3376   5.640   3.047   3.482  0.1994  1.7071 -1.8086
   46CHL1    C2 3377   5.662   2.942   3.287 -0.2657  0.0337 -0.0423
   46CHL1   H2A 3378   5.575   2.873   3.294 -0.4515  0.1997 -0.5998
   46CHL1   H2B 3379   5.738   2.876   3.240  0.4943 -0.6828  2.0924
   46CHL1   C20 3380   6.136   3.231   4.060 -0.3236 -0.0530  0.2779
   46CHL1   H20 3381   6.234   3.267   4.022 -0.6367  0.5035 -0.0281
   46CHL1   C21 3382   6.128   3.075   4.082 -0.1734 -0.4167 -0.4527
   46CHL1  H21A 3383   6.152   3.030   3.983  0.4584  0.3768 -0.6769
   46CHL1  H21B 3384   6.026   3.052   4.117  0.0282  0.5127  0.8016
   46CHL1  H21C 3385   6.206   3.048   4.157 -1.3451 -1.9437  0.2644
   46CHL1   C22 3386   6.108   3.308   4.188  0.1516 -0.4971  0.4715
   46CHL1  H22A 3387   6.095   3.414   4.157 -0.4301  0.1997  2.8814
   46CHL1  H22B 3388   6.011   3.265   4.224 -0.2021 -2.1022 -2.1178
   46CHL1   C23 3389   6.194   3.277   4.307  0.2001 -0.4619 -0.2893
   46CHL1  H23A 3390   6.173   3.174   4.344 -0.5978  0.2124  1.2327
   46CHL1  H23B 3391   6.298   3.271   4.271 -0.5835  1.1066 -3.1094
   46CHL1   C24 3392   6.172   3.386   4.418  0.5864 -0.5935  0.5776
   46CHL1  H24A 3393   6.198   3.484   4.371  0.5610  0.0313  1.8175
   46CHL1  H24B 3394   6.063   3.395   4.438  0.2635  1.0000 -1.4792
   46CHL1   C25 3395   6.262   3.376   4.542 -0.0456 -0.1452  0.1728
   46CHL1   H25 3396   6.225   3.456   4.610 -0.9255  1.7650 -2.3958
   46CHL1   C26 3397   6.249   3.239   4.612 -0.1986 -0.5344 -0.2203
   46CHL1  H26A 3398   6.217   3.243   4.719  0.5638 -1.1904  0.0473
   46CHL1  H26B 3399   6.192   3.158   4.562 -0.9765 -1.9014  2.6426
   46CHL1  H26C 3400   6.345   3.184   4.620  0.0430 -0.0009  0.7991
   46CHL1   C27 3401   6.411   3.402   4.505 -0.3874  0.4346 -0.6307
   46CHL1  H27A 3402   6.440   3.336   4.421  2.2904  0.8128 -0.1116
   46CHL1  H27B 3403   6.427   3.509   4.478 -2.9796  0.4998 -2.2545
   46CHL1  H27C 3404   6.483   3.386   4.588 -2.1708 -2.6722  0.4698
   47CHL1    C3 3405   1.778   3.821   2.834  0.0600  0.9333 -0.5300
   47CHL1    H3 3406   1.671   3.802   2.858  0.5977 -1.4212  0.2403
   47CHL1    O3 3407   1.783   3.859   2.699  0.2393  0.2417 -0.0869
   47CHL1   H3' 3408   1.876   3.855   2.674  0.1380  0.4550 -0.5037
   47CHL1    C4 3409   1.831   3.929   2.926 -0.0626  0.6035  0.3236
   47CHL1   H4A 3410   1.928   3.976   2.899  1.7440 -2.3887  1.0222
   47CHL1   H4B 3411   1.749   4.003   2.922 -2.3296 -1.6987  1.1330
   47CHL1    C5 3412   1.847   3.897   3.072 -0.2382 -0.3769  0.6308
   47CHL1    C6 3413   1.790   3.972   3.166 -0.9131  0.2984 -0.1698
   47CHL1    H6 3414   1.733   4.063   3.145 -2.3873 -0.3797  0.7576
   47CHL1    C7 3415   1.795   3.946   3.312 -0.0335  0.1879  0.1641
   47CHL1   H7A 3416   1.811   4.042   3.364  2.0124  0.3969 -0.7367
   47CHL1   H7B 3417   1.694   3.918   3.346 -0.8316  1.8967 -0.6797
   47CHL1    C8 3418   1.893   3.839   3.342  0.0590 -0.2483  0.3199
   47CHL1    H8 3419   1.992   3.889   3.343 -0.0679 -0.0034  0.5950
   47CHL1   C14 3420   1.863   3.789   3.483 -0.4517 -0.1747  0.7531
   47CHL1   H14 3421   1.765   3.738   3.470 -0.7295  0.7749 -1.3851
   47CHL1   C15 3422   1.860   3.898   3.590 -0.0729 -0.9474  0.5243
   47CHL1  H15A 3423   1.949   3.960   3.568 -0.4582 -0.2347  0.9545
   47CHL1  H15B 3424   1.771   3.964   3.592 -1.1952 -2.2574 -1.7880
   47CHL1   C16 3425   1.872   3.816   3.715  0.1475  0.3666 -0.3905
   47CHL1  H16A 3426   1.958   3.840   3.782 -0.8595 -0.7862  1.4103
   47CHL1  H16B 3427   1.786   3.831   3.784 -0.2691 -0.8926 -0.6096
   47CHL1   C17 3428   1.907   3.664   3.676 -0.0414  0.2610 -1.0676
   47CHL1   H17 3429   1.807   3.615   3.670 -0.5461  1.1632 -0.3410
   47CHL1   C13 3430   1.956   3.674   3.532  0.3494  0.0799 -0.9313
   47CHL1   C18 3431   2.106   3.722   3.545 -0.2469 -0.1128  0.0789
   47CHL1  H18A 3432   2.179   3.641   3.562  0.2179 -0.0574 -1.5402
   47CHL1  H18B 3433   2.137   3.771   3.450  2.1045 -0.2667  0.7240
   47CHL1  H18C 3434   2.117   3.792   3.631 -0.5713  0.5237 -0.3814
   47CHL1   C12 3435   1.941   3.560   3.438 -0.3909 -0.5213  0.4930
   47CHL1  H12A 3436   2.023   3.486   3.451 -0.0986 -0.3916 -0.5197
   47CHL1  H12B 3437   1.836   3.526   3.445 -0.1522 -1.0422  1.9389
   47CHL1   C11 3438   1.974   3.605   3.297  0.2169 -0.0150 -0.2256
   47CHL1  H11A 3439   2.082   3.630   3.287  0.5176 -0.8033  0.8680
   47CHL1  H11B 3440   1.966   3.513   3.235 -0.0830  1.0532 -1.8318
   47CHL1    C9 3441   1.890   3.725   3.244  0.2430 -0.3845 -0.2217
   47CHL1    H9 3442   1.787   3.684   3.251 -0.7500  1.3221 -3.1502
   47CHL1   C10 3443   1.915   3.767   3.101  0.8066  0.0054 -0.0773
   47CHL1   C19 3444   2.065   3.789   3.077  0.0497 -0.1535  0.0904
   47CHL1  H19A 3445   2.092   3.810   2.971  2.7002  0.5033  0.8090
   47CHL1  H19B 3446   2.101   3.874   3.137 -2.7057 -0.1244  1.8760
   47CHL1  H19C 3447   2.117   3.693   3.098 -1.4826 -1.0791 -0.1939
   47CHL1    C1 3448   1.861   3.654   3.009 -0.4866  0.1793  1.1215
   47CHL1   H1A 3449   1.925   3.564   3.015 -0.8625 -0.0480  1.9498
   47CHL1   H1B 3450   1.757   3.628   3.041 -1.5884  0.4538 -1.8855
   47CHL1    C2 3451   1.847   3.688   2.859 -0.0868 -0.5225 -0.0483
   47CHL1   H2A 3452   1.795   3.600   2.816  1.0914 -0.0327 -2.6857
   47CHL1   H2B 3453   1.950   3.685   2.817  1.3497  2.1887  2.8463
   47CHL1   C20 3454   1.985   3.588   3.784 -0.0767 -1.0704  0.2458
   47CHL1   H20 3455   2.095   3.605   3.778 -0.2175  0.0893  0.7565
   47CHL1   C21 3456   1.970   3.438   3.755 -0.5636 -0.3197 -0.0798
   47CHL1  H21A 3457   2.002   3.405   3.654 -2.3140 -0.9014 -0.4948
   47CHL1  H21B 3458   1.863   3.410   3.772 -0.6909  0.3725  0.3056
   47CHL1  H21C 3459   2.025   3.370   3.824  1.7907  1.4721 -0.0656
   47CHL1   C22 3460   1.935   3.627   3.925 -0.4602  0.0618  0.3099
   47CHL1  H22A 3461   1.972   3.728   3.949  0.3015  0.1328 -1.0526
   47CHL1  H22B 3462   1.827   3.611   3.945 -0.2763 -0.8634  0.6003
   47CHL1   C23 3463   2.011   3.537   4.026  0.1483 -0.6550  0.1297
   47CHL1  H23A 3464   1.961   3.438   4.018 -0.2541 -0.3488 -1.7208
   47CHL1  H23B 3465   2.115   3.523   3.991  1.0659  1.6296  1.7172
   47CHL1   C24 3466   2.003   3.592   4.173 -0.1956  0.2869  0.3013
   47CHL1  H24A 3467   2.055   3.690   4.179  0.1556  0.1275 -0.1189
   47CHL1  H24B 3468   1.899   3.599   4.213 -0.4021 -2.1155  0.3209
   47CHL1   C25 3469   2.077   3.510   4.283 -0.1221  0.3385 -0.1214
   47CHL1   H25 3470   2.074   3.570   4.376 -2.4783 -1.4624  1.1051
   47CHL1   C26 3471   1.997   3.379   4.315 -0.4984 -0.3172  0.3937
   47CHL1  H26A 3472   2.062   3.316   4.380  0.1419 -1.0631 -0.9368
   47CHL1  H26B 3473   1.894   3.384   4.357  0.0163  0.2717  1.6532
   47CHL1  H26C 3474   1.999   3.321   4.220 -0.3401 -1.1234  0.8792
   47CHL1   C27 3475   2.227   3.486   4.246 -0.2800 -0.4794  0.7012
   47CHL1  H27A 3476   2.284   3.461   4.338 -1.9669  0.1905  1.9929
   47CHL1  H27B 3477   2.225   3.404   4.171  0.1886  0.2798 -0.1588
   47CHL1  H27C 3478   2.268   3.583   4.212  0.7523  0.1959  3.5829
   48CHL1    C3 3479   6.388   1.833   3.223 -0.3002  0.3188 -0.0034
   48CHL1    H3 3480   6.406   1.937   3.259 -1.1231 -0.2504  2.1828
   48CHL1    O3 3481   6.363   1.850   3.084  0.1251  0.6195  0.4188
   48CHL1   H3' 3482   6.323   1.769   3.052  1.6009  0.7435 -2.0020
   48CHL1    C4 3483   6.519   1.755   3.245 -0.2818 -0.0793  0.5283
   48CHL1   H4A 3484   6.509   1.657   3.195 -1.9991 -0.3282  1.2518
   48CHL1   H4B 3485   6.597   1.816   3.195 -0.1664  1.3621  2.3185
   48CHL1    C5 3486   6.544   1.739   3.395 -0.1754 -0.0080  0.5803
   48CHL1    C6 3487   6.649   1.789   3.457  0.0278  0.7688 -0.0601
   48CHL1    H6 3488   6.735   1.826   3.399  1.0721 -1.4832 -0.0871
   48CHL1    C7 3489   6.686   1.771   3.598  0.4283  1.1186 -0.0129
   48CHL1   H7A 3490   6.791   1.738   3.616  1.2695  2.4326 -2.0827
   48CHL1   H7B 3491   6.664   1.867   3.650  2.4042  0.8444  1.4558
   48CHL1    C8 3492   6.596   1.665   3.662 -1.2175  0.4554 -0.2805
   48CHL1    H8 3493   6.637   1.565   3.638 -1.8979 -0.1622  1.0395
   48CHL1   C14 3494   6.608   1.690   3.811 -0.4391  0.4015 -0.7781
   48CHL1   H14 3495   6.560   1.790   3.822  0.1464  0.6970 -0.8609
   48CHL1   C15 3496   6.749   1.699   3.878 -0.6225  0.4130  0.2469
   48CHL1  H15A 3497   6.812   1.616   3.839 -2.3251 -0.3022 -1.0903
   48CHL1  H15B 3498   6.786   1.799   3.850 -0.7692  0.8482  1.5470
   48CHL1   C16 3499   6.713   1.681   4.023  0.6533 -0.2509  0.4099
   48CHL1  H16A 3500   6.772   1.590   4.048  0.2413 -0.4413  0.6904
   48CHL1  H16B 3501   6.744   1.771   4.080 -0.9435  2.4924 -2.7281
   48CHL1   C17 3502   6.563   1.649   4.036 -0.0415 -0.2086  0.4861
   48CHL1   H17 3503   6.514   1.749   4.044  1.3128  0.4883  0.2347
   48CHL1   C13 3504   6.523   1.594   3.895 -1.3136 -0.8508 -0.0510
   48CHL1   C18 3505   6.579   1.446   3.869  1.1927 -0.3972 -0.6485
   48CHL1  H18A 3506   6.522   1.378   3.936 -0.2027  2.2869  1.0903
   48CHL1  H18B 3507   6.567   1.413   3.764 -3.1540 -2.6943  0.3488
   48CHL1  H18C 3508   6.682   1.432   3.909 -0.1959 -1.8253  2.8226
   48CHL1   C12 3509   6.376   1.620   3.857  0.0383  0.2361  0.0120
   48CHL1  H12A 3510   6.312   1.545   3.907  0.7400 -1.6982 -1.8268
   48CHL1  H12B 3511   6.346   1.723   3.886 -1.6639 -1.2421  4.2708
   48CHL1   C11 3512   6.354   1.591   3.709 -0.2394  0.5087 -0.1980
   48CHL1  H11A 3513   6.353   1.483   3.681 -1.7970 -0.0117  1.6622
   48CHL1  H11B 3514   6.251   1.625   3.684  0.4852  1.8343 -1.5417
   48CHL1    C9 3515   6.450   1.675   3.621  0.1660  0.4966 -0.2703
   48CHL1    H9 3516   6.430   1.779   3.653 -0.1737  0.1127  0.8312
   48CHL1   C10 3517   6.434   1.665   3.467  0.1055 -0.3410 -1.3083
   48CHL1   C19 3518   6.428   1.515   3.430 -0.2587 -0.0453  0.0685
   48CHL1  H19A 3519   6.347   1.461   3.484 -0.9585 -0.1527 -1.0407
   48CHL1  H19B 3520   6.402   1.515   3.322  1.8841  0.7524 -0.4944
   48CHL1  H19C 3521   6.527   1.471   3.453  0.2555  0.8241 -0.4537
   48CHL1    C1 3522   6.296   1.727   3.436 -0.4509 -0.7655 -0.6911
   48CHL1   H1A 3523   6.210   1.659   3.458  0.0503 -1.5248 -1.0280
   48CHL1   H1B 3524   6.283   1.819   3.497  0.3682 -1.0813 -0.0344
   48CHL1    C2 3525   6.274   1.756   3.289  0.3667  0.6561  0.3394
   48CHL1   H2A 3526   6.173   1.800   3.280 -0.6357 -1.1237  1.9478
   48CHL1   H2B 3527   6.271   1.663   3.227  2.4494  0.7509  0.0163
   48CHL1   C20 3528   6.537   1.577   4.158 -0.5046  0.3399  0.4839
   48CHL1   H20 3529   6.577   1.474   4.145 -0.5990  0.2890  0.5857
   48CHL1   C21 3530   6.389   1.560   4.182  0.0137  0.6208 -0.4889
   48CHL1  H21A 3531   6.355   1.521   4.280  0.7491  0.2952 -0.3570
   48CHL1  H21B 3532   6.340   1.495   4.105 -1.2931  0.3472  0.5434
   48CHL1  H21C 3533   6.341   1.659   4.166  0.3947  1.0877  1.1418
   48CHL1   C22 3534   6.615   1.622   4.284  0.3484 -0.8474  0.7078
   48CHL1  H22A 3535   6.582   1.555   4.367 -0.3896  0.0744  1.1802
   48CHL1  H22B 3536   6.723   1.602   4.266  0.2061 -0.1426 -1.1736
   48CHL1   C23 3537   6.589   1.767   4.324  0.2802 -1.1166 -0.7054
   48CHL1  H23A 3538   6.604   1.839   4.241  0.9554 -0.7964 -0.3065
   48CHL1  H23B 3539   6.483   1.762   4.356  0.4202  2.2784  0.5985
   48CHL1   C24 3540   6.673   1.805   4.448 -0.1673 -0.1984 -0.2994
   48CHL1  H24A 3541   6.682   1.719   4.517 -0.8512  1.1224  1.5326
   48CHL1  H24B 3542   6.776   1.829   4.416  1.0074 -1.9271  1.9022
   48CHL1   C25 3543   6.616   1.917   4.531  1.1703  0.1016 -0.4361
   48CHL1   H25 3544   6.506   1.912   4.544  0.7989  3.1634 -1.4896
   48CHL1   C26 3545   6.691   1.932   4.666  0.4566 -0.3814 -0.2718
   48CHL1  H26A 3546   6.700   1.829   4.707 -0.9982 -1.0241 -1.4845
   48CHL1  H26B 3547   6.793   1.975   4.658 -0.3155  2.0145  1.5606
   48CHL1  H26C 3548   6.635   1.997   4.737 -0.3788 -0.6542 -0.6632
   48CHL1   C27 3549   6.626   2.059   4.471  0.9475  1.2126  0.2784
   48CHL1  H27A 3550   6.733   2.088   4.473  0.8141  1.7890 -0.5509
   48CHL1  H27B 3551   6.597   2.070   4.364  3.8865 -1.2425 -0.9074
   48CHL1  H27C 3552   6.564   2.130   4.530  0.5948  1.2886 -0.1796
   49CHL1    C3 3553   4.852   4.424   2.691 -0.5724 -0.4475 -0.4134
   49CHL1    H3 3554   4.857   4.317   2.721  3.1640  0.0474  1.2420
   49CHL1    O3 3555   4.853   4.432   2.551 -0.2091 -0.4149 -0.2290
   49CHL1   H3' 3556   4.886   4.522   2.540 -1.0287  0.0213  0.7410
   49CHL1    C4 3557   4.728   4.484   2.751  0.2216 -0.6280  0.5977
   49CHL1   H4A 3558   4.711   4.583   2.704 -0.0429 -0.6127  0.7229
   49CHL1   H4B 3559   4.648   4.415   2.716 -0.4083 -0.3399  1.4156
   49CHL1    C5 3560   4.739   4.500   2.902  0.9360 -0.3172  0.9112
   49CHL1    C6 3561   4.630   4.465   2.976  0.1111  0.4223 -0.7303
   49CHL1    H6 3562   4.547   4.410   2.929 -0.4468 -0.5276  1.2564
   49CHL1    C7 3563   4.609   4.480   3.126  0.0892 -0.2281  0.4821
   49CHL1   H7A 3564   4.510   4.529   3.132  0.6407  1.0617 -0.3876
   49CHL1   H7B 3565   4.620   4.379   3.171  3.5205 -0.1169  0.1936
   49CHL1    C8 3566   4.714   4.585   3.174 -1.1472 -0.6153  0.1807
   49CHL1    H8 3567   4.689   4.685   3.133  1.5742  0.6170  1.3204
   49CHL1   C14 3568   4.715   4.592   3.319  0.1399 -0.3487  0.0267
   49CHL1   H14 3569   4.751   4.492   3.351 -0.2534 -0.5151 -0.0463
   49CHL1   C15 3570   4.578   4.596   3.397  0.3353  0.4924  0.0576
   49CHL1  H15A 3571   4.517   4.679   3.355 -1.5817  0.1379  1.9767
   49CHL1  H15B 3572   4.513   4.507   3.399 -0.4097  0.9724 -1.5522
   49CHL1   C16 3573   4.616   4.640   3.543  0.7392 -0.0265  0.2735
   49CHL1  H16A 3574   4.566   4.735   3.571 -0.6527 -0.8053  0.5285
   49CHL1  H16B 3575   4.593   4.564   3.621  1.8327  0.3664  1.0184
   49CHL1   C17 3576   4.768   4.663   3.539  0.0495  0.9449 -0.0961
   49CHL1   H17 3577   4.811   4.567   3.575  3.8102  2.9939  1.3670
   49CHL1   C13 3578   4.810   4.690   3.393 -0.3447  0.1617  0.1917
   49CHL1   C18 3579   4.779   4.837   3.346  0.5019  0.0852 -0.0809
   49CHL1  H18A 3580   4.858   4.901   3.390  0.6989  0.5886 -1.1288
   49CHL1  H18B 3581   4.795   4.857   3.238  2.5160  1.0425  0.3565
   49CHL1  H18C 3582   4.682   4.875   3.385 -0.1735 -2.1557  0.5999
   49CHL1   C12 3583   4.948   4.642   3.351  0.2505 -0.0954 -0.1860
   49CHL1  H12A 3584   5.021   4.703   3.409  0.1226  0.1054 -0.2325
   49CHL1  H12B 3585   4.965   4.537   3.382 -2.6052 -0.3959  0.6963
   49CHL1   C11 3586   4.966   4.632   3.192 -0.3730 -0.0668 -0.6425
   49CHL1  H11A 3587   4.978   4.734   3.150  0.3054 -0.1296 -0.6093
   49CHL1  H11B 3588   5.062   4.578   3.174  0.8247  1.2225  1.4771
   49CHL1    C9 3589   4.857   4.554   3.118 -0.1020 -0.1548 -0.0303
   49CHL1    H9 3590   4.879   4.448   3.141  1.1756  0.4163  1.6268
   49CHL1   C10 3591   4.860   4.566   2.960  0.0543  0.4420 -0.4058
   49CHL1   C19 3592   4.866   4.710   2.927 -0.5096  0.0994  0.1849
   49CHL1  H19A 3593   4.820   4.780   3.001  0.6694  2.0805 -0.8672
   49CHL1  H19B 3594   4.972   4.743   2.923 -0.2174 -0.7151  0.8315
   49CHL1  H19C 3595   4.831   4.746   2.828 -0.0455  0.4198  0.1356
   49CHL1    C1 3596   4.985   4.491   2.904  0.0189  0.4654 -0.2803
   49CHL1   H1A 3597   5.081   4.533   2.941  1.1991 -1.7854 -0.5564
   49CHL1   H1B 3598   4.992   4.383   2.932 -1.3678 -0.5444 -3.3227
   49CHL1    C2 3599   4.982   4.482   2.749  0.2909  0.3746 -0.5683
   49CHL1   H2A 3600   5.070   4.426   2.710  0.7021 -0.3605  1.3554
   49CHL1   H2B 3601   5.000   4.584   2.708 -0.0727  0.0362 -1.5980
   49CHL1   C20 3602   4.810   4.757   3.657  0.3697 -0.4023 -0.0474
   49CHL1   H20 3603   4.756   4.852   3.635 -2.2368 -1.9844 -1.0331
   49CHL1   C21 3604   4.965   4.780   3.661  0.0904  0.6743  0.0890
   49CHL1  H21A 3605   5.022   4.685   3.657  0.9197  1.1349  0.7685
   49CHL1  H21B 3606   4.994   4.836   3.752 -1.6082 -1.3568  2.0175
   49CHL1  H21C 3607   4.993   4.843   3.574  1.5016  0.6826  0.5384
   49CHL1   C22 3608   4.750   4.717   3.793 -0.1066 -0.2202  0.0192
   49CHL1  H22A 3609   4.780   4.803   3.856 -2.1554  1.0623 -0.6508
   49CHL1  H22B 3610   4.639   4.722   3.797 -0.0694  0.4250  0.3753
   49CHL1   C23 3611   4.795   4.584   3.864  0.0817 -0.1808 -0.1675
   49CHL1  H23A 3612   4.752   4.489   3.826  0.0186  0.7231 -2.4769
   49CHL1  H23B 3613   4.901   4.565   3.838 -0.3442  0.7417 -2.9593
   49CHL1   C24 3614   4.778   4.589   4.023 -0.1876  0.7773 -0.5566
   49CHL1  H24A 3615   4.806   4.489   4.063 -0.0085  0.5210 -1.3088
   49CHL1  H24B 3616   4.859   4.655   4.061  2.4267 -1.3877 -1.9897
   49CHL1   C25 3617   4.648   4.639   4.076  0.9432  0.0012 -0.4044
   49CHL1   H25 3618   4.611   4.732   4.027 -0.5392  0.1811  0.9558
   49CHL1   C26 3619   4.543   4.537   4.045  0.3850  0.0978 -0.1169
   49CHL1  H26A 3620   4.506   4.538   3.941 -2.0875 -0.5002  0.6960
   49CHL1  H26B 3621   4.563   4.434   4.081  0.2547  0.3057  0.5590
   49CHL1  H26C 3622   4.450   4.568   4.097  1.5661  2.2237  0.8648
   49CHL1   C27 3623   4.654   4.663   4.236  0.4928 -0.6959 -0.0429
   49CHL1  H27A 3624   4.724   4.747   4.259  2.4747 -2.3244  0.1887
   49CHL1  H27B 3625   4.551   4.680   4.272  0.6240 -1.0699  0.5161
   49CHL1  H27C 3626   4.695   4.573   4.286  0.0254 -0.1332  1.4196
   50CHL1    C3 3627   6.708   4.161   2.900  0.0996 -0.4800  0.7185
   50CHL1    H3 3628   6.609   4.118   2.929 -1.1702  1.1100 -0.9669
   50CHL1    O3 3629   6.718   4.139   2.760 -0.1979  0.7168  0.5249
   50CHL1   H3' 3630   6.808   4.151   2.728  0.5758 -0.9229  1.9152
   50CHL1    C4 3631   6.708   4.316   2.936  1.0241 -0.2438 -0.2222
   50CHL1   H4A 3632   6.803   4.349   2.889  1.5222  1.1777  1.6654
   50CHL1   H4B 3633   6.626   4.372   2.886  0.6976  0.3289  0.9245
   50CHL1    C5 3634   6.704   4.342   3.087  0.7222 -0.2371  0.1909
   50CHL1    C6 3635   6.612   4.429   3.141 -0.4786  0.5348 -0.1217
   50CHL1    H6 3636   6.546   4.481   3.071  0.3307  1.4127 -0.2482
   50CHL1    C7 3637   6.610   4.477   3.284  0.4862 -0.1705  0.2197
   50CHL1   H7A 3638   6.633   4.586   3.290 -0.5636  0.0863 -0.3257
   50CHL1   H7B 3639   6.510   4.471   3.331  0.7165 -0.5770  0.6729
   50CHL1    C8 3640   6.723   4.412   3.370  0.0475 -0.1127  0.2502
   50CHL1    H8 3641   6.814   4.475   3.360 -0.4886  0.3689 -2.3495
   50CHL1   C14 3642   6.682   4.412   3.511 -0.0447 -0.4453  0.4355
   50CHL1   H14 3643   6.587   4.354   3.504 -0.2814  0.1466 -1.6781
   50CHL1   C15 3644   6.644   4.542   3.574 -0.8305  0.0888 -0.3678
   50CHL1  H15A 3645   6.708   4.630   3.553 -1.9524  0.7320 -1.2065
   50CHL1  H15B 3646   6.539   4.564   3.545 -0.9251 -1.5283 -1.4189
   50CHL1   C16 3647   6.645   4.515   3.730  0.4904 -0.1428  0.1774
   50CHL1  H16A 3648   6.717   4.588   3.774 -1.3485  2.2029 -0.5448
   50CHL1  H16B 3649   6.545   4.535   3.773 -0.1491  1.0283 -1.7347
   50CHL1   C17 3650   6.697   4.371   3.746  0.1386 -0.0329  0.2938
   50CHL1   H17 3651   6.606   4.308   3.741  0.7477 -0.8886 -0.4664
   50CHL1   C13 3652   6.778   4.352   3.615  0.9995 -0.6192 -0.3519
   50CHL1   C18 3653   6.909   4.431   3.614  0.4964  1.2955 -0.0354
   50CHL1  H18A 3654   6.894   4.539   3.636  0.8279  1.1863  0.7346
   50CHL1  H18B 3655   6.973   4.386   3.692  1.2890  0.6442 -1.0305
   50CHL1  H18C 3656   6.961   4.421   3.516 -1.7409  1.0907 -1.2850
   50CHL1   C12 3657   6.791   4.206   3.561 -0.0170 -0.2979 -0.4472
   50CHL1  H12A 3658   6.845   4.149   3.640 -0.9507 -0.2080  0.2858
   50CHL1  H12B 3659   6.690   4.160   3.559  0.4491 -1.3330 -0.7081
   50CHL1   C11 3660   6.841   4.189   3.419  0.6169 -0.9319 -1.0549
   50CHL1  H11A 3661   6.947   4.222   3.430  0.5147 -1.3116  1.9466
   50CHL1  H11B 3662   6.840   4.083   3.385 -0.4460 -1.2137 -0.1857
   50CHL1    C9 3663   6.751   4.267   3.319  0.5475  0.4610  0.1741
   50CHL1    H9 3664   6.658   4.207   3.315  2.1782 -2.3323  1.1630
   50CHL1   C10 3665   6.798   4.261   3.174  0.3734 -0.7036 -0.3428
   50CHL1   C19 3666   6.938   4.323   3.162  0.8525 -0.1017  0.2628
   50CHL1  H19A 3667   6.967   4.341   3.056 -3.2277 -0.9135 -1.1550
   50CHL1  H19B 3668   6.943   4.424   3.208  3.1181  0.2085 -0.5363
   50CHL1  H19C 3669   7.011   4.254   3.209  1.8767  0.5657 -0.3108
   50CHL1    C1 3670   6.809   4.112   3.124 -0.4243 -0.1065 -0.5022
   50CHL1   H1A 3671   6.894   4.062   3.175 -0.6109 -0.0825 -0.1566
   50CHL1   H1B 3672   6.721   4.055   3.162  0.5836 -1.4687 -0.1180
   50CHL1    C2 3673   6.827   4.102   2.971 -0.4353  0.1234  0.4927
   50CHL1   H2A 3674   6.838   3.996   2.937 -2.7529  0.2616 -0.8929
   50CHL1   H2B 3675   6.921   4.158   2.957 -1.1464  1.6707  1.6334
   50CHL1   C20 3676   6.774   4.350   3.876  0.0381  0.1324 -0.2221
   50CHL1   H20 3677   6.859   4.420   3.889  0.7281 -0.6686 -0.4061
   50CHL1   C21 3678   6.828   4.205   3.890 -0.0027  0.1284 -0.1949
   50CHL1  H21A 3679   6.927   4.194   3.842 -1.0838  1.5512 -3.0197
   50CHL1  H21B 3680   6.748   4.141   3.846  0.2004  0.3773 -0.9521
   50CHL1  H21C 3681   6.847   4.177   3.995  1.6179  1.8302  0.0313
   50CHL1   C22 3682   6.695   4.387   4.002 -0.0182  0.2337  0.4046
   50CHL1  H22A 3683   6.771   4.361   4.079 -0.2635  1.3295  1.0413
   50CHL1  H22B 3684   6.667   4.494   4.001  1.0052  0.5279  0.9950
   50CHL1   C23 3685   6.565   4.307   4.020 -0.3626 -0.1899 -0.4184
   50CHL1  H23A 3686   6.492   4.323   3.937 -1.7294  1.8727  1.0914
   50CHL1  H23B 3687   6.593   4.200   4.025 -0.8177 -0.2896  0.0880
   50CHL1   C24 3688   6.495   4.352   4.141  0.0670  0.5759 -0.0318
   50CHL1  H24A 3689   6.458   4.454   4.116  0.7595  0.4967 -1.4648
   50CHL1  H24B 3690   6.409   4.283   4.159  0.7680 -0.5417 -0.8402
   50CHL1   C25 3691   6.585   4.344   4.273 -0.1734  0.2605  0.1298
   50CHL1   H25 3692   6.669   4.416   4.264  0.1576 -0.3768 -2.9273
   50CHL1   C26 3693   6.509   4.389   4.399  0.2261  0.2432  0.0784
   50CHL1  H26A 3694   6.500   4.500   4.397 -1.9117  0.1746  1.6562
   50CHL1  H26B 3695   6.407   4.345   4.400  0.6874 -0.8666  1.6784
   50CHL1  H26C 3696   6.558   4.352   4.491 -1.3986  0.1329  0.9439
   50CHL1   C27 3697   6.654   4.205   4.294 -0.0368 -0.4456 -0.1836
   50CHL1  H27A 3698   6.738   4.194   4.222  2.0605  0.1390  2.0443
   50CHL1  H27B 3699   6.705   4.204   4.393  2.0358 -0.3112 -1.1801
   50CHL1  H27C 3700   6.584   4.119   4.297 -1.2401  0.5060  2.9556
   51CHL1    C3 3701   1.526   5.211   2.744  0.7789 -0.7495  0.9531
   51CHL1    H3 3702   1.415   5.217   2.739  0.8857  0.6159  0.0037
   51CHL1    O3 3703   1.585   5.269   2.629 -0.1836  0.0443 -0.4630
   51CHL1   H3' 3704   1.650   5.329   2.665 -0.6615 -0.0273  0.5531
   51CHL1    C4 3705   1.573   5.290   2.866 -0.7160 -0.0140  0.8414
   51CHL1   H4A 3706   1.683   5.275   2.859 -1.0966 -3.4248  0.7088
   51CHL1   H4B 3707   1.556   5.399   2.851 -0.9920 -0.4580 -3.3324
   51CHL1    C5 3708   1.527   5.230   3.002  0.0168 -0.3007  0.0112
   51CHL1    C6 3709   1.445   5.291   3.093 -0.3785 -0.0704  0.6279
   51CHL1    H6 3710   1.418   5.397   3.078 -0.8699 -0.2567  0.1252
   51CHL1    C7 3711   1.407   5.225   3.225 -0.2118  0.0189  0.0154
   51CHL1   H7A 3712   1.404   5.295   3.311 -1.0774  1.2202 -0.9461
   51CHL1   H7B 3713   1.302   5.188   3.217  0.2137 -1.5081  1.0118
   51CHL1    C8 3714   1.497   5.104   3.270  0.2658 -0.0977  0.7246
   51CHL1    H8 3715   1.595   5.154   3.289 -0.3700  1.3550  0.3705
   51CHL1   C14 3716   1.440   5.035   3.400 -0.4436 -0.2834  0.7838
   51CHL1   H14 3717   1.338   5.004   3.367 -0.4743  0.5168  0.1017
   51CHL1   C15 3718   1.420   5.106   3.536 -0.9188 -0.1159 -0.3958
   51CHL1  H15A 3719   1.496   5.187   3.542 -0.8769 -0.1810 -0.0438
   51CHL1  H15B 3720   1.325   5.163   3.552 -0.9815 -0.3066 -0.0880
   51CHL1   C16 3721   1.435   4.999   3.641  0.6207 -0.0276  0.1013
   51CHL1  H16A 3722   1.516   5.031   3.710 -0.5873  1.4512  0.9132
   51CHL1  H16B 3723   1.342   4.995   3.703 -0.2522  0.0693 -1.1742
   51CHL1   C17 3724   1.461   4.870   3.567  0.5312  0.4542  0.1452
   51CHL1   H17 3725   1.366   4.826   3.531  1.1269 -1.4178  0.7669
   51CHL1   C13 3726   1.521   4.908   3.426  0.0845 -0.6369 -0.5403
   51CHL1   C18 3727   1.663   4.953   3.445 -0.3221  0.0022 -0.1475
   51CHL1  H18A 3728   1.719   4.865   3.483  0.5821 -0.0486 -1.5486
   51CHL1  H18B 3729   1.712   4.973   3.348  2.2183 -1.2483  0.7585
   51CHL1  H18C 3730   1.666   5.045   3.507 -2.7945  0.3202 -0.4116
   51CHL1   C12 3731   1.490   4.811   3.308  0.0693  0.4736  0.1190
   51CHL1  H12A 3732   1.538   4.714   3.333 -1.8368 -0.3620  0.6805
   51CHL1  H12B 3733   1.382   4.789   3.303  0.4348 -1.7957  1.1977
   51CHL1   C11 3734   1.537   4.869   3.173 -0.2512 -0.2518 -0.4438
   51CHL1  H11A 3735   1.648   4.863   3.174 -0.2602 -0.4920  1.0189
   51CHL1  H11B 3736   1.506   4.810   3.083  0.8566  0.3938 -1.2730
   51CHL1    C9 3737   1.502   5.018   3.148 -0.4634  0.4299 -0.6271
   51CHL1    H9 3738   1.391   5.012   3.138 -0.6223  0.2385  0.9330
   51CHL1   C10 3739   1.564   5.081   3.022  0.1420 -0.0103 -0.5427
   51CHL1   C19 3740   1.717   5.073   3.044 -0.7517 -0.4398  0.0900
   51CHL1  H19A 3741   1.784   5.159   3.025  0.0493 -1.1325 -0.3071
   51CHL1  H19B 3742   1.738   5.042   3.149 -0.0342 -2.7326 -0.6583
   51CHL1  H19C 3743   1.751   4.977   2.998  0.2199  0.0138 -0.1690
   51CHL1    C1 3744   1.530   5.006   2.890 -0.3209  0.1770  0.2111
   51CHL1   H1A 3745   1.564   4.901   2.895  2.9875  1.0822 -1.0807
   51CHL1   H1B 3746   1.419   5.007   2.877 -0.1320  3.1062 -2.1883
   51CHL1    C2 3747   1.583   5.073   2.764 -0.0887  0.0334 -0.9548
   51CHL1   H2A 3748   1.549   5.020   2.672  0.3992 -2.8359  0.4207
   51CHL1   H2B 3749   1.694   5.083   2.768 -0.2118  1.6967 -0.8549
   51CHL1   C20 3750   1.531   4.769   3.662 -0.3015  0.2105 -0.6056
   51CHL1   H20 3751   1.621   4.827   3.689 -0.2868  0.3307 -0.9136
   51CHL1   C21 3752   1.556   4.634   3.590 -0.1821  0.2329 -0.1740
   51CHL1  H21A 3753   1.634   4.644   3.512  0.1010  0.2327  0.1068
   51CHL1  H21B 3754   1.458   4.601   3.548  0.4436 -3.0775  0.6856
   51CHL1  H21C 3755   1.585   4.543   3.647  0.1495 -1.3171 -2.6467
   51CHL1   C22 3756   1.457   4.731   3.796  0.2139 -0.3978  0.1846
   51CHL1  H22A 3757   1.414   4.817   3.851  1.0714  0.4142 -0.3872
   51CHL1  H22B 3758   1.379   4.653   3.782 -2.4274  2.5247 -3.1693
   51CHL1   C23 3759   1.563   4.677   3.895 -0.1204  0.6267  0.1298
   51CHL1  H23A 3760   1.616   4.594   3.844  0.0252  1.3003 -0.8479
   51CHL1  H23B 3761   1.630   4.760   3.927  1.2521 -0.8790  1.3188
   51CHL1   C24 3762   1.484   4.618   4.014 -0.3858 -0.5564 -0.2868
   51CHL1  H24A 3763   1.413   4.688   4.064 -0.9152 -2.3515  1.6335
   51CHL1  H24B 3764   1.434   4.534   3.962 -2.1866  1.2219 -1.5894
   51CHL1   C25 3765   1.580   4.559   4.118  0.4441  0.7514 -0.6393
   51CHL1   H25 3766   1.636   4.490   4.051  2.2162  0.0720  1.3949
   51CHL1   C26 3767   1.678   4.652   4.194 -0.5397 -0.4589  0.5281
   51CHL1  H26A 3768   1.739   4.699   4.114  0.1592 -0.2286  1.1890
   51CHL1  H26B 3769   1.621   4.737   4.238 -2.9359 -2.6884  2.0242
   51CHL1  H26C 3770   1.742   4.612   4.275  0.9902 -1.2624 -1.0136
   51CHL1   C27 3771   1.496   4.472   4.221 -0.5304 -0.0941 -0.3193
   51CHL1  H27A 3772   1.564   4.395   4.263  0.6121  1.4175  0.7103
   51CHL1  H27B 3773   1.464   4.540   4.303  1.7707  0.4898  0.1409
   51CHL1  H27C 3774   1.417   4.412   4.169 -1.1164 -0.2295  0.6898
   52CHL1    C3 3775   0.839   6.203   2.918  0.4474  0.3550  1.0851
   52CHL1    H3 3776   0.896   6.289   2.958 -0.3231  1.3037  0.2043
   52CHL1    O3 3777   0.849   6.217   2.775 -0.3242  0.5621  0.6769
   52CHL1   H3' 3778   0.805   6.139   2.740  0.2403  0.1289  0.9109
   52CHL1    C4 3779   0.888   6.066   2.974  0.1595  0.1013  0.4188
   52CHL1   H4A 3780   0.843   5.984   2.915  2.7888 -1.4457  0.3934
   52CHL1   H4B 3781   0.997   6.051   2.958  0.1412  0.1525  0.2465
   52CHL1    C5 3782   0.847   6.019   3.112 -0.6603 -0.1460  0.0607
   52CHL1    C6 3783   0.943   5.987   3.204 -0.2196  0.0276 -0.3092
   52CHL1    H6 3784   1.046   5.972   3.169 -0.2597 -2.5885  0.4650
   52CHL1    C7 3785   0.918   5.960   3.352 -0.3947  0.0994 -0.2282
   52CHL1   H7A 3786   0.966   5.863   3.379  1.7731  0.7159 -1.5931
   52CHL1   H7B 3787   0.978   6.030   3.414  2.0793 -1.9305 -0.1708
   52CHL1    C8 3788   0.765   5.959   3.392  0.3213  0.3404  0.1643
   52CHL1    H8 3789   0.733   5.858   3.358 -1.8175  1.9497 -3.1442
   52CHL1   C14 3790   0.757   5.976   3.541  0.3166  0.0922  0.5222
   52CHL1   H14 3791   0.793   6.080   3.558  2.2914  0.5939 -4.8145
   52CHL1   C15 3792   0.852   5.896   3.631  0.3996  0.5934 -0.3768
   52CHL1  H15A 3793   0.848   5.792   3.590  1.6252 -0.6769  2.4432
   52CHL1  H15B 3794   0.956   5.934   3.631  0.2563  1.1693 -3.1515
   52CHL1   C16 3795   0.781   5.907   3.767  0.3899  0.6485  0.4512
   52CHL1  H16A 3796   0.752   5.806   3.802  2.4159 -0.2379 -0.2875
   52CHL1  H16B 3797   0.853   5.965   3.829  1.6709 -0.4883  0.0822
   52CHL1   C17 3798   0.654   5.988   3.749 -0.8207  0.0189  0.1194
   52CHL1   H17 3799   0.680   6.095   3.761  1.0616 -0.6270  2.5353
   52CHL1   C13 3800   0.612   5.974   3.594 -0.1333 -0.5036  0.1387
   52CHL1   C18 3801   0.542   5.843   3.578  0.2862 -0.0456  0.4090
   52CHL1  H18A 3802   0.602   5.761   3.624  0.4879 -0.9325 -1.3307
   52CHL1  H18B 3803   0.446   5.840   3.634  0.7501  0.0438  1.2286
   52CHL1  H18C 3804   0.522   5.815   3.472  0.0272  0.2628  0.3746
   52CHL1   C12 3805   0.540   6.087   3.518  0.2264 -0.2952 -0.4452
   52CHL1  H12A 3806   0.431   6.094   3.538  0.4878 -1.8411  1.9198
   52CHL1  H12B 3807   0.567   6.187   3.556 -1.6392  0.6316 -1.4318
   52CHL1   C11 3808   0.539   6.071   3.365  0.1762  0.2505 -0.1246
   52CHL1  H11A 3809   0.486   5.976   3.344  0.1715 -0.3463  2.2872
   52CHL1  H11B 3810   0.475   6.150   3.320 -0.0349 -1.0130 -2.1793
   52CHL1    C9 3811   0.684   6.064   3.313  0.7297 -0.4508 -0.6588
   52CHL1    H9 3812   0.724   6.164   3.343  0.4655 -0.7736  0.8368
   52CHL1   C10 3813   0.702   6.057   3.157  0.3601 -0.1666  0.1717
   52CHL1   C19 3814   0.603   5.951   3.098  0.3047 -0.4166 -0.0477
   52CHL1  H19A 3815   0.634   5.918   2.996  2.2324 -0.3415  0.4605
   52CHL1  H19B 3816   0.606   5.865   3.169 -1.8255 -0.2003  0.3702
   52CHL1  H19C 3817   0.498   5.987   3.095  0.7222  0.8953  0.4820
   52CHL1    C1 3818   0.662   6.193   3.099 -0.4204 -1.0871 -0.6054
   52CHL1   H1A 3819   0.557   6.224   3.118  0.2855  0.9947  0.1460
   52CHL1   H1B 3820   0.724   6.267   3.153  0.0932 -2.6469  1.0709
   52CHL1    C2 3821   0.689   6.222   2.947 -0.5964 -0.3461  0.2170
   52CHL1   H2A 3822   0.649   6.323   2.927 -0.5600 -0.1128  1.2580
   52CHL1   H2B 3823   0.634   6.151   2.881 -1.4024  1.0365 -0.6330
   52CHL1   C20 3824   0.569   5.959   3.862 -0.8434 -0.5538  0.1479
   52CHL1   H20 3825   0.551   5.850   3.873  3.3372 -1.3562  0.9613
   52CHL1   C21 3826   0.436   6.031   3.852 -0.3052  0.2501  0.0364
   52CHL1  H21A 3827   0.381   6.021   3.948 -1.2249  0.0388 -0.5025
   52CHL1  H21B 3828   0.371   6.001   3.767 -3.2151  1.3829  1.7003
   52CHL1  H21C 3829   0.456   6.139   3.839  1.5434  0.0100  0.6088
   52CHL1   C22 3830   0.636   6.000   4.004  0.0934 -0.2135 -0.0293
   52CHL1  H22A 3831   0.747   5.995   4.007  0.0366 -1.2779  1.6765
   52CHL1  H22B 3832   0.610   6.108   4.017 -2.3300 -0.7970  0.5355
   52CHL1   C23 3833   0.583   5.923   4.124 -0.1350 -0.6266 -0.0526
   52CHL1  H23A 3834   0.477   5.955   4.134  0.0317 -0.3383  0.8555
   52CHL1  H23B 3835   0.591   5.813   4.112  1.1276 -0.8168  2.0716
   52CHL1   C24 3836   0.664   5.969   4.244  0.2149 -0.3462 -0.0428
   52CHL1  H24A 3837   0.771   5.952   4.223  0.5702  1.1468  0.4448
   52CHL1  H24B 3838   0.652   6.079   4.252 -0.7252 -0.5764  3.2885
   52CHL1   C25 3839   0.619   5.895   4.369 -0.2412  0.4213 -0.3828
   52CHL1   H25 3840   0.514   5.862   4.353  0.8347 -3.3598 -0.6580
   52CHL1   C26 3841   0.718   5.781   4.382  0.6467 -0.2439 -0.4293
   52CHL1  H26A 3842   0.821   5.823   4.386  0.2185  1.4852 -3.8458
   52CHL1  H26B 3843   0.688   5.713   4.464  0.6511 -1.8397 -1.6951
   52CHL1  H26C 3844   0.721   5.717   4.290  3.2370 -0.6178 -0.1693
   52CHL1   C27 3845   0.621   5.992   4.490 -0.6397  0.4456 -0.4098
   52CHL1  H27A 3846   0.728   6.018   4.505 -0.4219 -1.0604  0.8665
   52CHL1  H27B 3847   0.549   6.076   4.478 -0.1726  0.8767 -0.2329
   52CHL1  H27C 3848   0.593   5.929   4.577  1.5509 -1.9693 -1.3331
   53CHL1    C3 3849   0.792   4.086   2.754 -0.0566 -0.4976  0.4651
   53CHL1    H3 3850   0.697   4.128   2.793 -0.6126 -1.8069  0.5885
   53CHL1    O3 3851   0.798   4.104   2.613 -0.0480 -0.2105 -0.1269
   53CHL1   H3' 3852   0.884   4.071   2.585  0.5587  1.0749  0.1626
   53CHL1    C4 3853   0.910   4.154   2.825 -0.5663  0.2051 -0.0077
   53CHL1   H4A 3854   1.001   4.113   2.777 -1.3711 -0.7565 -0.7480
   53CHL1   H4B 3855   0.923   4.259   2.789  0.8813 -0.4172 -1.4448
   53CHL1    C5 3856   0.912   4.131   2.976  0.1544 -0.3408  0.1156
   53CHL1    C6 3857   0.927   4.240   3.063  0.1070 -0.0979  0.2737
   53CHL1    H6 3858   0.932   4.340   3.018 -1.1329 -0.9409 -1.8789
   53CHL1    C7 3859   0.929   4.216   3.213  0.0307 -0.5504 -0.0019
   53CHL1   H7A 3860   1.002   4.279   3.268 -1.2814 -0.9816  2.3795
   53CHL1   H7B 3861   0.829   4.242   3.256 -0.0773  0.2673 -0.7191
   53CHL1    C8 3862   0.945   4.066   3.254  0.6510 -0.4845  0.1897
   53CHL1    H8 3863   1.054   4.052   3.237  0.8554  1.2611 -0.0534
   53CHL1   C14 3864   0.904   4.052   3.401 -0.2679 -0.3610 -0.7318
   53CHL1   H14 3865   0.795   4.072   3.410 -0.2812  0.1221 -1.7951
   53CHL1   C15 3866   0.977   4.142   3.502  0.4855 -0.1249  0.3796
   53CHL1  H15A 3867   1.084   4.142   3.473  0.8347 -0.7523  1.5987
   53CHL1  H15B 3868   0.929   4.242   3.500  1.6211  0.4235 -0.8159
   53CHL1   C16 3869   0.964   4.065   3.631 -0.1630  0.2607  0.3032
   53CHL1  H16A 3870   1.064   4.032   3.667 -1.2829 -0.1615  3.3485
   53CHL1  H16B 3871   0.925   4.126   3.715 -0.8663 -1.1312  1.0355
   53CHL1   C17 3872   0.885   3.940   3.600 -0.1348  0.3259 -0.0672
   53CHL1   H17 3873   0.776   3.964   3.608 -0.6487 -1.0879 -2.0168
   53CHL1   C13 3874   0.920   3.913   3.449  0.0149 -0.1453  0.0890
   53CHL1   C18 3875   1.073   3.860   3.435  0.7809  0.4154 -0.0079
   53CHL1  H18A 3876   1.083   3.751   3.457  1.8384  0.2146 -1.3251
   53CHL1  H18B 3877   1.102   3.860   3.328 -1.7179 -0.7874 -0.7525
   53CHL1  H18C 3878   1.148   3.921   3.490  2.5120  1.5427 -3.3508
   53CHL1   C12 3879   0.826   3.821   3.372  0.4760 -0.5671  0.5021
   53CHL1  H12A 3880   0.854   3.721   3.411  3.9154  1.1315  3.0549
   53CHL1  H12B 3881   0.722   3.855   3.391  0.8979  1.5260 -0.6383
   53CHL1   C11 3882   0.850   3.822   3.219  0.1603 -0.0280 -0.3646
   53CHL1  H11A 3883   0.946   3.767   3.214  0.2494  0.2297 -1.8057
   53CHL1  H11B 3884   0.762   3.772   3.174 -1.1112 -1.3483  3.1633
   53CHL1    C9 3885   0.860   3.971   3.165  0.6340  0.4949  0.4296
   53CHL1    H9 3886   0.754   4.001   3.181  0.0335 -1.6793  0.9048
   53CHL1   C10 3887   0.892   3.978   3.010  0.1289  1.3863 -0.8187
   53CHL1   C19 3888   1.022   3.897   2.988 -0.2585  0.8272  0.0795
   53CHL1  H19A 3889   1.110   3.938   3.042  0.9496 -0.8816 -0.5080
   53CHL1  H19B 3890   1.003   3.791   3.018  0.7712  0.1937 -1.3764
   53CHL1  H19C 3891   1.046   3.903   2.880  2.4488  1.5090  0.6448
   53CHL1    C1 3892   0.770   3.918   2.930 -0.1855 -0.3777  0.0850
   53CHL1   H1A 3893   0.745   3.814   2.961 -3.9821  0.8640  1.8368
   53CHL1   H1B 3894   0.671   3.965   2.949  0.2075  0.1769  0.7798
   53CHL1    C2 3895   0.778   3.938   2.771  0.3784 -0.3320  0.2389
   53CHL1   H2A 3896   0.684   3.898   2.729 -0.4433  0.8012  0.9474
   53CHL1   H2B 3897   0.867   3.881   2.736  1.7534  1.7947  0.0616
   53CHL1   C20 3898   0.913   3.820   3.697 -0.8508  0.3826 -0.3453
   53CHL1   H20 3899   1.013   3.777   3.677 -1.2153 -0.7490  0.1895
   53CHL1   C21 3900   0.802   3.717   3.682 -0.5886  0.5436 -0.3569
   53CHL1  H21A 3901   0.830   3.621   3.729  1.1724  0.7914 -0.8347
   53CHL1  H21B 3902   0.781   3.681   3.579 -0.6841 -1.4432  0.3079
   53CHL1  H21C 3903   0.710   3.764   3.722  0.2691  1.3998  0.6771
   53CHL1   C22 3904   0.930   3.858   3.850  0.1403 -0.9402 -0.6690
   53CHL1  H22A 3905   0.957   3.762   3.899 -0.0910 -0.8145 -0.2881
   53CHL1  H22B 3906   1.022   3.921   3.856 -1.0140  0.6619  2.9282
   53CHL1   C23 3907   0.798   3.913   3.913 -1.4767  0.1580  0.3021
   53CHL1  H23A 3908   0.772   4.011   3.866 -1.5150  0.5693  1.1580
   53CHL1  H23B 3909   0.717   3.837   3.909  1.7401 -3.5404  0.6447
   53CHL1   C24 3910   0.809   3.944   4.067  0.2118  0.5808  0.4137
   53CHL1  H24A 3911   0.894   4.007   4.099  1.3869 -1.8980  2.6212
   53CHL1  H24B 3912   0.717   3.993   4.106  0.3533 -0.4860  2.2496
   53CHL1   C25 3913   0.827   3.823   4.168 -0.2476 -0.1552  0.5608
   53CHL1   H25 3914   0.918   3.762   4.147 -1.5892 -1.9996 -0.1573
   53CHL1   C26 3915   0.831   3.877   4.309  0.2812 -0.0329  0.3626
   53CHL1  H26A 3916   0.824   3.795   4.384 -2.0069 -0.4561 -0.2402
   53CHL1  H26B 3917   0.932   3.922   4.318 -0.6795  2.4720 -0.5152
   53CHL1  H26C 3918   0.748   3.950   4.320  1.5172  1.2641  1.4647
   53CHL1   C27 3919   0.709   3.730   4.169  0.1060 -0.1419  0.1143
   53CHL1  H27A 3920   0.607   3.768   4.187 -0.4582 -1.5799  0.1141
   53CHL1  H27B 3921   0.709   3.682   4.069  1.7538  0.4843 -0.2181
   53CHL1  H27C 3922   0.737   3.644   4.235  3.1700 -0.6362 -1.6362
   54CHL1    C3 3923   0.496   3.416   3.324  0.4205  0.3167  0.5841
   54CHL1    H3 3924   0.592   3.366   3.348 -0.5836 -0.7526  2.6940
   54CHL1    O3 3925   0.485   3.431   3.183 -0.5300 -0.4614 -0.7023
   54CHL1   H3' 3926   0.395   3.400   3.173 -1.6698  2.0514  0.9837
   54CHL1    C4 3927   0.376   3.336   3.365  0.1083 -0.1271 -0.4588
   54CHL1   H4A 3928   0.288   3.397   3.338 -0.3545 -0.5956 -0.0518
   54CHL1   H4B 3929   0.377   3.238   3.313 -1.4167  0.1563 -1.0452
   54CHL1    C5 3930   0.366   3.323   3.515 -0.1678  0.6205  0.1916
   54CHL1    C6 3931   0.358   3.204   3.575 -0.2820  0.2404 -0.1570
   54CHL1    H6 3932   0.361   3.117   3.509 -0.4518 -0.3216  0.5664
   54CHL1    C7 3933   0.356   3.173   3.719  0.4694 -0.0580  0.9036
   54CHL1   H7A 3934   0.272   3.103   3.737  1.1175 -0.9682  0.4879
   54CHL1   H7B 3935   0.451   3.123   3.747  0.5942  0.3735  1.2403
   54CHL1    C8 3936   0.340   3.304   3.803  0.1208  0.4767  0.1188
   54CHL1    H8 3937   0.231   3.326   3.799  0.1142  0.6496  1.0527
   54CHL1   C14 3938   0.387   3.264   3.941  0.4640 -0.3807  0.7821
   54CHL1   H14 3939   0.497   3.250   3.930  0.2263 -2.5776  0.7692
   54CHL1   C15 3940   0.335   3.135   4.002 -0.1588 -0.8724 -0.7762
   54CHL1  H15A 3941   0.227   3.115   3.982 -0.5524  0.0255  0.3677
   54CHL1  H15B 3942   0.380   3.038   3.970  1.2710 -1.1564  1.8756
   54CHL1   C16 3943   0.353   3.164   4.153  0.0112 -0.6919  0.5365
   54CHL1  H16A 3944   0.263   3.161   4.219  0.0568 -2.7485  0.5549
   54CHL1  H16B 3945   0.428   3.098   4.201  0.0291 -0.0593  1.4117
   54CHL1   C17 3946   0.415   3.310   4.167 -0.2331  0.3496  0.6012
   54CHL1   H17 3947   0.523   3.293   4.148 -0.1994  0.0560  1.0196
   54CHL1   C13 3948   0.365   3.381   4.042  0.2645 -0.0702  0.8045
   54CHL1   C18 3949   0.216   3.409   4.053  0.4085  0.0865 -0.1128
   54CHL1  H18A 3950   0.154   3.317   4.059 -2.5066  1.8202 -1.0464
   54CHL1  H18B 3951   0.194   3.472   4.142 -1.5870 -0.1276 -0.4065
   54CHL1  H18C 3952   0.178   3.451   3.957  2.1389  2.7607  0.2886
   54CHL1   C12 3953   0.459   3.495   3.994 -0.4663  0.0578 -0.3927
   54CHL1  H12A 3954   0.455   3.579   4.066  0.8404  0.6353 -0.9719
   54CHL1  H12B 3955   0.567   3.467   3.996 -0.2401  0.9251 -0.2503
   54CHL1   C11 3956   0.427   3.542   3.851 -0.0338  0.4902  0.4158
   54CHL1  H11A 3957   0.326   3.587   3.861  0.4655  1.4570  1.2764
   54CHL1  H11B 3958   0.493   3.622   3.809  0.3617  1.3867  2.6365
   54CHL1    C9 3959   0.418   3.420   3.743  0.5184  0.0045 -0.6798
   54CHL1    H9 3960   0.524   3.388   3.736  0.9358  0.0204  3.2536
   54CHL1   C10 3961   0.381   3.455   3.597  0.3482 -0.0906  0.1980
   54CHL1   C19 3962   0.247   3.530   3.600 -0.3282 -0.6207  0.4356
   54CHL1  H19A 3963   0.248   3.632   3.645  0.0881 -1.3837  2.2592
   54CHL1  H19B 3964   0.217   3.548   3.495  0.4994 -1.3188  0.0764
   54CHL1  H19C 3965   0.172   3.472   3.659  1.0116 -0.0922  2.8090
   54CHL1    C1 3966   0.492   3.543   3.540  0.2156 -0.1357  0.7758
   54CHL1   H1A 3967   0.490   3.647   3.581 -0.9574  0.0132  0.3840
   54CHL1   H1B 3968   0.591   3.504   3.573  0.1466  0.4995  1.7962
   54CHL1    C2 3969   0.493   3.556   3.389 -0.2592  0.4190 -0.6294
   54CHL1   H2A 3970   0.578   3.618   3.352  0.1803  0.0442 -0.2582
   54CHL1   H2B 3971   0.401   3.610   3.357  0.8024  0.9394 -3.0472
   54CHL1   C20 3972   0.383   3.366   4.305 -1.0288 -0.2441  0.1710
   54CHL1   H20 3973   0.274   3.365   4.325 -0.8497 -0.4046  1.1905
   54CHL1   C21 3974   0.440   3.512   4.317 -0.0232 -0.3246 -0.3595
   54CHL1  H21A 3975   0.390   3.576   4.241 -1.8214 -1.9715 -0.6592
   54CHL1  H21B 3976   0.549   3.511   4.296  1.0680 -0.2943  4.3180
   54CHL1  H21C 3977   0.428   3.551   4.420 -0.7177 -1.0365 -0.1605
   54CHL1   C22 3978   0.448   3.278   4.417 -0.1433  0.2480 -0.2998
   54CHL1  H22A 3979   0.417   3.329   4.511 -0.6837  1.6193 -1.1980
   54CHL1  H22B 3980   0.392   3.182   4.415  2.0109 -1.0529 -1.9978
   54CHL1   C23 3981   0.596   3.251   4.407  0.4969  0.3965 -0.2549
   54CHL1  H23A 3982   0.630   3.194   4.318 -0.4409  0.7484 -0.8435
   54CHL1  H23B 3983   0.663   3.340   4.403 -0.4923  1.1528 -0.1268
   54CHL1   C24 3984   0.638   3.172   4.537 -0.4638 -0.6838  0.1950
   54CHL1  H24A 3985   0.625   3.248   4.616  0.2132 -0.1578 -0.1833
   54CHL1  H24B 3986   0.560   3.096   4.557 -1.0264 -0.1692 -0.0296
   54CHL1   C25 3987   0.780   3.118   4.531 -0.3686 -0.8542 -0.1038
   54CHL1   H25 3988   0.847   3.196   4.491  2.6573 -2.3353  1.7050
   54CHL1   C26 3989   0.830   3.094   4.673  0.5459 -0.0830 -0.8772
   54CHL1  H26A 3990   0.851   3.186   4.732  0.3731 -0.5382 -0.0810
   54CHL1  H26B 3991   0.744   3.044   4.724  0.4422 -2.1586 -2.9160
   54CHL1  H26C 3992   0.912   3.020   4.681  1.2096  0.4465 -2.5717
   54CHL1   C27 3993   0.785   2.987   4.456 -0.4105 -0.1526 -0.1062
   54CHL1  H27A 3994   0.726   2.989   4.362 -1.8377 -0.1616  0.7547
   54CHL1  H27B 3995   0.892   2.972   4.431 -0.2295 -1.4638  1.3070
   54CHL1  H27C 3996   0.749   2.906   4.523  1.4004 -0.1389  0.9613
   55CHL1    C3 3997   2.827   4.377   3.039  0.7980 -0.4370 -0.3963
   55CHL1    H3 3998   2.819   4.481   3.077  1.1645 -0.3173 -0.6358
   55CHL1    O3 3999   2.805   4.384   2.898 -0.0862  0.0319  0.4802
   55CHL1   H3' 4000   2.890   4.373   2.856 -0.5318 -0.0148 -0.4309
   55CHL1    C4 4001   2.964   4.324   3.064 -0.7502 -0.1437 -0.1282
   55CHL1   H4A 4002   2.964   4.226   3.011  1.8087 -1.4459  2.0116
   55CHL1   H4B 4003   3.043   4.391   3.024 -1.2201  0.1741 -0.5438
   55CHL1    C5 4004   2.989   4.297   3.207 -0.1920 -0.4353  0.2436
   55CHL1    C6 4005   3.094   4.351   3.270  0.8353  0.2280 -0.1653
   55CHL1    H6 4006   3.172   4.409   3.220  0.2446  1.3306  0.1632
   55CHL1    C7 4007   3.123   4.321   3.419 -0.2817 -0.7178  0.2578
   55CHL1   H7A 4008   3.227   4.285   3.436 -0.5648 -1.8461 -0.2758
   55CHL1   H7B 4009   3.124   4.420   3.470 -0.3529 -1.4088  1.6664
   55CHL1    C8 4010   3.036   4.208   3.467  0.1703 -0.5658 -1.0878
   55CHL1    H8 4011   3.082   4.116   3.425 -1.5803 -0.8420 -2.4937
   55CHL1   C14 4012   3.045   4.203   3.616 -0.3070 -0.1247  0.3174
   55CHL1   H14 4013   2.998   4.296   3.656  1.2900  0.9322 -0.1733
   55CHL1   C15 4014   3.182   4.194   3.685 -0.1991 -1.3021 -0.5411
   55CHL1  H15A 4015   3.237   4.101   3.657  0.6326 -1.8121  2.4031
   55CHL1  H15B 4016   3.248   4.280   3.660  1.2486 -1.6890  1.6318
   55CHL1   C16 4017   3.157   4.162   3.832  0.1693  0.2929  0.5669
   55CHL1  H16A 4018   3.209   4.068   3.858 -2.1195 -0.6558  2.0583
   55CHL1  H16B 4019   3.174   4.249   3.899 -3.5746 -0.0550  2.2200
   55CHL1   C17 4020   3.000   4.129   3.835  0.1388  0.4936 -1.5305
   55CHL1   H17 4021   2.953   4.221   3.878  1.4119  0.4000  0.1635
   55CHL1   C13 4022   2.959   4.099   3.688 -0.1410  0.4577  0.0933
   55CHL1   C18 4023   2.999   3.952   3.638 -0.2191 -0.2966 -0.1047
   55CHL1  H18A 4024   3.014   3.959   3.528  1.1863  1.4303  0.1514
   55CHL1  H18B 4025   3.097   3.923   3.683 -0.1258  1.2684  0.7674
   55CHL1  H18C 4026   2.927   3.873   3.667  1.3076 -1.0196  1.9812
   55CHL1   C12 4027   2.810   4.119   3.651 -0.1217 -0.1124 -0.7566
   55CHL1  H12A 4028   2.756   4.027   3.683  0.4559  0.2596  1.5248
   55CHL1  H12B 4029   2.769   4.213   3.694  0.6009  0.7397 -1.8799
   55CHL1   C11 4030   2.801   4.113   3.497 -0.6251 -0.3534  0.4165
   55CHL1  H11A 4031   2.820   4.013   3.453 -2.1483  0.2360 -1.7351
   55CHL1  H11B 4032   2.697   4.133   3.465 -0.9644 -1.0094  1.0725
   55CHL1    C9 4033   2.893   4.220   3.432  0.3636  0.1454 -0.1190
   55CHL1    H9 4034   2.859   4.321   3.463 -0.5256  0.1273 -0.9684
   55CHL1   C10 4035   2.885   4.212   3.277  0.5913 -0.2274 -1.0516
   55CHL1   C19 4036   2.905   4.065   3.226  0.5841  0.4651 -0.0660
   55CHL1  H19A 4037   2.985   4.010   3.280 -0.0478 -1.3694 -0.8947
   55CHL1  H19B 4038   2.810   4.009   3.241  0.4462  0.3691 -1.1871
   55CHL1  H19C 4039   2.922   4.061   3.116  0.2787 -1.3229 -0.0773
   55CHL1    C1 4040   2.740   4.267   3.244  1.0186 -0.5857  0.1678
   55CHL1   H1A 4041   2.666   4.191   3.277  2.1005 -2.1536 -0.8782
   55CHL1   H1B 4042   2.717   4.365   3.290  0.4593 -1.0906  1.0040
   55CHL1    C2 4043   2.713   4.289   3.096  0.4329 -0.9495  0.2785
   55CHL1   H2A 4044   2.615   4.335   3.070 -0.2249 -2.4913 -0.0973
   55CHL1   H2B 4045   2.702   4.191   3.046 -1.2586 -0.8960  0.4981
   55CHL1   C20 4046   2.963   4.022   3.945 -0.8621 -0.5729  0.1636
   55CHL1   H20 4047   2.998   3.928   3.898 -0.4863  0.2855 -1.3401
   55CHL1   C21 4048   2.814   4.012   3.960  0.2919  0.2587  0.1136
   55CHL1  H21A 4049   2.772   4.115   3.966  0.9923  0.8619 -3.1701
   55CHL1  H21B 4050   2.783   3.962   4.054  1.4300  1.4032  1.1303
   55CHL1  H21C 4051   2.760   3.954   3.881 -2.6945  1.2700  1.2812
   55CHL1   C22 4052   3.020   4.060   4.082  0.0205 -0.0237 -0.2260
   55CHL1  H22A 4053   3.128   4.082   4.066  0.2784 -1.1972 -0.1708
   55CHL1  H22B 4054   2.973   4.154   4.117 -0.4166 -0.7345  1.1488
   55CHL1   C23 4055   3.026   3.949   4.185  0.4357 -0.2488  0.2391
   55CHL1  H23A 4056   2.925   3.925   4.224  1.2386  0.4806  3.0080
   55CHL1  H23B 4057   3.065   3.856   4.138  0.3878  0.3235 -0.9776
   55CHL1   C24 4058   3.120   3.991   4.302  0.6632 -0.4485  0.6263
   55CHL1  H24A 4059   3.227   4.000   4.274  0.2514 -0.1111 -0.9361
   55CHL1  H24B 4060   3.079   4.089   4.334 -1.0328 -1.3777  1.4088
   55CHL1   C25 4061   3.115   3.892   4.420  0.0445  0.0144  0.8657
   55CHL1   H25 4062   3.006   3.873   4.432 -0.1807  0.3091 -0.5897
   55CHL1   C26 4063   3.183   3.755   4.394  0.1009  0.3933 -0.4286
   55CHL1  H26A 4064   3.195   3.697   4.488  0.1755 -0.1963 -0.7981
   55CHL1  H26B 4065   3.145   3.700   4.305  3.9195 -0.7809 -1.5427
   55CHL1  H26C 4066   3.287   3.779   4.363  0.2427  1.5507  0.8623
   55CHL1   C27 4067   3.179   3.957   4.547 -0.0156 -0.0912  0.0230
   55CHL1  H27A 4068   3.146   3.898   4.635 -1.5399 -1.1234 -1.1878
   55CHL1  H27B 4069   3.290   3.959   4.543 -0.0297  1.2347 -0.2930
   55CHL1  H27C 4070   3.134   4.056   4.570  0.5135  0.1979 -0.1714
   56CHL1    C3 4071   0.356   6.170   2.662 -0.1848  0.3078 -0.1147
   56CHL1    H3 4072   0.444   6.147   2.727  0.0527  1.2613 -0.0883
   56CHL1    O3 4073   0.405   6.217   2.536 -0.1009 -0.4273 -0.0314
   56CHL1   H3' 4074   0.479   6.162   2.509  3.2763  1.9113  3.3767
   56CHL1    C4 4075   0.276   6.039   2.652  0.4803  0.1708 -0.0900
   56CHL1   H4A 4076   0.179   6.053   2.600 -0.1973 -0.1208  1.0577
   56CHL1   H4B 4077   0.353   5.980   2.598  1.6064  0.3071  1.3052
   56CHL1    C5 4078   0.243   5.989   2.792  0.2667  0.0785  0.2362
   56CHL1    C6 4079   0.271   5.866   2.833  0.1136  0.3190 -0.4359
   56CHL1    H6 4080   0.315   5.797   2.759  0.1930  0.7638 -0.8124
   56CHL1    C7 4081   0.243   5.803   2.969  0.3848 -0.1429 -0.2842
   56CHL1   H7A 4082   0.197   5.702   2.961 -0.4202 -0.1949  3.3310
   56CHL1   H7B 4083   0.336   5.781   3.027 -0.8384 -3.3604  0.6901
   56CHL1    C8 4084   0.165   5.899   3.066 -0.3193  0.2918 -0.2833
   56CHL1    H8 4085   0.058   5.885   3.038 -1.2897 -0.3323  3.2734
   56CHL1   C14 4086   0.195   5.854   3.215 -0.3642  0.1227 -0.3276
   56CHL1   H14 4087   0.304   5.866   3.230 -0.0134 -1.9038 -0.9547
   56CHL1   C15 4088   0.172   5.696   3.247  0.4156 -0.2312  0.5953
   56CHL1  H15A 4089   0.068   5.667   3.219  0.9964  0.5620 -2.9192
   56CHL1  H15B 4090   0.240   5.626   3.196  0.2716  0.2165 -0.2364
   56CHL1   C16 4091   0.185   5.699   3.398  0.9482 -0.3161 -0.2488
   56CHL1  H16A 4092   0.114   5.631   3.449 -0.9604  2.5843  1.1987
   56CHL1  H16B 4093   0.289   5.670   3.423  1.4384  1.5503  0.0164
   56CHL1   C17 4094   0.157   5.849   3.440 -0.2633 -0.0115  0.8010
   56CHL1   H17 4095   0.261   5.884   3.453  1.0620 -3.8612  1.7438
   56CHL1   C13 4096   0.114   5.926   3.316 -0.4813  0.0898 -0.3008
   56CHL1   C18 4097  -0.034   5.911   3.291  0.2735  0.0102 -0.5534
   56CHL1  H18A 4098  -0.067   5.947   3.191  1.2829 -0.4787 -1.0695
   56CHL1  H18B 4099  -0.064   5.804   3.290 -0.2149  0.1445 -1.1059
   56CHL1  H18C 4100  -0.092   5.951   3.377 -1.4757 -1.0126 -1.2018
   56CHL1   C12 4101   0.147   6.069   3.301 -0.5760  0.7829 -0.6295
   56CHL1  H12A 4102   0.093   6.134   3.373 -0.2832  0.2773  0.0540
   56CHL1  H12B 4103   0.252   6.087   3.331 -1.1667  1.5950  1.0639
   56CHL1   C11 4104   0.125   6.128   3.160  0.6396 -0.2181 -0.0090
   56CHL1  H11A 4105   0.019   6.134   3.125  0.9703 -0.8941 -1.1847
   56CHL1  H11B 4106   0.164   6.232   3.158  0.2621 -0.0339  1.1563
   56CHL1    C9 4107   0.199   6.042   3.045  0.1171 -0.3635 -0.8282
   56CHL1    H9 4108   0.309   6.050   3.060 -0.1698  3.7560  0.3540
   56CHL1   C10 4109   0.179   6.087   2.896 -0.3511 -0.7862 -0.5376
   56CHL1   C19 4110   0.032   6.122   2.873 -0.3782  0.0024 -0.5126
   56CHL1  H19A 4111   0.001   6.215   2.927  1.0199  1.4406 -2.0474
   56CHL1  H19B 4112   0.016   6.140   2.765 -1.0331 -2.5457 -0.8981
   56CHL1  H19C 4113  -0.040   6.044   2.904 -1.1732  1.5395  1.8242
   56CHL1    C1 4114   0.260   6.228   2.883  0.5709 -0.0674 -0.4839
   56CHL1   H1A 4115   0.200   6.302   2.940 -0.2087  0.0001 -1.3516
   56CHL1   H1B 4116   0.361   6.222   2.929  0.7844  1.4405 -0.7007
   56CHL1    C2 4117   0.284   6.278   2.741  0.6080 -0.0997  0.3605
   56CHL1   H2A 4118   0.347   6.365   2.769 -0.0938  0.2588  0.8704
   56CHL1   H2B 4119   0.185   6.309   2.702  0.2335 -0.7441  0.7711
   56CHL1   C20 4120   0.086   5.856   3.575 -0.3605  0.2460  0.3383
   56CHL1   H20 4121  -0.017   5.813   3.572 -0.3686 -0.0167  2.6858
   56CHL1   C21 4122   0.061   6.007   3.619 -0.1400  0.0433  0.3329
   56CHL1  H21A 4123   0.006   6.069   3.545  0.7968 -0.0044 -0.4252
   56CHL1  H21B 4124   0.159   6.052   3.645 -1.5987  1.9927  2.8906
   56CHL1  H21C 4125  -0.003   6.006   3.710  1.5515 -2.0654  1.5882
   56CHL1   C22 4126   0.169   5.775   3.680  0.7357 -0.2632  0.5439
   56CHL1  H22A 4127   0.167   5.666   3.659 -0.7454 -0.6396  2.3912
   56CHL1  H22B 4128   0.273   5.815   3.692  0.5917 -0.4916  3.2012
   56CHL1   C23 4129   0.115   5.789   3.824  0.0098  0.0471  0.1981
   56CHL1  H23A 4130   0.127   5.894   3.859  0.1370 -0.4198  1.6315
   56CHL1  H23B 4131   0.007   5.763   3.832 -0.5066  1.5810 -1.2005
   56CHL1   C24 4132   0.211   5.709   3.920 -0.2513 -0.0203 -0.1738
   56CHL1  H24A 4133   0.201   5.600   3.902  1.8239 -0.3449  0.4110
   56CHL1  H24B 4134   0.314   5.743   3.897 -0.5270  0.9389 -0.0697
   56CHL1   C25 4135   0.180   5.732   4.068 -0.5415 -0.6507  0.6405
   56CHL1   H25 4136   0.180   5.842   4.085  0.1519 -0.7323  1.2068
   56CHL1   C26 4137   0.037   5.687   4.092 -0.3600  0.2576  0.2867
   56CHL1  H26A 4138   0.013   5.583   4.063 -0.0401  0.9283 -2.6517
   56CHL1  H26B 4139   0.030   5.701   4.202  1.7945 -0.4394  0.5561
   56CHL1  H26C 4140  -0.039   5.757   4.051 -0.5897 -0.9966 -1.5356
   56CHL1   C27 4141   0.270   5.660   4.173  0.2580  0.8030  0.0035
   56CHL1  H27A 4142   0.236   5.692   4.274 -0.6899 -0.8635  0.2439
   56CHL1  H27B 4143   0.267   5.550   4.160 -0.2987  0.6761  1.1312
   56CHL1  H27C 4144   0.374   5.694   4.156  0.0355  0.9913 -1.0729
   57SAPC     N 4145   6.070   4.438   6.615  0.1653  0.8427  0.0463
   57SAPC   C12 4146   5.923   4.460   6.586 -0.1915  0.4963  0.2494
   57SAPC  H12A 4147   5.887   4.359   6.574 -0.2872  0.1768  2.6028
   57SAPC  H12B 4148   5.909   4.519   6.497 -0.2059 -0.7214 -0.5725
   57SAPC   C13 4149   6.143   4.569   6.615  0.1149  0.7112  0.1869
   57SAPC  H13A 4150   6.239   4.552   6.662  1.5266  3.8258 -1.2252
   57SAPC  H13B 4151   6.159   4.607   6.514 -0.5515 -0.0159 -0.1977
   57SAPC  H13C 4152   6.077   4.642   6.659 -0.5508  0.6523 -0.6806
   57SAPC   C14 4153   6.077   4.370   6.744 -0.2886  0.0390  0.2795
   57SAPC  H14A 4154   6.042   4.423   6.832  1.3569  1.2056  0.2788
   57SAPC  H14B 4155   6.025   4.276   6.739 -1.9137  0.9321 -0.4241
   57SAPC  H14C 4156   6.178   4.341   6.771  0.2410  1.3727 -0.1847
   57SAPC   C15 4157   6.146   4.352   6.516  0.5602  0.0221 -0.4044
   57SAPC  H15A 4158   6.146   4.398   6.418  1.0505 -0.7994 -0.8001
   57SAPC  H15B 4159   6.244   4.337   6.558  1.2788  2.0007 -1.2671
   57SAPC  H15C 4160   6.094   4.257   6.507 -2.2672  1.3500  0.6450
   57SAPC   C11 4161   5.843   4.520   6.695  0.1016  0.4101 -0.2474
   57SAPC  H11A 4162   5.877   4.486   6.795 -1.1070 -0.0241  0.0273
   57SAPC  H11B 4163   5.737   4.487   6.688 -0.7657  2.0843  2.9182
   57SAPC     P 4164   5.781   4.758   6.584  0.1478  0.3221 -0.0875
   57SAPC   O13 4165   5.632   4.741   6.582 -0.2584  0.3441 -0.5277
   57SAPC   O14 4166   5.830   4.894   6.587  0.7286  0.2022  0.2239
   57SAPC   O12 4167   5.853   4.661   6.691 -0.5067 -0.3064 -0.2220
   57SAPC   O11 4168   5.843   4.697   6.452  0.4886 -0.4722 -0.4755
   57SAPC    C1 4169   5.857   4.780   6.343 -0.1815 -0.0590  0.2793
   57SAPC    HA 4170   5.773   4.851   6.329  0.6418  0.6940 -1.0766
   57SAPC    HB 4171   5.950   4.840   6.349  0.3206 -0.5522 -1.7273
   57SAPC    C2 4172   5.841   4.691   6.218  0.3946 -0.0534 -0.0163
   57SAPC    HS 4173   5.852   4.755   6.128  3.1007 -1.0594 -0.4856
   57SAPC   O21 4174   5.727   4.605   6.212  0.1747 -0.8311  0.5649
   57SAPC   C21 4175   5.612   4.672   6.212 -0.3772 -0.0662 -0.1193
   57SAPC   O22 4176   5.596   4.784   6.163 -0.4611 -0.2097  0.1078
   57SAPC   C22 4177   5.508   4.592   6.280  0.2588 -0.1313 -0.0413
   57SAPC   H2R 4178   5.499   4.488   6.242  1.4096 -2.5305  5.3144
   57SAPC   H2S 4179   5.539   4.572   6.385  0.6542 -1.1204 -0.3369
   57SAPC    C3 4180   5.967   4.598   6.203  0.4352 -0.6205  0.3272
   57SAPC    HX 4181   5.949   4.508   6.266  0.4934  0.2005  1.5547
   57SAPC    HY 4182   6.057   4.661   6.224  1.1643 -1.8452  0.9560
   57SAPC   O31 4183   5.972   4.556   6.068 -0.4454 -0.0328 -0.0170
   57SAPC   C31 4184   6.066   4.466   6.044  0.0719  0.4092  0.0355
   57SAPC   O32 4185   6.126   4.408   6.130  0.0761 -0.0731  0.4950
   57SAPC   C32 4186   6.096   4.431   5.900 -0.5394 -1.0546 -0.3351
   57SAPC   H2X 4187   6.177   4.357   5.886 -1.1690 -1.4161 -2.2504
   57SAPC   H2Y 4188   6.133   4.526   5.856  0.4403 -1.3310 -0.1379
   57SAPC   C23 4189   5.363   4.651   6.277 -0.2807  0.0578 -0.7292
   57SAPC   H3R 4190   5.378   4.760   6.289 -1.0376  0.5282 -3.5237
   57SAPC   H3S 4191   5.312   4.595   6.359  0.6892 -2.6536 -1.8319
   57SAPC   C24 4192   5.292   4.617   6.148  0.9393  0.3157  0.5058
   57SAPC   H4R 4193   5.291   4.508   6.126  2.6225  0.1524  1.0669
   57SAPC   H4S 4194   5.342   4.659   6.057 -1.9333  0.1210 -1.3078
   57SAPC   C25 4195   5.148   4.668   6.164 -0.1547 -0.2299  0.5764
   57SAPC   H5R 4196   5.105   4.624   6.255  1.1195  0.3293  1.4826
   57SAPC   C26 4197   5.084   4.766   6.104  0.2987 -0.6410  0.4355
   57SAPC   H6R 4198   4.979   4.784   6.129 -0.0263 -1.5897 -0.1767
   57SAPC   C27 4199   5.137   4.843   5.991 -0.5583 -0.0544 -1.2536
   57SAPC   H7R 4200   5.230   4.896   6.019 -2.4526  2.7056  0.3197
   57SAPC   H7S 4201   5.067   4.926   5.967 -1.5095 -0.5323 -0.2243
   57SAPC   C28 4202   5.170   4.779   5.858  0.3157  0.0615 -0.1763
   57SAPC   H8R 4203   5.136   4.675   5.847  0.5068 -0.2055  1.4050
   57SAPC   C29 4204   5.248   4.832   5.762  0.7947  0.2963 -0.6779
   57SAPC   H9R 4205   5.267   4.756   5.685 -0.8244 -3.1677  2.0720
   57SAPC  C210 4206   5.298   4.974   5.758 -0.2456 -0.5802 -0.1833
   57SAPC  H10R 4207   5.395   4.971   5.704  0.2550  1.3286  0.5275
   57SAPC  H10S 4208   5.332   4.999   5.861  1.5925 -2.4971 -0.2509
   57SAPC  C211 4209   5.201   5.062   5.691 -0.2617  0.3644  0.7415
   57SAPC  H11R 4210   5.113   5.095   5.749 -1.7146 -0.2129 -1.0118
   57SAPC  C212 4211   5.212   5.106   5.558  0.2697  0.1728  0.0734
   57SAPC  H12R 4212   5.123   5.155   5.516  0.4236 -0.8719 -1.5753
   57SAPC  C213 4213   5.326   5.067   5.464 -0.2413  0.3071 -0.2222
   57SAPC  H13R 4214   5.403   5.007   5.518 -0.8683 -1.3520 -1.1166
   57SAPC  H13S 4215   5.377   5.160   5.430  0.1247 -0.2381 -1.2021
   57SAPC  C214 4216   5.285   4.984   5.345 -0.7800  0.4500 -0.1950
   57SAPC  H14R 4217   5.281   4.876   5.364 -1.2533  0.5144  0.0821
   57SAPC  C215 4218   5.264   5.019   5.218 -0.1769  0.1855  0.5821
   57SAPC  H15R 4219   5.226   4.945   5.146  0.2696 -1.8362  2.3072
   57SAPC  C216 4220   5.255   5.165   5.176  0.8342 -0.1609  0.1067
   57SAPC  H16R 4221   5.337   5.188   5.105  1.8523 -2.9778  0.2447
   57SAPC  H16S 4222   5.265   5.231   5.265 -0.6413 -1.3143  1.1837
   57SAPC  C217 4223   5.112   5.207   5.122 -0.4240 -0.7188  0.0537
   57SAPC  H17R 4224   5.100   5.317   5.132  1.1818 -0.3348 -1.6924
   57SAPC  H17S 4225   5.032   5.173   5.191 -0.2628 -2.0904 -0.4010
   57SAPC  C218 4226   5.088   5.174   4.974 -0.1938 -0.1460 -0.4825
   57SAPC  H18R 4227   4.980   5.166   4.951 -0.1437  0.0878 -0.8100
   57SAPC  H18S 4228   5.142   5.083   4.941  1.2144  1.0198 -1.5302
   57SAPC  C219 4229   5.129   5.300   4.886  0.0669 -0.3715 -0.5838
   57SAPC  H19R 4230   5.226   5.344   4.919 -0.0336 -0.9881  0.6281
   57SAPC  H19S 4231   5.048   5.371   4.912  0.5786 -0.0273  0.1058
   57SAPC  C220 4232   5.128   5.266   4.734  0.1472  0.1771 -0.5359
   57SAPC  H20R 4233   5.146   5.355   4.671 -0.9366  0.9125  0.1706
   57SAPC  H20S 4234   5.034   5.209   4.711  1.3577 -1.6708 -1.1490
   57SAPC  H20T 4235   5.198   5.184   4.707  1.6765  0.2386  2.7847
   57SAPC   C33 4236   5.962   4.394   5.826  0.7441  0.8729 -0.0702
   57SAPC   H3X 4237   5.883   4.470   5.846 -3.9836 -2.8622 -2.4036
   57SAPC   H3Y 4238   5.923   4.297   5.864  0.8516  1.7840  2.5821
   57SAPC   C34 4239   5.970   4.390   5.672 -0.4515 -0.1498 -0.4521
   57SAPC   H4X 4240   6.029   4.305   5.630  1.7453  1.4123 -0.7017
   57SAPC   H4Y 4241   6.000   4.486   5.626 -0.9095 -1.2495 -3.2479
   57SAPC   C35 4242   5.826   4.384   5.620  0.7307  0.0661  0.3012
   57SAPC   H5X 4243   5.773   4.465   5.676 -0.8520 -2.1834  2.2494
   57SAPC   H5Y 4244   5.781   4.286   5.645  0.4830  0.1681  0.2575
   57SAPC   C36 4245   5.810   4.398   5.465 -0.3807  0.1129  0.1483
   57SAPC   H6X 4246   5.878   4.480   5.432 -1.6298  1.1797  0.1402
   57SAPC   H6Y 4247   5.703   4.422   5.447 -1.0023 -1.5794  1.3912
   57SAPC   C37 4248   5.836   4.271   5.387 -1.0952  0.5121 -0.0469
   57SAPC   H7X 4249   5.757   4.195   5.407 -0.2162 -0.1944  0.8870
   57SAPC   H7Y 4250   5.923   4.214   5.425 -2.2047 -0.6508  0.8593
   57SAPC   C38 4251   5.826   4.293   5.233 -0.0732 -0.3543  0.8848
   57SAPC   H8X 4252   5.824   4.194   5.182 -0.6582  0.4062 -0.6355
   57SAPC   H8Y 4253   5.912   4.347   5.190 -0.5598  1.4424  2.0851
   57SAPC   C39 4254   5.704   4.377   5.195 -0.0448 -0.1868  0.1632
   57SAPC   H9X 4255   5.721   4.483   5.221  1.3301 -0.0661 -1.0516
   57SAPC   H9Y 4256   5.618   4.357   5.262 -0.5418  2.6107  0.4720
   57SAPC  C310 4257   5.664   4.380   5.044 -0.2100  1.2895 -0.4102
   57SAPC  H10X 4258   5.752   4.407   4.981  0.1719  1.9099  0.3717
   57SAPC  H10Y 4259   5.592   4.463   5.031 -3.4067 -1.2560  0.0252
   57SAPC  C311 4260   5.598   4.245   5.002 -0.1914  0.7969 -0.4717
   57SAPC  H11X 4261   5.507   4.218   5.058 -0.4057  0.7185 -0.8545
   57SAPC  H11Y 4262   5.675   4.165   5.006 -0.0025  1.0103  0.3368
   57SAPC  C312 4263   5.541   4.260   4.854  0.1835  0.3469 -0.3699
   57SAPC  H12X 4264   5.612   4.313   4.787  1.4949  1.5077  1.8082
   57SAPC  H12Y 4265   5.448   4.319   4.849  0.3583  0.4912 -2.7152
   57SAPC  C313 4266   5.511   4.129   4.785 -0.1250 -0.3678 -0.0234
   57SAPC  H13X 4267   5.418   4.083   4.824 -0.8420 -0.1860 -1.4442
   57SAPC  H13Y 4268   5.592   4.058   4.812 -2.3241 -2.8877  0.3703
   57SAPC  C314 4269   5.511   4.136   4.627 -0.2576 -0.4647  0.0737
   57SAPC  H14X 4270   5.501   4.036   4.579  0.9960 -0.0388 -1.1240
   57SAPC  H14Y 4271   5.610   4.169   4.590  0.2144 -0.5319  1.2192
   57SAPC  C315 4272   5.411   4.228   4.568  0.3342 -0.0057  0.5313
   57SAPC  H15X 4273   5.447   4.332   4.583  3.8061 -1.4722  3.8026
   57SAPC  H15Y 4274   5.312   4.223   4.620 -0.7120 -2.6461 -1.5018
   57SAPC  C316 4275   5.372   4.194   4.416  1.1036 -0.2017  0.3376
   57SAPC  H16X 4276   5.286   4.254   4.380  0.2790 -2.1507 -1.1510
   57SAPC  H16Y 4277   5.324   4.093   4.416 -0.1836  0.3228  2.8996
   57SAPC  C317 4278   5.481   4.224   4.314  0.4953  0.6421  0.0230
   57SAPC  H17X 4279   5.560   4.152   4.345 -0.2031 -0.9088 -1.5549
   57SAPC  H17Y 4280   5.521   4.327   4.312  2.3748 -0.0300 -1.8064
   57SAPC  C318 4281   5.447   4.186   4.165 -0.1322 -0.3668  0.1752
   57SAPC  H18X 4282   5.384   4.094   4.165 -0.9411  0.1527  2.0692
   57SAPC  H18Y 4283   5.543   4.162   4.114  0.0388  0.8568 -0.1053
   57SAPC  H18Z 4284   5.384   4.264   4.118  1.3948 -0.5269 -2.3532
   58SAPC     N 4285   3.128   5.535   6.474 -0.0843 -0.5915  0.2411
   58SAPC   C12 4286   3.242   5.604   6.398  0.4636 -0.3425 -0.3656
   58SAPC  H12A 4287   3.211   5.611   6.295 -0.4867 -0.5660 -0.1047
   58SAPC  H12B 4288   3.328   5.540   6.408  0.1577 -0.7449 -0.2716
   58SAPC   C13 4289   3.000   5.602   6.435 -0.9145 -0.0907  0.1215
   58SAPC  H13A 4290   2.972   5.564   6.338 -1.1913  0.3734  0.0179
   58SAPC  H13B 4291   2.915   5.571   6.495 -0.2096 -3.6739 -0.5030
   58SAPC  H13C 4292   3.015   5.708   6.433  0.0041 -0.2186 -0.2112
   58SAPC   C14 4293   3.125   5.387   6.432  0.1479  0.0483  0.5791
   58SAPC  H14A 4294   3.054   5.334   6.494 -1.1998  0.6214 -0.4076
   58SAPC  H14B 4295   3.090   5.379   6.330  0.4865 -1.7897  0.5679
   58SAPC  H14C 4296   3.224   5.346   6.441 -0.0765 -0.6039  0.1284
   58SAPC   C15 4297   3.157   5.544   6.619  0.0171  0.1752  0.1928
   58SAPC  H15A 4298   3.256   5.510   6.645  1.1143  4.0577  1.8534
   58SAPC  H15B 4299   3.157   5.649   6.646 -1.6029 -0.0955  1.4709
   58SAPC  H15C 4300   3.080   5.497   6.679  0.7966 -1.3052  0.0660
   58SAPC   C11 4301   3.270   5.749   6.446 -0.5722  0.2818  0.1899
   58SAPC  H11A 4302   3.177   5.810   6.446 -0.7000  0.0832 -0.4330
   58SAPC  H11B 4303   3.339   5.790   6.369  0.0962 -1.8549 -0.4049
   58SAPC     P 4304   3.482   5.709   6.586  0.0059  0.1999  0.0807
   58SAPC   O13 4305   3.532   5.756   6.714  0.5802  0.5691 -0.5853
   58SAPC   O14 4306   3.498   5.563   6.558  0.0194  0.5352  0.6003
   58SAPC   O12 4307   3.330   5.756   6.577 -0.3799 -0.1217 -0.0798
   58SAPC   O11 4308   3.554   5.793   6.468 -0.6483 -0.2549 -0.0465
   58SAPC    C1 4309   3.559   5.937   6.489  0.0624 -0.2330 -0.3613
   58SAPC    HA 4310   3.467   5.977   6.537 -0.1448  0.9030 -1.6147
   58SAPC    HB 4311   3.645   5.965   6.554 -0.1136 -0.7809  0.1190
   58SAPC    C2 4312   3.583   6.028   6.368 -0.3599  0.3374 -0.0121
   58SAPC    HS 4313   3.609   6.134   6.390 -0.4880  0.4857 -0.5735
   58SAPC   O21 4314   3.481   6.021   6.273 -0.3311  0.0683 -0.1893
   58SAPC   C21 4315   3.375   6.087   6.306  0.0569  0.8275  0.6300
   58SAPC   O22 4316   3.360   6.154   6.406 -0.4831  0.3382 -0.0255
   58SAPC   C22 4317   3.266   6.072   6.205 -0.8587 -0.3536  0.6366
   58SAPC   H2R 4318   3.273   5.979   6.145  1.4539  0.0672  0.1730
   58SAPC   H2S 4319   3.177   6.074   6.271 -2.8600  0.0372 -1.9320
   58SAPC    C3 4320   3.714   5.989   6.290  0.2860  0.1396 -0.8284
   58SAPC    HX 4321   3.715   5.879   6.275  0.4252 -0.2321  1.5093
   58SAPC    HY 4322   3.796   5.989   6.365 -0.7686 -0.3643  0.3714
   58SAPC   O31 4323   3.741   6.062   6.168  0.2232 -0.2890 -0.0504
   58SAPC   C31 4324   3.686   6.026   6.049 -0.3086 -0.4176  0.4108
   58SAPC   O32 4325   3.631   5.919   6.031  0.1593  0.0626 -0.3200
   58SAPC   C32 4326   3.709   6.138   5.947 -0.6450  0.5531  0.1835
   58SAPC   H2X 4327   3.820   6.136   5.935 -0.6761 -1.8956 -0.1600
   58SAPC   H2Y 4328   3.681   6.236   5.991 -0.0836  1.0710 -0.5815
   58SAPC   C23 4329   3.282   6.189   6.100 -0.3159 -0.0574  0.7489
   58SAPC   H3R 4330   3.387   6.184   6.064 -0.5418  1.5136 -0.2465
   58SAPC   H3S 4331   3.269   6.281   6.161 -0.5960 -1.4594  2.9021
   58SAPC   C24 4332   3.180   6.194   5.986 -0.4832  0.5561 -0.1261
   58SAPC   H4R 4333   3.182   6.298   5.947  0.7841  1.0495  1.1624
   58SAPC   H4S 4334   3.081   6.185   6.035 -0.7243 -0.6863 -0.7824
   58SAPC   C25 4335   3.209   6.079   5.886  0.0178 -0.2948  0.2082
   58SAPC   H5R 4336   3.196   5.977   5.926  1.1147 -0.4893  0.1179
   58SAPC   C26 4337   3.241   6.100   5.757 -0.1289  0.2852 -0.3163
   58SAPC   H6R 4338   3.272   6.016   5.692 -0.8844 -0.5168  0.3411
   58SAPC   C27 4339   3.256   6.234   5.692 -0.2347 -0.5568  0.4524
   58SAPC   H7R 4340   3.351   6.211   5.639 -1.7917 -1.9267 -1.9250
   58SAPC   H7S 4341   3.272   6.328   5.748 -3.8345  0.6602 -0.2980
   58SAPC   C28 4342   3.156   6.271   5.583 -0.4921 -0.3381  0.4544
   58SAPC   H8R 4343   3.089   6.353   5.615  0.7602  1.7359 -1.9273
   58SAPC   C29 4344   3.151   6.230   5.459  0.7907  0.0834  0.4457
   58SAPC   H9R 4345   3.060   6.258   5.405  0.1015 -1.7742  0.5904
   58SAPC  C210 4346   3.228   6.121   5.390 -0.3954 -0.2477  0.4680
   58SAPC  H10R 4347   3.281   6.066   5.471 -0.1309 -0.1904  0.3355
   58SAPC  H10S 4348   3.294   6.185   5.328 -2.9527 -0.5473 -2.8697
   58SAPC  C211 4349   3.144   6.032   5.303  0.8803 -0.6957 -0.6179
   58SAPC  H11R 4350   3.049   5.995   5.342  0.7291  0.0929 -0.2251
   58SAPC  C212 4351   3.169   6.004   5.170 -0.6275  0.6444 -0.1207
   58SAPC  H12R 4352   3.102   5.932   5.121  1.0052 -0.1690 -1.2616
   58SAPC  C213 4353   3.296   6.035   5.102 -0.6063  1.0465  0.7871
   58SAPC  H13R 4354   3.309   5.949   5.033 -1.5541  0.9411  0.7184
   58SAPC  H13S 4355   3.390   6.024   5.161  0.6719  0.0690 -1.3362
   58SAPC  C214 4356   3.277   6.163   5.033  0.7899  0.1303  0.7707
   58SAPC  H14R 4357   3.253   6.245   5.103 -0.0751 -0.1691  0.8333
   58SAPC  C215 4358   3.307   6.193   4.903 -0.3248  0.1180  0.3250
   58SAPC  H15R 4359   3.306   6.300   4.874 -0.7552  0.3975  1.3291
   58SAPC  C216 4360   3.342   6.095   4.790 -0.2419 -0.1793 -0.1144
   58SAPC  H16R 4361   3.333   5.991   4.829 -1.7404 -0.7274 -1.7746
   58SAPC  H16S 4362   3.447   6.120   4.767 -0.3736  1.2292  0.7064
   58SAPC  C217 4363   3.256   6.107   4.665  0.1283 -0.6022 -0.0677
   58SAPC  H17R 4364   3.284   6.038   4.583  0.0135 -0.3001 -0.3608
   58SAPC  H17S 4365   3.260   6.211   4.627  0.4923 -1.3950 -2.3563
   58SAPC  C218 4366   3.109   6.076   4.702 -0.3161 -0.0103 -0.5472
   58SAPC  H18R 4367   3.087   6.140   4.790  3.8951  0.2584  0.5389
   58SAPC  H18S 4368   3.100   5.972   4.740  0.3359 -0.2504 -1.0247
   58SAPC  C219 4369   3.003   6.099   4.580  0.0894  0.0255  0.1184
   58SAPC  H19R 4370   3.002   6.206   4.548 -1.0982 -0.2748 -0.9241
   58SAPC  H19S 4371   2.899   6.090   4.620 -0.2968 -1.8554 -1.1729
   58SAPC  C220 4372   3.028   6.030   4.451 -0.3214 -0.0731  0.2850
   58SAPC  H20R 4373   2.963   6.073   4.372 -1.0705  0.4057  1.1361
   58SAPC  H20S 4374   2.990   5.927   4.466  0.1733 -0.1600  0.9970
   58SAPC  H20T 4375   3.133   6.024   4.416 -1.3598  1.2371 -3.4820
   58SAPC   C33 4376   3.640   6.107   5.811 -0.3626 -0.5857  0.4045
   58SAPC   H3X 4377   3.543   6.160   5.805  0.0335 -0.0066 -1.8330
   58SAPC   H3Y 4378   3.620   6.001   5.785  0.5862 -1.3478  2.5334
   58SAPC   C34 4379   3.713   6.162   5.688  0.2230 -0.6198  0.1779
   58SAPC   H4X 4380   3.813   6.118   5.703  0.9039  0.6625 -0.4300
   58SAPC   H4Y 4381   3.718   6.273   5.695  1.0391 -0.3419 -3.1208
   58SAPC   C35 4382   3.668   6.115   5.553  0.2366  0.0025 -0.6991
   58SAPC   H5X 4383   3.562   6.145   5.545  0.0558 -0.7938 -1.3770
   58SAPC   H5Y 4384   3.671   6.004   5.543 -0.2076 -0.0338 -0.4728
   58SAPC   C36 4385   3.745   6.180   5.442  0.5803  0.0843  0.3442
   58SAPC   H6X 4386   3.855   6.181   5.456  0.1926 -1.3119  5.7032
   58SAPC   H6Y 4387   3.728   6.289   5.459  0.7646  0.2451 -0.4689
   58SAPC   C37 4388   3.703   6.137   5.303  0.0871 -0.0713 -0.0321
   58SAPC   H7X 4389   3.609   6.191   5.276 -1.2198 -3.4520 -3.1574
   58SAPC   H7Y 4390   3.677   6.030   5.293  2.7926 -0.6414 -1.9213
   58SAPC   C38 4391   3.803   6.159   5.190 -0.0586  0.2096  0.1687
   58SAPC   H8X 4392   3.870   6.071   5.177 -0.8163 -0.3878  0.2547
   58SAPC   H8Y 4393   3.851   6.250   5.230 -2.0902  1.1386  0.5924
   58SAPC   C39 4394   3.739   6.201   5.059 -0.1792 -0.5260  0.8900
   58SAPC   H9X 4395   3.652   6.268   5.074 -0.7226 -0.9294 -0.2993
   58SAPC   H9Y 4396   3.707   6.109   5.005  0.1848 -0.5402  0.6967
   58SAPC  C310 4397   3.849   6.270   4.963 -0.0464  0.4772 -0.4267
   58SAPC  H10X 4398   3.940   6.205   4.955  0.1209  0.7565 -0.8367
   58SAPC  H10Y 4399   3.892   6.362   5.007 -1.4402  0.4361  1.1147
   58SAPC  C311 4400   3.790   6.286   4.824 -0.2696 -0.5245 -0.4949
   58SAPC  H11X 4401   3.724   6.201   4.795 -1.2356  0.0625 -0.0398
   58SAPC  H11Y 4402   3.873   6.293   4.750  1.5054  0.3218  1.4649
   58SAPC  C312 4403   3.695   6.401   4.815 -0.1935 -0.6502 -0.3665
   58SAPC  H12X 4404   3.748   6.497   4.825  0.1503 -1.0558  2.1071
   58SAPC  H12Y 4405   3.619   6.405   4.895 -1.4872  0.9466 -1.5925
   58SAPC  C313 4406   3.631   6.407   4.681  0.2299 -0.2942  0.5292
   58SAPC  H13X 4407   3.574   6.314   4.662  0.3119 -0.1930 -0.2417
   58SAPC  H13Y 4408   3.705   6.416   4.598  1.3615 -1.0439  1.4286
   58SAPC  C314 4409   3.532   6.524   4.665  0.1333 -0.0476  0.6086
   58SAPC  H14X 4410   3.594   6.616   4.671  1.9073 -1.2137  1.3210
   58SAPC  H14Y 4411   3.464   6.515   4.752  0.6401 -0.6711  0.9557
   58SAPC  C315 4412   3.456   6.512   4.529  0.3994 -0.2751  0.1893
   58SAPC  H15X 4413   3.398   6.417   4.535 -0.9971  0.5547  0.4493
   58SAPC  H15Y 4414   3.514   6.517   4.435  0.3901  3.1872  0.2421
   58SAPC  C316 4415   3.351   6.627   4.511  0.8099 -0.5800  0.2540
   58SAPC  H16X 4416   3.405   6.724   4.514 -1.4674  0.8480 -1.5795
   58SAPC  H16Y 4417   3.285   6.625   4.600 -2.8189  2.1704 -2.1092
   58SAPC  C317 4418   3.285   6.607   4.378  0.4918  0.2198 -0.8765
   58SAPC  H17X 4419   3.201   6.534   4.381 -0.6406  1.4257  2.7562
   58SAPC  H17Y 4420   3.351   6.584   4.291  0.7635  1.6755 -1.0802
   58SAPC  C318 4421   3.219   6.737   4.332 -0.0398 -0.0667 -0.3620
   58SAPC  H18X 4422   3.293   6.802   4.279  1.9212 -1.2127  0.8764
   58SAPC  H18Y 4423   3.178   6.786   4.423 -0.6936 -1.9454  0.3853
   58SAPC  H18Z 4424   3.137   6.710   4.261 -0.5435  0.7307 -0.0965
   59SAPC     N 4425   3.230   2.283   6.909 -0.1835 -0.6330  0.1500
   59SAPC   C12 4426   3.182   2.228   6.776 -0.5207  0.5711 -0.7907
   59SAPC  H12A 4427   3.094   2.170   6.798  0.7025 -0.7590  0.9831
   59SAPC  H12B 4428   3.248   2.148   6.745 -0.4529  0.3416 -0.0711
   59SAPC   C13 4429   3.334   2.395   6.895  0.0375 -0.2970  0.0749
   59SAPC  H13A 4430   3.363   2.438   6.989 -0.1159 -0.6774  0.2998
   59SAPC  H13B 4431   3.427   2.353   6.860 -0.3082 -1.2171  0.2213
   59SAPC  H13C 4432   3.306   2.479   6.834 -0.2877  1.7508  2.8633
   59SAPC   C14 4433   3.110   2.330   6.982  0.0072 -0.5412  0.1429
   59SAPC  H14A 4434   3.143   2.372   7.075 -0.4487 -1.4221  0.7237
   59SAPC  H14B 4435   3.058   2.410   6.931 -2.4531 -0.4878  2.5110
   59SAPC  H14C 4436   3.039   2.251   7.004  0.7012 -0.5418  2.5673
   59SAPC   C15 4437   3.285   2.175   6.985 -0.3050 -0.3779 -0.1505
   59SAPC  H15A 4438   3.306   2.198   7.088 -0.4466 -1.2686  0.0877
   59SAPC  H15B 4439   3.220   2.088   6.994 -1.5730  0.5783  0.2903
   59SAPC  H15C 4440   3.376   2.135   6.943  0.8598  2.4114 -0.4580
   59SAPC   C11 4441   3.139   2.319   6.662  0.2464 -0.4365 -0.1556
   59SAPC  H11A 4442   3.128   2.257   6.570 -0.8494 -1.1928  0.4604
   59SAPC  H11B 4443   3.228   2.384   6.643 -1.1020  1.8606  1.0131
   59SAPC     P 4444   2.880   2.362   6.668  0.0495  0.1411  0.0086
   59SAPC   O13 4445   2.888   2.218   6.636 -0.0555  0.4598  0.0778
   59SAPC   O14 4446   2.803   2.411   6.790  0.4450  0.0170  0.6226
   59SAPC   O12 4447   3.028   2.415   6.679  0.0225 -0.0200 -0.1610
   59SAPC   O11 4448   2.821   2.429   6.537 -0.0094  0.1259  0.2573
   59SAPC    C1 4449   2.885   2.546   6.482 -0.0969 -0.2827  0.2594
   59SAPC    HA 4450   2.946   2.602   6.555 -0.4846  0.2725  0.1685
   59SAPC    HB 4451   2.960   2.517   6.406  0.7847  1.6760  0.3221
   59SAPC    C2 4452   2.775   2.647   6.435 -0.7623 -0.5372  0.2692
   59SAPC    HS 4453   2.721   2.663   6.531  1.2118  0.5044  1.2814
   59SAPC   O21 4454   2.688   2.585   6.337 -0.4528 -0.2184 -0.6841
   59SAPC   C21 4455   2.561   2.637   6.329  0.0938  0.0121 -0.1225
   59SAPC   O22 4456   2.506   2.721   6.398  0.1504  0.0243 -0.4109
   59SAPC   C22 4457   2.495   2.557   6.215 -0.3259 -1.0199 -0.1358
   59SAPC   H2R 4458   2.572   2.545   6.135  1.8184  2.0091  1.2970
   59SAPC   H2S 4459   2.465   2.465   6.269 -1.3944 -1.8105 -1.9529
   59SAPC    C3 4460   2.837   2.776   6.365  0.1162 -0.1123  0.1493
   59SAPC    HX 4461   2.936   2.793   6.413  0.8074 -0.2277 -1.1840
   59SAPC    HY 4462   2.776   2.864   6.397  1.0833  1.2976 -1.6625
   59SAPC   O31 4463   2.855   2.760   6.221  0.0203  0.7614 -0.1315
   59SAPC   C31 4464   2.762   2.815   6.146 -0.0951  0.1486  0.0795
   59SAPC   O32 4465   2.664   2.881   6.181  0.0323  0.0489 -0.1058
   59SAPC   C32 4466   2.798   2.806   5.995  0.1602 -0.1347  0.6368
   59SAPC   H2X 4467   2.849   2.707   5.994 -0.6296 -0.5456  0.6983
   59SAPC   H2Y 4468   2.888   2.870   5.982  0.9417 -0.9388  1.8951
   59SAPC   C23 4469   2.367   2.618   6.156 -0.2738 -0.4533  0.1092
   59SAPC   H3R 4470   2.396   2.723   6.135  2.2436 -1.7072 -3.7087
   59SAPC   H3S 4471   2.290   2.613   6.236 -0.2067 -0.8062  0.1526
   59SAPC   C24 4472   2.318   2.550   6.026  0.1007 -0.2700 -0.0960
   59SAPC   H4R 4473   2.301   2.441   6.034 -0.0682 -0.2640 -0.3779
   59SAPC   H4S 4474   2.390   2.555   5.942  2.0129 -1.6543  1.3517
   59SAPC   C25 4475   2.192   2.617   5.986  0.1588 -0.8981  0.3340
   59SAPC   H5R 4476   2.099   2.599   6.041 -0.3412 -0.4882 -0.3561
   59SAPC   C26 4477   2.180   2.704   5.881  0.0879  0.6769 -0.6260
   59SAPC   H6R 4478   2.081   2.746   5.857  0.5910  2.6305  0.5275
   59SAPC   C27 4479   2.282   2.760   5.784  0.5796 -0.3019 -0.7056
   59SAPC   H7R 4480   2.384   2.773   5.827  0.9777  2.8970 -2.3110
   59SAPC   H7S 4481   2.255   2.863   5.753  0.3517 -0.4554 -1.0110
   59SAPC   C28 4482   2.293   2.660   5.674 -0.3643  0.1867  0.2612
   59SAPC   H8R 4483   2.343   2.565   5.701  0.8126  1.0819  1.3535
   59SAPC   C29 4484   2.257   2.674   5.544 -0.4266 -0.1024  0.0346
   59SAPC   H9R 4485   2.285   2.591   5.476  3.0034  1.5856 -0.8636
   59SAPC  C210 4486   2.192   2.797   5.468  0.1445  0.2241 -0.0613
   59SAPC  H10R 4487   2.206   2.779   5.359  0.0868 -0.5983  0.0596
   59SAPC  H10S 4488   2.252   2.885   5.499  0.3764  0.2513 -0.5669
   59SAPC  C211 4489   2.050   2.821   5.507  0.0019 -0.3983  0.5968
   59SAPC  H11R 4490   2.020   2.801   5.610 -0.0937 -0.7795  0.4951
   59SAPC  C212 4491   1.948   2.855   5.424 -0.2754 -0.3596 -0.1896
   59SAPC  H12R 4492   1.855   2.870   5.480  1.4958 -0.3221  2.9275
   59SAPC  C213 4493   1.951   2.868   5.273 -0.5522 -0.1072 -0.5074
   59SAPC  H13R 4494   1.997   2.780   5.224 -1.2054  0.1751 -1.6572
   59SAPC  H13S 4495   2.015   2.955   5.250  1.5789 -1.1462  1.1304
   59SAPC  C214 4496   1.809   2.892   5.215 -0.3855  0.4491 -0.3618
   59SAPC  H14R 4497   1.740   2.917   5.297 -0.5264 -0.4679 -0.1912
   59SAPC  C215 4498   1.778   2.897   5.091  0.0656 -1.1056 -0.0036
   59SAPC  H15R 4499   1.683   2.930   5.047 -0.0470  1.4840  1.9273
   59SAPC  C216 4500   1.875   2.874   4.982 -0.0999 -0.2515 -0.7436
   59SAPC  H16R 4501   1.838   2.795   4.913  0.6100  0.3961 -1.8970
   59SAPC  H16S 4502   1.976   2.849   5.022 -0.1501  0.8606  0.1215
   59SAPC  C217 4503   1.912   3.000   4.902  0.6884  0.5290  0.2886
   59SAPC  H17R 4504   1.978   2.984   4.814  0.3045  2.3352 -0.3804
   59SAPC  H17S 4505   1.977   3.065   4.965  2.4777 -0.7102 -0.1784
   59SAPC  C218 4506   1.782   3.066   4.845  0.1228 -0.0981 -0.3557
   59SAPC  H18R 4507   1.764   3.152   4.912 -1.1174  0.6620 -1.6097
   59SAPC  H18S 4508   1.690   3.005   4.836  0.8087 -1.0360 -1.2404
   59SAPC  C219 4509   1.815   3.132   4.714 -0.1468  0.0351 -0.1079
   59SAPC  H19R 4510   1.921   3.167   4.709  0.3570 -1.2914  0.7356
   59SAPC  H19S 4511   1.763   3.229   4.701  0.1304 -0.0136 -1.8993
   59SAPC  C220 4512   1.787   3.043   4.588 -0.3833 -0.1512 -0.4581
   59SAPC  H20R 4513   1.816   3.098   4.496  0.5766  1.7838  0.9026
   59SAPC  H20S 4514   1.682   3.009   4.598 -0.9296  1.5736  0.1992
   59SAPC  H20T 4515   1.851   2.955   4.610 -0.5251 -0.2400 -0.4009
   59SAPC   C33 4516   2.682   2.839   5.896 -0.0928  0.4141 -0.0912
   59SAPC   H3X 4517   2.681   2.950   5.887  2.1414  0.5103  0.3022
   59SAPC   H3Y 4518   2.591   2.788   5.935  0.5094 -1.8906 -1.5320
   59SAPC   C34 4519   2.711   2.786   5.754  0.1762  0.3356  0.1896
   59SAPC   H4X 4520   2.812   2.808   5.715 -0.5643  2.6161 -0.6455
   59SAPC   H4Y 4521   2.638   2.837   5.687 -0.7821  1.5027  2.0349
   59SAPC   C35 4522   2.705   2.635   5.745  0.6581 -0.4612 -0.4981
   59SAPC   H5X 4523   2.634   2.603   5.824  0.0270 -0.3530 -1.0139
   59SAPC   H5Y 4524   2.804   2.588   5.765  1.5482  0.6881 -1.9521
   59SAPC   C36 4525   2.639   2.576   5.624 -0.9518 -0.1480 -0.4421
   59SAPC   H6X 4526   2.530   2.597   5.624 -0.8984  0.6085  2.5315
   59SAPC   H6Y 4527   2.655   2.466   5.618 -2.1592 -0.2783 -1.7339
   59SAPC   C37 4528   2.714   2.623   5.497  1.0000 -0.1662  0.1779
   59SAPC   H7X 4529   2.824   2.609   5.507  1.4935  2.6317 -0.3656
   59SAPC   H7Y 4530   2.702   2.733   5.486  0.7521 -0.3514 -1.6637
   59SAPC   C38 4531   2.669   2.552   5.369 -0.3600  0.4251 -0.5043
   59SAPC   H8X 4532   2.680   2.442   5.384 -1.4834  0.5122  1.1097
   59SAPC   H8Y 4533   2.741   2.581   5.288  1.3951 -1.4510  0.2860
   59SAPC   C39 4534   2.533   2.583   5.303  0.0158 -0.3736  0.3498
   59SAPC   H9X 4535   2.521   2.694   5.308  0.7132 -0.1963 -1.2400
   59SAPC   H9Y 4536   2.449   2.537   5.359 -1.5684 -0.1839 -1.7176
   59SAPC  C310 4537   2.543   2.549   5.153  0.1858 -0.1190  0.5801
   59SAPC  H10X 4538   2.553   2.438   5.152 -1.1204 -0.3263  2.9950
   59SAPC  H10Y 4539   2.638   2.586   5.109  0.5450 -2.3837 -0.7209
   59SAPC  C311 4540   2.423   2.610   5.074  0.5645  0.4378 -0.2140
   59SAPC  H11X 4541   2.330   2.574   5.124 -0.5650 -1.7438 -3.5332
   59SAPC  H11Y 4542   2.412   2.565   4.973  0.5123 -0.7036  0.2795
   59SAPC  C312 4543   2.421   2.764   5.069 -0.1150  0.3079 -0.4221
   59SAPC  H12X 4544   2.500   2.806   5.003 -0.4899 -0.7221 -1.5707
   59SAPC  H12Y 4545   2.430   2.814   5.168  0.8405 -0.3070 -0.1795
   59SAPC  C313 4546   2.289   2.803   5.010  0.2502 -0.1948  0.2749
   59SAPC  H13X 4547   2.215   2.760   5.082  1.9353 -0.8411  1.6786
   59SAPC  H13Y 4548   2.273   2.769   4.906 -2.1892  0.6475  0.3002
   59SAPC  C314 4549   2.279   2.954   5.020  0.4653  0.3167  0.0670
   59SAPC  H14X 4550   2.310   2.977   5.124 -0.3240 -1.1489  0.6463
   59SAPC  H14Y 4551   2.173   2.989   5.020  0.2557 -0.1691 -1.8506
   59SAPC  C315 4552   2.368   3.026   4.924  0.4649 -0.7047  0.0017
   59SAPC  H15X 4553   2.420   2.964   4.847  0.4290 -1.1347  0.3212
   59SAPC  H15Y 4554   2.447   3.080   4.980  1.2148 -1.6463 -0.1202
   59SAPC  C316 4555   2.283   3.131   4.843  0.0869 -0.3476 -0.2341
   59SAPC  H16X 4556   2.236   3.198   4.917 -1.7133  0.2479 -1.8318
   59SAPC  H16Y 4557   2.210   3.068   4.788 -0.1438  0.5406 -0.9680
   59SAPC  C317 4558   2.365   3.222   4.754 -0.8974 -1.1661  0.4448
   59SAPC  H17X 4559   2.308   3.236   4.660  1.8726 -2.1701 -1.5235
   59SAPC  H17Y 4560   2.464   3.177   4.729 -0.7848  0.0503 -1.4655
   59SAPC  C318 4561   2.390   3.363   4.815  0.3095  0.3554 -0.0729
   59SAPC  H18X 4562   2.438   3.345   4.913  1.2607 -0.2581 -0.6294
   59SAPC  H18Y 4563   2.293   3.414   4.832 -0.3154 -1.0964  0.8858
   59SAPC  H18Z 4564   2.463   3.414   4.748  1.3332 -0.0237  0.7259
   60SAPC     N 4565   2.177   3.442   6.781 -0.1968 -0.1415 -0.3820
   60SAPC   C12 4566   2.316   3.515   6.792  0.0610 -0.2495  0.5123
   60SAPC  H12A 4567   2.352   3.518   6.894 -0.1499 -0.3581  0.5913
   60SAPC  H12B 4568   2.307   3.613   6.748  0.3292 -0.3339  0.2643
   60SAPC   C13 4569   2.114   3.469   6.641  0.0022 -0.3785  0.1276
   60SAPC  H13A 4570   2.028   3.406   6.624 -1.4017  0.8027  2.3798
   60SAPC  H13B 4571   2.092   3.574   6.652  1.3442  0.0060 -0.5937
   60SAPC  H13C 4572   2.184   3.459   6.560  1.2335  0.6414  1.0321
   60SAPC   C14 4573   2.203   3.299   6.794 -0.0183  1.0951 -0.2920
   60SAPC  H14A 4574   2.276   3.268   6.721 -0.7419  0.4659 -0.7573
   60SAPC  H14B 4575   2.237   3.266   6.891  0.4398 -0.5063 -0.9720
   60SAPC  H14C 4576   2.119   3.236   6.770  0.0774  0.7915  0.1444
   60SAPC   C15 4577   2.079   3.483   6.885  0.1590 -1.0720  0.3556
   60SAPC  H15A 4578   1.977   3.454   6.864 -0.7312  1.3425  1.0385
   60SAPC  H15B 4579   2.106   3.437   6.979 -0.2514 -0.8117  0.6074
   60SAPC  H15C 4580   2.061   3.589   6.891 -0.3674 -1.1284 -0.1609
   60SAPC   C11 4581   2.437   3.447   6.729 -0.4548  0.6855  0.4643
   60SAPC  H11A 4582   2.518   3.523   6.716 -0.2645  0.2254 -1.2088
   60SAPC  H11B 4583   2.423   3.417   6.624  1.6285  1.9429 -0.2209
   60SAPC     P 4584   2.612   3.330   6.894 -0.0504  0.0402 -0.0649
   60SAPC   O13 4585   2.627   3.471   6.944 -0.1786  0.2648  0.0658
   60SAPC   O14 4586   2.608   3.219   6.992 -0.1364  0.9261  0.3653
   60SAPC   O12 4587   2.477   3.336   6.809  0.1949 -0.2079  0.1821
   60SAPC   O11 4588   2.729   3.306   6.782  0.2117 -0.0588  0.4662
   60SAPC    C1 4589   2.755   3.184   6.729 -0.4840  0.5451  0.3267
   60SAPC    HA 4590   2.854   3.198   6.680  0.5906 -2.3249  1.4821
   60SAPC    HB 4591   2.771   3.105   6.805  1.5902  0.6046  0.0124
   60SAPC    C2 4592   2.665   3.129   6.613  0.1749  0.1687 -0.0120
   60SAPC    HS 4593   2.719   3.052   6.555 -1.3901 -0.4551 -0.7038
   60SAPC   O21 4594   2.617   3.235   6.533 -0.0119 -0.0979 -0.2622
   60SAPC   C21 4595   2.709   3.293   6.467 -0.2717  0.3799  0.2353
   60SAPC   O22 4596   2.824   3.251   6.455 -0.0472  0.4703 -0.1733
   60SAPC   C22 4597   2.649   3.413   6.388  0.3217 -0.0018  0.1334
   60SAPC   H2R 4598   2.606   3.389   6.288  2.5429  1.5482 -1.3021
   60SAPC   H2S 4599   2.568   3.455   6.452  0.6101 -1.0383  1.2145
   60SAPC    C3 4600   2.541   3.038   6.643  0.6565  0.2061 -0.4538
   60SAPC    HX 4601   2.470   3.094   6.707 -0.1336 -0.5879 -0.6144
   60SAPC    HY 4602   2.569   2.942   6.691 -0.5906 -0.2957 -0.7007
   60SAPC   O31 4603   2.481   3.000   6.513 -0.2625 -0.1852 -0.3952
   60SAPC   C31 4604   2.366   3.052   6.480 -0.4509  0.1722 -0.1637
   60SAPC   O32 4605   2.292   3.117   6.550  0.2242  0.3894 -0.2931
   60SAPC   C32 4606   2.334   3.013   6.340 -0.2337  0.5736 -0.6943
   60SAPC   H2X 4607   2.281   2.915   6.340 -1.6887  1.3212 -1.1523
   60SAPC   H2Y 4608   2.430   3.017   6.285  0.4735 -1.1717  0.3201
   60SAPC   C23 4609   2.741   3.537   6.362  0.3598 -0.2852  0.5013
   60SAPC   H3R 4610   2.794   3.565   6.455 -2.4134  3.6743  1.1501
   60SAPC   H3S 4611   2.689   3.632   6.339  3.5016  1.3652 -0.3286
   60SAPC   C24 4612   2.828   3.515   6.238 -0.4069 -0.1338 -0.2818
   60SAPC   H4R 4613   2.880   3.417   6.231  0.2622  0.2931 -1.7903
   60SAPC   H4S 4614   2.918   3.577   6.257 -0.9159  0.7975 -0.8559
   60SAPC   C25 4615   2.781   3.560   6.098 -0.3158  0.5063 -0.2170
   60SAPC   H5R 4616   2.777   3.670   6.089  2.8847  0.5349 -3.7072
   60SAPC   C26 4617   2.745   3.482   5.995 -0.3271 -0.0869  0.2560
   60SAPC   H6R 4618   2.732   3.528   5.896 -1.2021 -3.2336 -1.2242
   60SAPC   C27 4619   2.749   3.332   5.989 -0.7535  0.0991 -0.2799
   60SAPC   H7R 4620   2.821   3.293   6.064  1.3169  0.1093 -2.1414
   60SAPC   H7S 4621   2.795   3.298   5.893 -1.2009  1.2208 -0.9104
   60SAPC   C28 4622   2.618   3.257   6.011 -0.5788  0.6025  0.5648
   60SAPC   H8R 4623   2.603   3.236   6.118  0.0299 -1.7791  0.2346
   60SAPC   C29 4624   2.532   3.219   5.917 -0.3891 -0.4332 -0.5788
   60SAPC   H9R 4625   2.445   3.157   5.945 -0.7615  0.2719 -0.1609
   60SAPC  C210 4626   2.536   3.248   5.776 -1.7841  1.1033  0.9440
   60SAPC  H10R 4627   2.627   3.306   5.750 -0.2928 -1.3268  0.5010
   60SAPC  H10S 4628   2.457   3.319   5.742 -1.0365  1.9144  0.8550
   60SAPC  C211 4629   2.555   3.122   5.687 -0.3330 -0.1036 -0.4140
   60SAPC  H11R 4630   2.624   3.041   5.715 -2.6841 -1.8685  0.6053
   60SAPC  C212 4631   2.490   3.101   5.573  0.0150  0.5852  0.5419
   60SAPC  H12R 4632   2.523   3.013   5.514 -1.1804 -0.0814  0.8399
   60SAPC  C213 4633   2.395   3.193   5.507  1.1752  0.0216  0.0588
   60SAPC  H13R 4634   2.414   3.298   5.537  0.1883  0.5478 -1.1118
   60SAPC  H13S 4635   2.295   3.164   5.546  1.1989 -0.1134  0.0194
   60SAPC  C214 4636   2.395   3.188   5.359  0.4774  0.1812  0.4792
   60SAPC  H14R 4637   2.393   3.091   5.307 -3.9715  1.2483 -1.8214
   60SAPC  C215 4638   2.403   3.289   5.269  0.2417 -0.2296 -0.1219
   60SAPC  H15R 4639   2.405   3.263   5.162 -1.0502 -1.2330  0.0743
   60SAPC  C216 4640   2.436   3.432   5.308  0.2843  0.1376  0.1593
   60SAPC  H16R 4641   2.402   3.461   5.409  1.4867  1.7942  0.1226
   60SAPC  H16S 4642   2.362   3.493   5.251 -1.1077 -1.6229 -0.0318
   60SAPC  C217 4643   2.579   3.479   5.288  0.1426 -0.3905  0.1406
   60SAPC  H17R 4644   2.644   3.411   5.347 -0.1281 -0.0356  0.8642
   60SAPC  H17S 4645   2.592   3.581   5.329 -1.0484  0.4136 -1.3681
   60SAPC  C218 4646   2.624   3.484   5.142  0.4141 -0.4425  0.5051
   60SAPC  H18R 4647   2.605   3.384   5.098  1.1049  0.1359 -1.2103
   60SAPC  H18S 4648   2.735   3.487   5.136  0.5830 -0.4813  2.7830
   60SAPC  C219 4649   2.572   3.588   5.034  0.0124  0.1200 -0.6675
   60SAPC  H19R 4650   2.462   3.582   5.016 -0.1965  2.6388 -0.5632
   60SAPC  H19S 4651   2.619   3.579   4.934  0.4322  1.5668 -0.6171
   60SAPC  C220 4652   2.603   3.732   5.068  0.0015 -0.8354  0.3923
   60SAPC  H20R 4653   2.711   3.758   5.067  0.3308 -1.7307  3.1535
   60SAPC  H20S 4654   2.556   3.749   5.167 -0.1756 -2.4825  0.6327
   60SAPC  H20T 4655   2.558   3.795   4.989 -3.2630 -0.5295  2.3234
   60SAPC   C33 4656   2.239   3.114   6.273  0.3062 -0.4978 -0.1246
   60SAPC   H3X 4657   2.294   3.210   6.272  0.2606 -0.4673  0.2740
   60SAPC   H3Y 4658   2.148   3.129   6.335  0.1922  0.7925 -0.5803
   60SAPC   C34 4659   2.198   3.072   6.133  0.3161  0.8491  0.8420
   60SAPC   H4X 4660   2.119   2.996   6.153  0.1193  0.8045 -0.0600
   60SAPC   H4Y 4661   2.286   3.019   6.091 -0.0368  0.1114  1.0085
   60SAPC   C35 4662   2.136   3.170   6.029 -0.6031  0.5724 -0.1262
   60SAPC   H5X 4663   2.217   3.241   5.999 -2.3063  1.8783 -1.8790
   60SAPC   H5Y 4664   2.054   3.232   6.071  2.0316  3.0152  1.8222
   60SAPC   C36 4665   2.089   3.104   5.895  0.0876  0.5746 -0.2124
   60SAPC   H6X 4666   2.008   3.029   5.909  2.9238 -3.3256 -2.7438
   60SAPC   H6Y 4667   2.178   3.042   5.869  1.5236  2.9643 -1.3072
   60SAPC   C37 4668   2.044   3.206   5.791  0.1533 -0.4498 -0.2406
   60SAPC   H7X 4669   2.127   3.279   5.784 -0.2289 -0.1265 -1.6431
   60SAPC   H7Y 4670   1.949   3.257   5.821 -0.2819 -0.6420 -1.2489
   60SAPC   C38 4671   2.025   3.157   5.648  0.3606  0.1534  0.3839
   60SAPC   H8X 4672   1.935   3.092   5.650 -1.2129  2.2309  0.6667
   60SAPC   H8Y 4673   2.103   3.085   5.615 -0.6856 -1.1523  0.6642
   60SAPC   C39 4674   1.974   3.265   5.537 -0.1386 -0.3872 -0.8439
   60SAPC   H9X 4675   2.045   3.350   5.543 -0.9949  0.3169 -0.4212
   60SAPC   H9Y 4676   1.878   3.308   5.574  1.0015  0.8370  0.8142
   60SAPC  C310 4677   1.959   3.196   5.402  0.5212  0.1275 -0.6851
   60SAPC  H10X 4678   1.868   3.134   5.390  0.9308 -0.6058 -0.1343
   60SAPC  H10Y 4679   2.051   3.135   5.389  2.1401  2.3508 -0.3492
   60SAPC  C311 4680   1.937   3.309   5.301  0.2768 -0.5197 -0.0348
   60SAPC  H11X 4681   2.034   3.363   5.298 -1.0111  2.1895  2.1771
   60SAPC  H11Y 4682   1.862   3.379   5.343  0.1182 -0.2453 -0.7777
   60SAPC  C312 4683   1.900   3.276   5.164 -0.0998  0.6347 -0.6214
   60SAPC  H12X 4684   1.849   3.178   5.178 -1.1538  1.3117  0.4722
   60SAPC  H12Y 4685   1.990   3.268   5.099 -0.5185  0.7669 -1.2343
   60SAPC  C313 4686   1.807   3.374   5.099  0.9817  0.5015 -0.1506
   60SAPC  H13X 4687   1.797   3.341   4.994 -2.1075  0.2821  0.1212
   60SAPC  H13Y 4688   1.851   3.475   5.093  0.6524  0.5848 -1.3061
   60SAPC  C314 4689   1.666   3.373   5.159 -0.0598 -0.2387  0.8237
   60SAPC  H14X 4690   1.654   3.472   5.209 -2.8259  1.1404 -2.1521
   60SAPC  H14Y 4691   1.667   3.288   5.230  1.9587 -1.7068 -0.8517
   60SAPC  C315 4692   1.540   3.359   5.069  0.0365  0.3869  0.5530
   60SAPC  H15X 4693   1.453   3.358   5.138  0.2084 -1.1681  0.7945
   60SAPC  H15Y 4694   1.535   3.261   5.017 -0.7346  0.6678  0.0893
   60SAPC  C316 4695   1.522   3.482   4.974  0.1470 -0.0420 -0.6453
   60SAPC  H16X 4696   1.570   3.467   4.875 -2.4339 -0.2168 -1.9616
   60SAPC  H16Y 4697   1.587   3.557   5.025  0.4283 -0.9440  0.3759
   60SAPC  C317 4698   1.377   3.529   4.953  0.2441  0.1499  0.6465
   60SAPC  H17X 4699   1.384   3.621   4.891  2.8729 -0.4442 -0.0925
   60SAPC  H17Y 4700   1.337   3.555   5.053  0.9619 -0.3220  1.0624
   60SAPC  C318 4701   1.277   3.434   4.882  0.3903  0.4341 -0.3484
   60SAPC  H18X 4702   1.173   3.468   4.898  0.2576 -0.1072 -0.0704
   60SAPC  H18Y 4703   1.290   3.326   4.904  1.6853  1.0138  2.1064
   60SAPC  H18Z 4704   1.294   3.448   4.773  2.1249 -2.1328 -0.4926
   61SAPC     N 4705   2.418   2.100   7.160  0.1497 -0.3192 -0.5198
   61SAPC   C12 4706   2.291   2.027   7.125 -0.9566 -0.6816 -0.5674
   61SAPC  H12A 4707   2.306   1.999   7.021 -0.2124 -1.9641 -0.1396
   61SAPC  H12B 4708   2.209   2.097   7.131 -1.8416 -1.5095 -2.3100
   61SAPC   C13 4709   2.424   2.123   7.308 -0.5545  0.1296  0.4910
   61SAPC  H13A 4710   2.528   2.150   7.321 -0.0077 -0.2333 -2.3926
   61SAPC  H13B 4711   2.354   2.194   7.349 -0.0427 -0.1403  1.8976
   61SAPC  H13C 4712   2.418   2.031   7.365 -0.7401 -0.4521 -0.4433
   61SAPC   C14 4713   2.542   2.039   7.111  0.2953 -0.3194  0.7176
   61SAPC  H14A 4714   2.628   2.102   7.129  0.9666 -1.5173  1.8101
   61SAPC  H14B 4715   2.559   1.941   7.153 -1.1984 -1.7030 -1.6456
   61SAPC  H14C 4716   2.534   2.023   7.004 -2.4341  1.2095  0.5885
   61SAPC   C15 4717   2.411   2.243   7.107 -0.4221  0.4273  0.3379
   61SAPC  H15A 4718   2.509   2.283   7.129  1.2392 -3.7985  1.5004
   61SAPC  H15B 4719   2.397   2.253   7.000 -1.8901  1.2703  0.5799
   61SAPC  H15C 4720   2.328   2.294   7.155 -0.2111  1.6296 -0.5245
   61SAPC   C11 4721   2.254   1.901   7.206  0.0871 -0.0648  0.3427
   61SAPC  H11A 4722   2.233   1.925   7.312 -1.2412 -2.7650  0.7674
   61SAPC  H11B 4723   2.344   1.835   7.202  1.3991  1.6940 -1.5606
   61SAPC     P 4724   2.118   1.761   7.027 -0.1503 -0.0470 -0.2087
   61SAPC   O13 4725   2.220   1.657   7.025  0.2454  0.3292  0.2638
   61SAPC   O14 4726   1.976   1.706   7.017  0.0466 -0.2569 -0.3274
   61SAPC   O12 4727   2.131   1.849   7.157 -0.8435  0.1533 -0.1904
   61SAPC   O11 4728   2.151   1.871   6.912 -0.2198  0.1283 -0.1148
   61SAPC    C1 4729   2.055   1.982   6.889  0.2411 -0.0411  0.1827
   61SAPC    HA 4730   1.950   1.944   6.885  0.7531 -1.4394 -0.5059
   61SAPC    HB 4731   2.067   2.050   6.976  2.2088 -0.9857  0.7109
   61SAPC    C2 4732   2.067   2.070   6.760 -0.9089  0.1588 -0.6566
   61SAPC    HS 4733   1.988   2.148   6.772 -1.4785 -0.6549  1.1937
   61SAPC   O21 4734   2.045   1.981   6.646 -0.8685 -0.1722 -0.1532
   61SAPC   C21 4735   1.917   1.946   6.631 -0.4496 -0.0468  0.6225
   61SAPC   O22 4736   1.820   1.963   6.697 -0.5304 -0.1267  0.0226
   61SAPC   C22 4737   1.910   1.894   6.485 -0.3579  0.5907  0.6580
   61SAPC   H2R 4738   1.799   1.889   6.480 -0.3448  0.7853  0.1522
   61SAPC   H2S 4739   1.936   1.973   6.411  0.9052  0.1761  0.6352
   61SAPC    C3 4740   2.206   2.143   6.759  0.3431  0.1468  0.0020
   61SAPC    HX 4741   2.284   2.064   6.760 -1.2710 -1.5350 -0.3124
   61SAPC    HY 4742   2.224   2.208   6.847  1.5518 -0.8998  0.5616
   61SAPC   O31 4743   2.219   2.224   6.638 -0.8649  0.9410 -0.1496
   61SAPC   C31 4744   2.285   2.188   6.528 -0.4872  0.1263 -0.0281
   61SAPC   O32 4745   2.366   2.092   6.520  0.4213 -0.4125 -0.0371
   61SAPC   C32 4746   2.233   2.270   6.406 -0.5187  0.4185 -0.3658
   61SAPC   H2X 4747   2.317   2.336   6.376  0.5688 -1.1090 -0.8181
   61SAPC   H2Y 4748   2.150   2.336   6.440 -0.6761  1.0782 -1.9370
   61SAPC   C23 4749   1.987   1.755   6.466 -0.3216 -0.5643  0.1360
   61SAPC   H3R 4750   1.933   1.659   6.477  1.0002 -1.2557  0.8542
   61SAPC   H3S 4751   2.074   1.756   6.535  0.8893 -0.6917 -1.3260
   61SAPC   C24 4752   2.045   1.743   6.321 -0.6495  0.4026  0.8095
   61SAPC   H4R 4753   2.118   1.826   6.308  0.4878 -0.7027 -0.2689
   61SAPC   H4S 4754   1.966   1.775   6.249  0.3970 -0.6920 -0.9020
   61SAPC   C25 4755   2.109   1.601   6.297  0.9527  0.4034 -0.8791
   61SAPC   H5R 4756   2.090   1.519   6.368 -0.5746  1.7934  0.4081
   61SAPC   C26 4757   2.176   1.564   6.186 -0.3930 -0.0523  0.1697
   61SAPC   H6R 4758   2.229   1.467   6.185 -0.4152 -0.0940  1.6248
   61SAPC   C27 4759   2.220   1.661   6.076 -0.2836  0.7212 -0.2860
   61SAPC   H7R 4760   2.185   1.763   6.101  0.4991  0.1670  3.9288
   61SAPC   H7S 4761   2.166   1.633   5.984 -1.3567  1.4693  0.0970
   61SAPC   C28 4762   2.370   1.649   6.065 -0.3039 -0.4279 -0.5456
   61SAPC   H8R 4763   2.430   1.686   6.150  1.5477 -0.3426 -1.8307
   61SAPC   C29 4764   2.444   1.605   5.960 -0.4516 -0.0907  0.5551
   61SAPC   H9R 4765   2.551   1.604   5.981 -0.9283 -1.3003  3.3718
   61SAPC  C210 4766   2.400   1.538   5.835 -0.3844 -0.2101 -0.2433
   61SAPC  H10R 4767   2.305   1.480   5.845 -0.1454 -0.5993 -0.2084
   61SAPC  H10S 4768   2.474   1.457   5.818 -1.9896 -1.5167 -1.3747
   61SAPC  C211 4769   2.400   1.644   5.722 -0.0092 -0.0075 -0.8562
   61SAPC  H11R 4770   2.446   1.741   5.746 -1.4480  0.3158  0.7996
   61SAPC  C212 4771   2.357   1.629   5.590  0.8749  0.0254 -0.4087
   61SAPC  H12R 4772   2.360   1.710   5.517  2.2108  2.0495  1.7421
   61SAPC  C213 4773   2.288   1.512   5.540  0.1438  0.0652  0.1658
   61SAPC  H13R 4774   2.283   1.433   5.619  2.8963 -1.9008 -1.4507
   61SAPC  H13S 4775   2.349   1.474   5.455 -2.4570 -1.1189 -1.3081
   61SAPC  C214 4776   2.150   1.546   5.494  0.4982 -0.3931 -0.2112
   61SAPC  H14R 4777   2.083   1.575   5.576  0.0874  0.5285 -0.8549
   61SAPC  C215 4778   2.104   1.556   5.369  0.5787 -0.8636 -0.1691
   61SAPC  H15R 4779   2.001   1.593   5.355 -0.0728 -1.4099  2.5102
   61SAPC  C216 4780   2.180   1.531   5.245  0.0863  0.6321  0.7794
   61SAPC  H16R 4781   2.109   1.523   5.160  1.4243 -0.7129 -0.2805
   61SAPC  H16S 4782   2.227   1.430   5.241 -1.7606 -0.3191  1.8537
   61SAPC  C217 4783   2.292   1.641   5.209  0.2391  0.1196  0.1826
   61SAPC  H17R 4784   2.385   1.601   5.254 -0.1865 -0.6293  0.4039
   61SAPC  H17S 4785   2.262   1.736   5.258  0.9406  0.4993 -0.0948
   61SAPC  C218 4786   2.314   1.664   5.056  0.3182 -0.6542  0.4154
   61SAPC  H18R 4787   2.371   1.757   5.034  0.8492 -0.8599  0.8864
   61SAPC  H18S 4788   2.218   1.679   5.004  0.9831 -0.1946 -0.7208
   61SAPC  C219 4789   2.378   1.549   4.980 -0.2236 -1.2642 -0.9657
   61SAPC  H19R 4790   2.317   1.457   4.992 -1.0553 -0.6912 -0.6871
   61SAPC  H19S 4791   2.473   1.524   5.032  1.2895 -0.2891 -3.1046
   61SAPC  C220 4792   2.421   1.572   4.837  0.6225  0.5103  0.3618
   61SAPC  H20R 4793   2.481   1.484   4.804 -1.8307 -1.0168 -0.2684
   61SAPC  H20S 4794   2.480   1.666   4.823 -0.2741  0.7940 -2.0454
   61SAPC  H20T 4795   2.334   1.568   4.768 -0.8764  1.5917  2.0915
   61SAPC   C33 4796   2.190   2.177   6.287 -0.0963  0.0202 -1.0146
   61SAPC   H3X 4797   2.100   2.217   6.237 -0.4664 -0.5062 -0.7785
   61SAPC   H3Y 4798   2.141   2.091   6.338 -1.2250  0.6525 -1.0165
   61SAPC   C34 4799   2.310   2.150   6.189 -0.3761  0.3170 -0.7562
   61SAPC   H4X 4800   2.400   2.124   6.249 -0.1561  2.0148 -0.2986
   61SAPC   H4Y 4801   2.334   2.247   6.139 -2.3899  1.1937 -0.1097
   61SAPC   C35 4802   2.278   2.057   6.079  0.8041 -0.0489  0.7593
   61SAPC   H5X 4803   2.191   2.098   6.023 -0.1230  0.0917  2.2451
   61SAPC   H5Y 4804   2.243   1.962   6.123  0.0456  0.5677  1.5236
   61SAPC   C36 4805   2.388   2.027   5.976 -0.1738  0.5539  0.5967
   61SAPC   H6X 4806   2.394   1.921   5.944  1.1522  0.7717  0.0088
   61SAPC   H6Y 4807   2.493   2.035   6.012  0.0320 -1.3462  0.5217
   61SAPC   C37 4808   2.392   2.106   5.844 -0.8172  0.6234  0.3677
   61SAPC   H7X 4809   2.472   2.067   5.777 -3.2628 -2.6128 -0.9055
   61SAPC   H7Y 4810   2.417   2.214   5.854  0.2027  0.2287  2.8248
   61SAPC   C38 4811   2.263   2.088   5.758 -0.0013 -0.4665 -0.3352
   61SAPC   H8X 4812   2.277   2.144   5.663 -2.4256 -0.3008 -0.6392
   61SAPC   H8Y 4813   2.177   2.140   5.805 -1.5108 -0.0153 -3.3740
   61SAPC   C39 4814   2.215   1.947   5.727 -0.0165 -0.0453  0.0876
   61SAPC   H9X 4815   2.215   1.888   5.822 -0.3692 -3.3648 -1.7970
   61SAPC   H9Y 4816   2.291   1.899   5.661 -0.9266 -0.1906 -0.8695
   61SAPC  C310 4817   2.083   1.931   5.658 -0.2274 -0.3839 -0.0029
   61SAPC  H10X 4818   2.011   1.991   5.718  1.3769  0.2989  1.3347
   61SAPC  H10Y 4819   2.058   1.822   5.663 -0.8141 -0.2799 -0.6004
   61SAPC  C311 4820   2.090   1.981   5.513  0.0561  0.5122 -0.3908
   61SAPC  H11X 4821   2.161   1.925   5.449  0.6940  0.6679  0.1770
   61SAPC  H11Y 4822   2.128   2.085   5.506  1.3938 -0.0085 -1.1902
   61SAPC  C312 4823   1.956   1.954   5.439 -0.1169 -0.2073  0.1641
   61SAPC  H12X 4824   1.876   2.004   5.497 -2.5245 -1.3722 -1.9646
   61SAPC  H12Y 4825   1.942   1.845   5.451  1.5651 -0.4649  0.0817
   61SAPC  C313 4826   1.950   1.990   5.288  0.1243 -0.0163 -0.2104
   61SAPC  H13X 4827   2.048   2.036   5.262  0.3349  0.0470  0.6533
   61SAPC  H13Y 4828   1.867   2.063   5.273 -1.2170 -1.6286 -0.8728
   61SAPC  C314 4829   1.940   1.865   5.196  0.4074 -0.9615 -0.1661
   61SAPC  H14X 4830   1.897   1.779   5.253  0.2609 -0.6496  0.1995
   61SAPC  H14Y 4831   2.045   1.832   5.182  0.4665 -1.1360  0.6259
   61SAPC  C315 4832   1.886   1.913   5.062  1.1298 -0.3110 -0.0454
   61SAPC  H15X 4833   1.946   2.000   5.028  0.6407 -0.6389 -1.8630
   61SAPC  H15Y 4834   1.780   1.946   5.070  0.6377 -1.1927 -2.3065
   61SAPC  C316 4835   1.891   1.808   4.954  0.4053  0.0001 -0.0064
   61SAPC  H16X 4836   1.991   1.760   4.956 -0.1575 -1.2243  1.9469
   61SAPC  H16Y 4837   1.875   1.868   4.862 -2.1243  2.0431  1.6246
   61SAPC  C317 4838   1.774   1.711   4.967  1.2481  0.1762 -0.3430
   61SAPC  H17X 4839   1.676   1.761   4.949  1.1450 -0.1712 -0.7760
   61SAPC  H17Y 4840   1.774   1.674   5.072  1.6088  0.6834 -0.1637
   61SAPC  C318 4841   1.788   1.571   4.893  0.4779  0.0314 -0.6920
   61SAPC  H18X 4842   1.695   1.514   4.912  0.4873 -0.4770 -2.0538
   61SAPC  H18Y 4843   1.871   1.509   4.932  0.4121  0.2637 -0.1714
   61SAPC  H18Z 4844   1.792   1.573   4.782 -2.2903  1.1729 -0.8637
   62SAPC     N 4845   2.185   0.218   6.917 -0.2488  0.2751 -0.1226
   62SAPC   C12 4846   2.241   0.293   6.800 -0.3456 -0.2091  0.2820
   62SAPC  H12A 4847   2.343   0.326   6.811  0.0836 -1.6810  0.9243
   62SAPC  H12B 4848   2.173   0.372   6.771  1.3553  0.8515 -1.0346
   62SAPC   C13 4849   2.285   0.116   6.971  0.3751 -0.1358 -0.0688
   62SAPC  H13A 4850   2.247   0.067   7.059  0.2609  2.7029  1.5778
   62SAPC  H13B 4851   2.302   0.047   6.890 -0.4719  1.0880 -1.3506
   62SAPC  H13C 4852   2.375   0.174   6.985 -0.1755  1.1652 -1.5768
   62SAPC   C14 4853   2.168   0.318   7.033 -0.1902  0.3930  0.0208
   62SAPC  H14A 4854   2.110   0.278   7.115  1.7772  1.2499  1.9094
   62SAPC  H14B 4855   2.258   0.353   7.081 -0.2375 -1.4752  1.6113
   62SAPC  H14C 4856   2.123   0.408   6.996  0.9897  1.4846  1.1602
   62SAPC   C15 4857   2.052   0.160   6.881 -0.7324 -0.6020 -0.2114
   62SAPC  H15A 4858   2.057   0.078   6.811 -0.2505 -0.7330 -0.0195
   62SAPC  H15B 4859   1.994   0.131   6.968 -1.5270  1.8158  0.1451
   62SAPC  H15C 4860   1.987   0.239   6.846  2.5358  2.1330 -0.5841
   62SAPC   C11 4861   2.239   0.209   6.668 -0.7824  0.4549 -0.6711
   62SAPC  H11A 4862   2.271   0.282   6.590  0.0610 -0.7791 -1.4987
   62SAPC  H11B 4863   2.133   0.186   6.645 -0.4920 -0.6096 -0.9723
   62SAPC     P 4864   2.458   0.073   6.632 -0.2818 -0.0132  0.2528
   62SAPC   O13 4865   2.522   0.198   6.569  0.1922 -0.4666 -0.1066
   62SAPC   O14 4866   2.530  -0.003   6.738 -0.3195  0.4980  0.0918
   62SAPC   O12 4867   2.313   0.089   6.683 -0.5175 -0.5425  0.2386
   62SAPC   O11 4868   2.431  -0.033   6.506 -0.4047 -0.7991  0.3316
   62SAPC    C1 4869   2.305  -0.057   6.440  0.1789 -0.1028 -0.1803
   62SAPC    HA 4870   2.285  -0.166   6.432  0.2330  0.0092 -2.8341
   62SAPC    HB 4871   2.217  -0.030   6.502  0.4000 -3.4593  1.8013
   62SAPC    C2 4872   2.294   0.021   6.300  0.4173  0.0508  0.2062
   62SAPC    HS 4873   2.199  -0.020   6.258 -1.2982  2.0656  1.8579
   62SAPC   O21 4874   2.397  -0.005   6.208  0.2623  0.4143  0.8355
   62SAPC   C21 4875   2.407  -0.126   6.162  0.0548  0.2343  0.0290
   62SAPC   O22 4876   2.350  -0.225   6.204 -0.0362 -0.7664 -0.0186
   62SAPC   C22 4877   2.491  -0.113   6.031  0.1336  0.0390  0.0387
   62SAPC   H2R 4878   2.550  -0.019   6.036 -0.0862  0.1051  2.2439
   62SAPC   H2S 4879   2.558  -0.201   6.026 -0.5350 -0.4937  0.2976
   62SAPC    C3 4880   2.264   0.170   6.317 -1.2930  0.2957 -0.0318
   62SAPC    HX 4881   2.345   0.229   6.364  0.5169 -0.1209 -2.4365
   62SAPC    HY 4882   2.170   0.177   6.376 -2.7171 -1.2145 -1.9797
   62SAPC   O31 4883   2.223   0.225   6.185 -0.3509 -0.7006  0.1206
   62SAPC   C31 4884   2.320   0.291   6.127 -0.0050  0.2071  0.1255
   62SAPC   O32 4885   2.431   0.301   6.167 -0.4445  0.1304  0.4099
   62SAPC   C32 4886   2.259   0.365   6.003 -0.8904 -0.3003 -0.8525
   62SAPC   H2X 4887   2.306   0.465   5.991 -0.5372 -0.4928 -1.0966
   62SAPC   H2Y 4888   2.154   0.388   6.034 -0.0116  0.4709  1.8192
   62SAPC   C23 4889   2.406  -0.096   5.908 -0.0705 -0.6842  0.2729
   62SAPC   H3R 4890   2.316  -0.037   5.938  0.5778  0.2811  0.3838
   62SAPC   H3S 4891   2.374  -0.198   5.879 -1.9049 -0.0244 -0.1757
   62SAPC   C24 4892   2.479  -0.015   5.799  0.5454 -0.5439  0.2983
   62SAPC   H4R 4893   2.528   0.070   5.851 -1.5785  0.9587 -0.0279
   62SAPC   H4S 4894   2.403   0.030   5.732 -1.4228 -2.3833  1.2016
   62SAPC   C25 4895   2.582  -0.102   5.730 -0.6499  0.0321  0.0833
   62SAPC   H5R 4896   2.678  -0.098   5.783  0.9689  2.0735 -2.6928
   62SAPC   C26 4897   2.581  -0.169   5.613 -0.4207  0.2163 -0.8566
   62SAPC   H6R 4898   2.665  -0.232   5.580  2.0648  1.9944  1.6012
   62SAPC   C27 4899   2.467  -0.162   5.519  0.2369  0.5180  0.0076
   62SAPC   H7R 4900   2.509  -0.143   5.418 -1.6283 -3.5381 -1.7698
   62SAPC   H7S 4901   2.407  -0.073   5.547 -0.5830 -0.0867  0.2126
   62SAPC   C28 4902   2.394  -0.298   5.523  0.2719  0.4397  0.1371
   62SAPC   H8R 4903   2.387  -0.345   5.622 -0.9001  2.8168  1.2581
   62SAPC   C29 4904   2.337  -0.364   5.423  0.0450 -0.1181  0.2592
   62SAPC   H9R 4905   2.296  -0.466   5.437  2.6550 -1.3188 -0.3106
   62SAPC  C210 4906   2.334  -0.317   5.278  0.1523  0.6844 -0.5884
   62SAPC  H10R 4907   2.357  -0.209   5.279 -3.1659  1.5393 -1.6488
   62SAPC  H10S 4908   2.230  -0.314   5.237  0.1427  1.0305 -0.5372
   62SAPC  C211 4909   2.423  -0.394   5.188  0.4757  0.2112 -0.2833
   62SAPC  H11R 4910   2.526  -0.394   5.226  0.6383  1.4864 -0.6607
   62SAPC  C212 4911   2.391  -0.462   5.080  0.5992  0.1944  0.9723
   62SAPC  H12R 4912   2.466  -0.511   5.016 -0.5137 -0.9703  0.5211
   62SAPC  C213 4913   2.251  -0.474   5.029 -0.3964  0.2023  0.3734
   62SAPC  H13R 4914   2.213  -0.370   5.016 -0.3329  0.1145 -0.5253
   62SAPC  H13S 4915   2.189  -0.514   5.112  0.7821 -0.2339  1.0734
   62SAPC  C214 4916   2.222  -0.567   4.911  0.1513 -0.3473 -1.0791
   62SAPC  H14R 4917   2.163  -0.655   4.939 -1.6503  1.5729  1.7691
   62SAPC  C215 4918   2.266  -0.544   4.786 -0.1033 -0.1993  0.0570
   62SAPC  H15R 4919   2.233  -0.604   4.700 -1.5435  2.1095 -1.0948
   62SAPC  C216 4920   2.346  -0.424   4.741 -0.1714 -0.1788  0.3812
   62SAPC  H16R 4921   2.333  -0.335   4.806  0.1850  0.1512  0.0161
   62SAPC  H16S 4922   2.315  -0.388   4.640  0.6264  1.6451  0.7310
   62SAPC  C217 4923   2.500  -0.457   4.723  0.6225 -0.1601  0.1404
   62SAPC  H17R 4924   2.554  -0.479   4.817 -0.4597  0.2012  0.8674
   62SAPC  H17S 4925   2.542  -0.360   4.686 -0.8355  0.4303 -0.0464
   62SAPC  C218 4926   2.524  -0.569   4.615 -0.4848 -0.0946 -0.0513
   62SAPC  H18R 4927   2.451  -0.545   4.534 -1.9629 -1.1780  0.9044
   62SAPC  H18S 4928   2.501  -0.668   4.659 -2.1231 -0.8303 -2.3682
   62SAPC  C219 4929   2.665  -0.566   4.544 -0.1007 -0.2343 -0.3394
   62SAPC  H19R 4930   2.743  -0.594   4.619 -0.3562 -3.4724 -1.1836
   62SAPC  H19S 4931   2.696  -0.463   4.514  2.1380 -1.1699 -1.4064
   62SAPC  C220 4932   2.668  -0.659   4.423  0.1197  0.0564  0.2049
   62SAPC  H20R 4933   2.774  -0.684   4.399 -0.5093 -3.7767  0.6993
   62SAPC  H20S 4934   2.613  -0.635   4.329 -1.1287 -1.9049  0.3786
   62SAPC  H20T 4935   2.637  -0.751   4.477 -1.2275  0.5916  0.3728
   62SAPC   C33 4936   2.276   0.288   5.871  0.2042 -0.0519 -0.5688
   62SAPC   H3X 4937   2.241   0.185   5.892 -4.3651  1.3735  0.0083
   62SAPC   H3Y 4938   2.384   0.270   5.853  0.2138  0.5116 -1.1038
   62SAPC   C34 4939   2.205   0.346   5.743 -0.7465 -0.7018  0.2828
   62SAPC   H4X 4940   2.256   0.438   5.706  1.4623 -2.1596 -0.4931
   62SAPC   H4Y 4941   2.100   0.371   5.767 -0.7515 -0.1535 -0.2988
   62SAPC   C35 4942   2.218   0.241   5.628 -0.5962 -0.2694 -0.3207
   62SAPC   H5X 4943   2.153   0.154   5.652 -2.2887  1.2594  0.8785
   62SAPC   H5Y 4944   2.318   0.197   5.606  0.3598  1.8018 -0.3129
   62SAPC   C36 4945   2.159   0.291   5.503 -0.0873  0.2152  0.3383
   62SAPC   H6X 4946   2.231   0.354   5.447 -1.7549  1.3221 -0.6105
   62SAPC   H6Y 4947   2.071   0.351   5.536  1.0438  1.5991  0.9749
   62SAPC   C37 4948   2.122   0.175   5.411 -0.4726  0.2472 -0.4900
   62SAPC   H7X 4949   2.047   0.111   5.463 -1.2989  0.7291 -1.0665
   62SAPC   H7Y 4950   2.212   0.111   5.402 -1.7036 -1.7062  0.1808
   62SAPC   C38 4951   2.081   0.215   5.273  0.4285  0.3550 -0.1278
   62SAPC   H8X 4952   2.156   0.283   5.226  0.0666  2.1713  1.8007
   62SAPC   H8Y 4953   1.981   0.262   5.275  0.6400  0.9373 -1.7143
   62SAPC   C39 4954   2.088   0.089   5.184 -0.3621 -0.5812  0.2031
   62SAPC   H9X 4955   2.006   0.028   5.228 -1.2154  0.5592  0.2457
   62SAPC   H9Y 4956   2.187   0.039   5.184  0.2701  0.6316 -0.5155
   62SAPC  C310 4957   2.052   0.124   5.037 -0.3922  0.2372 -0.5148
   62SAPC  H10X 4958   2.116   0.204   4.994  0.8272 -0.9897 -1.0733
   62SAPC  H10Y 4959   1.946   0.157   5.025 -0.8252 -1.4031 -1.7566
   62SAPC  C311 4960   2.079   0.006   4.939  0.2408  0.2824 -0.4438
   62SAPC  H11X 4961   2.004  -0.067   4.977 -1.3939  2.0744 -0.0392
   62SAPC  H11Y 4962   2.181  -0.023   4.969 -0.3843 -1.6596 -0.0794
   62SAPC  C312 4963   2.075   0.031   4.782 -0.2456 -0.1925  0.0511
   62SAPC  H12X 4964   2.137   0.115   4.745  0.0269 -0.2318  0.4077
   62SAPC  H12Y 4965   1.968   0.045   4.754 -0.1334 -0.4066 -0.5067
   62SAPC  C313 4966   2.119  -0.098   4.697  0.0762 -0.1002 -0.7502
   62SAPC  H13X 4967   2.044  -0.179   4.691  1.9864 -2.0597  0.4167
   62SAPC  H13Y 4968   2.205  -0.142   4.752 -1.0671 -1.4055  0.0462
   62SAPC  C314 4969   2.155  -0.065   4.553 -0.6750  0.4624  0.8315
   62SAPC  H14X 4970   2.192   0.040   4.544  1.8596 -0.4749 -0.6764
   62SAPC  H14Y 4971   2.073  -0.082   4.479 -0.0029  0.8904 -0.0282
   62SAPC  C315 4972   2.266  -0.165   4.493  0.5743 -0.0725  0.0597
   62SAPC  H15X 4973   2.216  -0.264   4.488  1.0301 -0.3950  1.6005
   62SAPC  H15Y 4974   2.353  -0.182   4.559  0.9933 -2.0777 -0.9365
   62SAPC  C316 4975   2.320  -0.129   4.350  0.2608  0.0868  0.0346
   62SAPC  H16X 4976   2.346  -0.021   4.352 -1.5955  0.5766  0.4557
   62SAPC  H16Y 4977   2.234  -0.152   4.283  0.2003  1.2164 -0.2957
   62SAPC  C317 4978   2.440  -0.211   4.299 -0.0414 -0.2999 -0.1596
   62SAPC  H17X 4979   2.509  -0.222   4.385 -0.9389  0.6128  0.6979
   62SAPC  H17Y 4980   2.481  -0.156   4.211 -0.3095  1.0678  0.5391
   62SAPC  C318 4981   2.401  -0.355   4.255  0.3133 -0.0223 -0.1909
   62SAPC  H18X 4982   2.303  -0.391   4.293  0.3999 -0.6940 -0.5854
   62SAPC  H18Y 4983   2.480  -0.424   4.291 -1.1774 -2.1453 -0.7676
   62SAPC  H18Z 4984   2.401  -0.361   4.144 -0.4727  1.4477 -0.3013
   63SAPC     N 4985   2.288   3.925   7.242  0.0459  0.1598 -0.1564
   63SAPC   C12 4986   2.335   3.842   7.129  0.4846 -0.2039 -0.3064
   63SAPC  H12A 4987   2.260   3.784   7.078 -0.6820  1.1075 -0.1402
   63SAPC  H12B 4988   2.399   3.764   7.167 -1.5057 -1.3846  0.7962
   63SAPC   C13 4989   2.184   4.024   7.199  0.4817  0.9282 -0.3850
   63SAPC  H13A 4990   2.154   4.088   7.280 -1.6737 -0.3203 -0.1346
   63SAPC  H13B 4991   2.219   4.082   7.115 -0.6835 -0.6978 -2.0910
   63SAPC  H13C 4992   2.094   3.970   7.173  0.0702  1.6835 -0.5603
   63SAPC   C14 4993   2.225   3.830   7.335 -0.1023 -0.2898 -0.9647
   63SAPC  H14A 4994   2.142   3.781   7.287 -1.2545  1.5577 -0.9342
   63SAPC  H14B 4995   2.301   3.768   7.381  1.6265  1.0669 -1.8909
   63SAPC  H14C 4996   2.173   3.876   7.417 -0.0646 -0.5798 -0.7745
   63SAPC   C15 4997   2.404   4.002   7.310  0.4237  0.0649 -0.2607
   63SAPC  H15A 4998   2.488   3.938   7.333  1.4946  1.3698 -0.4671
   63SAPC  H15B 4999   2.445   4.075   7.242 -0.0525 -0.7216 -1.4354
   63SAPC  H15C 5000   2.373   4.064   7.393 -2.6260 -0.6482 -0.7521
   63SAPC   C11 5001   2.405   3.912   7.005 -0.1476 -0.3496  0.4486
   63SAPC  H11A 5002   2.471   3.843   6.947  0.0763 -0.7906  1.2220
   63SAPC  H11B 5003   2.469   3.988   7.053 -2.6308  1.4688  1.0873
   63SAPC     P 5004   2.205   3.888   6.839 -0.1713 -0.0736  0.3553
   63SAPC   O13 5005   2.130   3.804   6.928  0.0629  0.6915 -0.3623
   63SAPC   O14 5006   2.127   3.979   6.757  0.1483 -0.3322  0.2139
   63SAPC   O12 5007   2.306   3.978   6.923 -0.0799  0.9038  0.2190
   63SAPC   O11 5008   2.299   3.791   6.742 -0.4966 -0.3135 -0.0465
   63SAPC    C1 5009   2.392   3.867   6.663  0.0117 -0.1894  0.5364
   63SAPC    HA 5010   2.362   3.971   6.639 -1.0204  0.0117  2.5110
   63SAPC    HB 5011   2.492   3.876   6.710  0.5826  0.8021 -0.8122
   63SAPC    C2 5012   2.416   3.798   6.530 -0.6300  0.3919  0.5489
   63SAPC    HS 5013   2.438   3.690   6.538 -2.4730 -0.1763 -1.2860
   63SAPC   O21 5014   2.519   3.864   6.455  0.6771  0.2443  0.5223
   63SAPC   C21 5015   2.647   3.857   6.491 -0.2236  0.3159  0.3290
   63SAPC   O22 5016   2.696   3.788   6.579  0.0459  0.4595 -0.1745
   63SAPC   C22 5017   2.727   3.967   6.416 -1.1954  0.5177  0.2503
   63SAPC   H2R 5018   2.671   4.060   6.435 -1.8847  0.0413  0.6017
   63SAPC   H2S 5019   2.825   3.983   6.466 -0.8289  0.2038 -0.3560
   63SAPC    C3 5020   2.282   3.806   6.446 -0.1900 -0.6690  0.3349
   63SAPC    HX 5021   2.252   3.913   6.442 -0.8248 -0.8696 -0.5291
   63SAPC    HY 5022   2.200   3.751   6.497 -1.0585 -1.3141 -1.6573
   63SAPC   O31 5023   2.300   3.757   6.315  0.2470  0.3036  0.2611
   63SAPC   C31 5024   2.313   3.622   6.302 -0.0167  0.6498 -0.3176
   63SAPC   O32 5025   2.311   3.537   6.391 -0.0983  0.2374 -0.2357
   63SAPC   C32 5026   2.344   3.587   6.161  0.3991 -0.4795 -0.4143
   63SAPC   H2X 5027   2.372   3.480   6.152  1.6696 -0.1289 -0.8873
   63SAPC   H2Y 5028   2.443   3.633   6.140  0.7154 -1.0232 -0.1260
   63SAPC   C23 5029   2.743   3.931   6.269 -0.3808  0.2542 -0.2196
   63SAPC   H3R 5030   2.640   3.900   6.243  0.2377 -2.4723  0.3119
   63SAPC   H3S 5031   2.808   3.842   6.256 -1.7461 -0.7031 -0.6873
   63SAPC   C24 5032   2.783   4.052   6.182 -0.4348 -0.3416 -0.1334
   63SAPC   H4R 5033   2.706   4.132   6.192  0.6628  0.7386 -0.0480
   63SAPC   H4S 5034   2.775   4.026   6.075  0.5791  3.9994 -1.4779
   63SAPC   C25 5035   2.919   4.106   6.228  0.3910 -0.8818 -1.0836
   63SAPC   H5R 5036   2.928   4.157   6.325  0.0122  0.8346 -1.9027
   63SAPC   C26 5037   3.036   4.110   6.162 -0.0707  0.6559 -0.6904
   63SAPC   H6R 5038   3.126   4.162   6.198  0.1047  1.7489 -2.5853
   63SAPC   C27 5039   3.052   4.044   6.025 -0.1958 -0.4203 -0.0021
   63SAPC   H7R 5040   2.955   4.011   5.983 -0.2851 -0.8032  0.4918
   63SAPC   H7S 5041   3.108   3.948   6.033  1.4407  0.6482  3.2232
   63SAPC   C28 5042   3.107   4.145   5.920  0.5467  0.2493 -0.3207
   63SAPC   H8R 5043   3.035   4.217   5.879  0.0456  0.3990  0.7931
   63SAPC   C29 5044   3.218   4.135   5.851  0.0886 -0.2811  1.0827
   63SAPC   H9R 5045   3.250   4.207   5.775  0.3107  0.1064  1.5430
   63SAPC  C210 5046   3.329   4.033   5.865  0.2691  0.2606  0.4177
   63SAPC  H10R 5047   3.285   3.935   5.835 -3.1335  1.2059  1.8527
   63SAPC  H10S 5048   3.352   4.017   5.972  3.4033 -0.9841 -0.3328
   63SAPC  C211 5049   3.458   4.066   5.808 -0.4790  0.4838  0.0152
   63SAPC  H11R 5050   3.512   4.146   5.861 -1.9756  2.4875 -1.3489
   63SAPC  C212 5051   3.529   3.993   5.724 -0.1495 -0.0591  0.9467
   63SAPC  H12R 5052   3.627   4.035   5.696  0.9918 -0.7156  3.5702
   63SAPC  C213 5053   3.493   3.866   5.648  0.1189 -0.1123  0.0246
   63SAPC  H13R 5054   3.383   3.866   5.635 -0.0215  0.1744  1.1356
   63SAPC  H13S 5055   3.518   3.783   5.716  0.7631 -0.2937 -0.4176
   63SAPC  C214 5056   3.562   3.848   5.515 -0.7323  0.1699 -0.3989
   63SAPC  H14R 5057   3.665   3.884   5.509 -1.9067  4.1184 -0.1554
   63SAPC  C215 5058   3.493   3.805   5.403 -0.5099  0.1541 -0.2337
   63SAPC  H15R 5059   3.542   3.798   5.305 -1.5210  2.2029 -0.9466
   63SAPC  C216 5060   3.355   3.744   5.397  0.4556 -0.2116  0.2690
   63SAPC  H16R 5061   3.312   3.727   5.498  1.6427  0.1149  0.8445
   63SAPC  H16S 5062   3.368   3.643   5.355  1.1241 -0.0023 -0.0323
   63SAPC  C217 5063   3.259   3.839   5.316 -0.0554  0.5258  0.1031
   63SAPC  H17R 5064   3.157   3.795   5.316 -0.9256  2.3217  2.3807
   63SAPC  H17S 5065   3.285   3.863   5.211  2.4697 -2.5583 -0.1252
   63SAPC  C218 5066   3.243   3.967   5.389 -0.3671 -0.2343  0.0063
   63SAPC  H18R 5067   3.344   4.007   5.414 -0.3881 -0.0519 -0.1969
   63SAPC  H18S 5068   3.184   3.957   5.482 -1.2179 -1.9018 -0.6821
   63SAPC  C219 5069   3.183   4.089   5.311  0.3772 -0.6054 -0.3975
   63SAPC  H19R 5070   3.234   4.115   5.215  0.3467  2.4702  0.3302
   63SAPC  H19S 5071   3.198   4.174   5.381  0.9592 -0.2789 -0.9094
   63SAPC  C220 5072   3.032   4.070   5.287  0.2803  0.0279 -0.4601
   63SAPC  H20R 5073   2.973   4.067   5.381 -2.6585 -2.7123 -2.2194
   63SAPC  H20S 5074   3.008   3.970   5.245 -1.5425 -0.5518  1.7666
   63SAPC  H20T 5075   2.987   4.146   5.220  0.2530 -0.6795 -1.2617
   63SAPC   C33 5076   2.231   3.618   6.063  0.3742 -0.3524 -0.6710
   63SAPC   H3X 5077   2.192   3.722   6.072 -0.1982 -0.5990 -0.3147
   63SAPC   H3Y 5078   2.142   3.554   6.078  0.2449  0.1121  0.6127
   63SAPC   C34 5079   2.282   3.587   5.923  0.0896  0.9168  0.4297
   63SAPC   H4X 5080   2.309   3.480   5.907 -1.5599  0.6222 -0.7044
   63SAPC   H4Y 5081   2.378   3.640   5.910  0.7092  0.9355  3.9763
   63SAPC   C35 5082   2.174   3.613   5.821 -0.5350 -0.2402  0.2983
   63SAPC   H5X 5083   2.145   3.717   5.850  3.3754  1.6295 -1.6530
   63SAPC   H5Y 5084   2.093   3.538   5.827 -0.0276 -0.7099  1.6402
   63SAPC   C36 5085   2.224   3.609   5.673 -0.2251  0.4747 -0.4610
   63SAPC   H6X 5086   2.232   3.504   5.640  1.1782  0.0271  1.1474
   63SAPC   H6Y 5087   2.324   3.655   5.660 -0.8472  1.3613 -2.6772
   63SAPC   C37 5088   2.133   3.687   5.580  0.8242 -0.0561 -0.0631
   63SAPC   H7X 5089   2.115   3.788   5.623 -1.2942  0.0585 -1.1016
   63SAPC   H7Y 5090   2.028   3.650   5.573  1.2229 -0.9366 -1.9090
   63SAPC   C38 5091   2.176   3.681   5.439  0.8916 -0.2424  0.8186
   63SAPC   H8X 5092   2.176   3.574   5.408  0.0698  0.2914 -1.2719
   63SAPC   H8Y 5093   2.277   3.725   5.429  0.8810 -0.2708  0.5550
   63SAPC   C39 5094   2.072   3.764   5.354 -0.7511  0.4841  0.0769
   63SAPC   H9X 5095   2.094   3.872   5.371  2.7078 -0.2576  1.0060
   63SAPC   H9Y 5096   1.968   3.727   5.366 -1.2206  1.1522 -1.5626
   63SAPC  C310 5097   2.100   3.747   5.203  0.1278 -0.3167 -0.6350
   63SAPC  H10X 5098   2.016   3.804   5.158 -0.2322  0.6279  1.1160
   63SAPC  H10Y 5099   2.090   3.640   5.174 -0.7395 -0.9621  1.7943
   63SAPC  C311 5100   2.236   3.801   5.164  0.0011 -0.8424  0.3142
   63SAPC  H11X 5101   2.309   3.726   5.202  1.5321  0.6430  0.4455
   63SAPC  H11Y 5102   2.256   3.894   5.223 -0.8485  1.8384 -3.2779
   63SAPC  C312 5103   2.240   3.855   5.021 -0.3796 -0.5387  0.9567
   63SAPC  H12X 5104   2.208   3.770   4.957 -1.0285 -1.0277  1.9057
   63SAPC  H12Y 5105   2.342   3.889   4.992 -1.6090  1.5356 -1.3484
   63SAPC  C313 5106   2.159   3.980   5.002  0.6643 -0.1527 -0.3529
   63SAPC  H13X 5107   2.189   4.061   5.072 -0.7354 -0.7782  1.0589
   63SAPC  H13Y 5108   2.053   3.962   5.030  1.0404  0.2643  1.5101
   63SAPC  C314 5109   2.169   4.023   4.861 -0.3514 -0.1990 -0.1423
   63SAPC  H14X 5110   2.274   4.057   4.853 -0.6558  1.2138  1.2688
   63SAPC  H14Y 5111   2.098   4.106   4.838  1.1548  0.9801 -0.6734
   63SAPC  C315 5112   2.130   3.915   4.753  0.1270  0.3245  0.3729
   63SAPC  H15X 5113   2.038   3.857   4.778 -0.6167  1.1454 -0.3870
   63SAPC  H15Y 5114   2.220   3.850   4.747 -0.4549 -0.4293 -0.5792
   63SAPC  C316 5115   2.121   3.984   4.618  0.2866 -0.5396 -0.4186
   63SAPC  H16X 5116   2.217   4.036   4.595 -0.5963  0.9151 -0.9723
   63SAPC  H16Y 5117   2.041   4.058   4.637  1.3433  0.1900  1.4928
   63SAPC  C317 5118   2.095   3.886   4.509  0.0316 -0.3247 -0.1563
   63SAPC  H17X 5119   2.019   3.939   4.447 -1.2281  1.4892  2.6922
   63SAPC  H17Y 5120   2.042   3.796   4.546  0.5702 -0.8260 -0.5910
   63SAPC  C318 5121   2.217   3.862   4.428  0.4557 -0.1458  0.2669
   63SAPC  H18X 5122   2.191   3.819   4.329  0.4506 -1.6325  0.8858
   63SAPC  H18Y 5123   2.287   3.787   4.470 -0.0752 -1.1581 -0.6069
   63SAPC  H18Z 5124   2.277   3.953   4.405  1.9640 -0.9733  0.8199
   64SAPC     N 5125   3.215   6.226   6.783 -0.0987 -0.6155 -0.5952
   64SAPC   C12 5126   3.209   6.354   6.697 -0.3099 -0.3830 -0.5807
   64SAPC  H12A 5127   3.279   6.344   6.616 -1.2932 -3.5403 -1.2134
   64SAPC  H12B 5128   3.233   6.443   6.753 -2.6097  0.3115 -0.5634
   64SAPC   C13 5129   3.233   6.107   6.700  0.2004  0.1914  0.2320
   64SAPC  H13A 5130   3.265   6.020   6.755  0.4883  0.6490  0.7934
   64SAPC  H13B 5131   3.139   6.096   6.649 -1.0779  2.2825  1.9801
   64SAPC  H13C 5132   3.298   6.134   6.618 -1.1356  1.3159 -0.4902
   64SAPC   C14 5133   3.341   6.228   6.867 -0.4947  0.1740  0.3278
   64SAPC  H14A 5134   3.353   6.141   6.930 -0.1858 -0.4032 -0.5093
   64SAPC  H14B 5135   3.426   6.242   6.802 -0.7120 -0.5405 -0.1219
   64SAPC  H14C 5136   3.338   6.313   6.933  1.9130  1.2547 -0.8429
   64SAPC   C15 5137   3.100   6.207   6.877 -0.2037 -0.0634 -0.2100
   64SAPC  H15A 5138   3.098   6.109   6.921  1.7181 -0.6079 -1.2080
   64SAPC  H15B 5139   3.091   6.287   6.950 -1.7129 -0.5858  0.2097
   64SAPC  H15C 5140   3.017   6.216   6.809 -0.2886 -1.2080 -0.2644
   64SAPC   C11 5141   3.075   6.381   6.628  1.1660  0.1022  0.1204
   64SAPC  H11A 5142   3.041   6.285   6.585  0.4787  0.5495 -0.3532
   64SAPC  H11B 5143   3.095   6.449   6.543 -0.7748 -0.2292 -0.6495
   64SAPC     P 5144   2.977   6.593   6.749  0.3396 -0.3599  0.1174
   64SAPC   O13 5145   2.887   6.610   6.864 -0.3433  0.1437 -0.4591
   64SAPC   O14 5146   3.118   6.627   6.770  0.5888  0.2751  0.0728
   64SAPC   O12 5147   2.973   6.439   6.712  0.2432 -0.6322  0.4387
   64SAPC   O11 5148   2.904   6.653   6.621 -0.3391  0.3347  0.0831
   64SAPC    C1 5149   2.793   6.582   6.557 -0.8107  0.7141  0.2798
   64SAPC    HA 5150   2.749   6.511   6.629  1.0435 -1.5108 -0.6679
   64SAPC    HB 5151   2.717   6.661   6.538  0.8317  2.2566 -0.1658
   64SAPC    C2 5152   2.818   6.516   6.420 -0.1298  0.5669  0.7514
   64SAPC    HS 5153   2.852   6.412   6.437  1.3333  0.8729 -0.1403
   64SAPC   O21 5154   2.906   6.596   6.342  0.3546  0.1429  0.0937
   64SAPC   C21 5155   2.971   6.526   6.249  0.2624  0.7992  0.0353
   64SAPC   O22 5156   2.968   6.408   6.229 -0.7625  0.1440 -0.3804
   64SAPC   C22 5157   3.070   6.618   6.179  0.4521  0.3868 -0.8771
   64SAPC   H2R 5158   3.035   6.723   6.191  0.8199  0.3792  0.3499
   64SAPC   H2S 5159   3.163   6.625   6.239 -1.1421  0.2683  1.7529
   64SAPC    C3 5160   2.679   6.491   6.343  0.2115 -0.3145 -0.3625
   64SAPC    HX 5161   2.631   6.591   6.356  1.3554  0.1867  0.2107
   64SAPC    HY 5162   2.623   6.413   6.400  1.1593 -0.3038  0.6191
   64SAPC   O31 5163   2.697   6.473   6.202 -0.1813  0.2059 -0.0376
   64SAPC   C31 5164   2.680   6.347   6.159 -0.0196 -0.1054 -0.0987
   64SAPC   O32 5165   2.645   6.254   6.232  0.2020 -0.0236 -0.3594
   64SAPC   C32 5166   2.688   6.346   6.009 -0.5054  0.3471  0.2800
   64SAPC   H2X 5167   2.734   6.442   5.979 -1.6676  0.6088 -0.7291
   64SAPC   H2Y 5168   2.590   6.337   5.956 -0.4743 -0.4406  0.3376
   64SAPC   C23 5169   3.101   6.590   6.031  0.5234 -0.1320 -0.1321
   64SAPC   H3R 5170   3.002   6.581   5.982 -0.3181 -0.8450  1.5992
   64SAPC   H3S 5171   3.149   6.490   6.027 -1.0965 -0.9755  0.4921
   64SAPC   C24 5172   3.185   6.699   5.966 -0.5657 -0.3381  0.3700
   64SAPC   H4R 5173   3.226   6.664   5.869 -0.2589  0.7325  0.1022
   64SAPC   H4S 5174   3.277   6.723   6.023  0.6375  0.6316 -1.8404
   64SAPC   C25 5175   3.106   6.826   5.940 -0.0309 -0.6863 -0.3621
   64SAPC   H5R 5176   3.104   6.904   6.018 -2.9447  0.1843 -1.1697
   64SAPC   C26 5177   3.024   6.844   5.824  0.2657  0.3734  0.4032
   64SAPC   H6R 5178   2.974   6.942   5.812  0.2958  0.3799  0.3286
   64SAPC   C27 5179   2.996   6.736   5.719  0.5379  0.4031 -0.0987
   64SAPC   H7R 5180   2.892   6.742   5.679 -0.0110 -1.8452  0.8382
   64SAPC   H7S 5181   2.987   6.642   5.776 -0.9734  2.0954  2.6650
   64SAPC   C28 5182   3.107   6.722   5.618 -0.1689 -0.1251  0.1656
   64SAPC   H8R 5183   3.206   6.737   5.663  0.2995 -0.9024 -0.5789
   64SAPC   C29 5184   3.097   6.718   5.486 -0.1479 -0.5206 -0.2886
   64SAPC   H9R 5185   3.190   6.723   5.426  0.4593 -0.7288  0.6220
   64SAPC  C210 5186   2.961   6.719   5.409 -0.3834  0.2733  0.7061
   64SAPC  H10R 5187   2.892   6.787   5.464  0.8103  1.7875  0.3963
   64SAPC  H10S 5188   2.913   6.622   5.431 -0.5623  0.5866  1.7825
   64SAPC  C211 5189   2.985   6.747   5.264  0.5467 -0.3424  0.0548
   64SAPC  H11R 5190   3.004   6.853   5.242 -2.5462  0.0633 -1.2208
   64SAPC  C212 5191   2.988   6.667   5.162  0.2869 -0.7169  0.5826
   64SAPC  H12R 5192   3.008   6.715   5.065 -0.4016 -1.2113  0.1875
   64SAPC  C213 5193   2.990   6.513   5.173  0.3872 -0.2215  0.4748
   64SAPC  H13R 5194   2.947   6.479   5.270  0.6032 -0.7631  0.3825
   64SAPC  H13S 5195   3.097   6.484   5.177  0.2309 -1.0116 -0.7565
   64SAPC  C214 5196   2.902   6.444   5.068  0.1296 -0.2444 -0.3783
   64SAPC  H14R 5197   2.802   6.423   5.108  0.6396  1.7029  2.1161
   64SAPC  C215 5198   2.931   6.447   4.939  0.4096  0.4649  0.2984
   64SAPC  H15R 5199   2.866   6.391   4.871  0.4929  0.0848  0.5252
   64SAPC  C216 5200   3.062   6.490   4.879 -0.5825 -0.0108 -0.2629
   64SAPC  H16R 5201   3.127   6.414   4.832 -0.4059 -1.1488  1.7509
   64SAPC  H16S 5202   3.134   6.531   4.953 -1.8212  2.9247 -0.5382
   64SAPC  C217 5203   3.044   6.600   4.769  0.0037 -0.5823 -0.1099
   64SAPC  H17R 5204   3.145   6.638   4.743  0.4101 -2.1633 -0.9471
   64SAPC  H17S 5205   2.977   6.681   4.807  0.4323 -0.8374  1.2362
   64SAPC  C218 5206   2.973   6.555   4.642  0.5060  0.7177 -0.5464
   64SAPC  H18R 5207   2.883   6.498   4.673 -0.0010  0.3087 -2.5681
   64SAPC  H18S 5208   3.045   6.478   4.607 -2.9330 -1.2231 -4.2241
   64SAPC  C219 5209   2.935   6.667   4.541 -0.1735  0.4158  0.0393
   64SAPC  H19R 5210   2.950   6.626   4.439  3.6759  0.9686  0.2379
   64SAPC  H19S 5211   3.007   6.750   4.555  0.5952 -0.4212  1.3314
   64SAPC  C220 5212   2.782   6.704   4.559 -0.2523  0.5219  0.1686
   64SAPC  H20R 5213   2.716   6.614   4.558  0.9667 -0.4303 -1.5953
   64SAPC  H20S 5214   2.742   6.776   4.485 -1.6564  0.5280  0.9130
   64SAPC  H20T 5215   2.765   6.760   4.653 -0.1884  0.9865 -0.0984
   64SAPC   C33 5216   2.785   6.241   5.957 -0.5091 -0.5853  0.3958
   64SAPC   H3X 5217   2.735   6.142   5.963 -0.6829 -0.4471  1.4852
   64SAPC   H3Y 5218   2.878   6.238   6.018 -1.0196 -0.4539  1.1979
   64SAPC   C34 5219   2.826   6.273   5.813 -0.3720 -0.5412  0.0218
   64SAPC   H4X 5220   2.916   6.208   5.814  0.3953  0.4702 -0.9227
   64SAPC   H4Y 5221   2.865   6.375   5.791  0.8333 -1.3539 -1.8460
   64SAPC   C35 5222   2.728   6.221   5.712 -0.0398  0.4610 -0.1512
   64SAPC   H5X 5223   2.641   6.291   5.716  0.7054  1.3599  0.7661
   64SAPC   H5Y 5224   2.692   6.120   5.742 -1.6023  0.7277 -0.9946
   64SAPC   C36 5225   2.784   6.204   5.568 -0.4872  0.0357 -0.1140
   64SAPC   H6X 5226   2.865   6.129   5.562  0.1445  0.5874  1.1703
   64SAPC   H6Y 5227   2.825   6.299   5.527 -4.3917  0.6525 -3.1812
   64SAPC   C37 5228   2.681   6.167   5.459  0.0181  0.3519  0.9728
   64SAPC   H7X 5229   2.607   6.245   5.429  2.2812  1.4720 -2.3426
   64SAPC   H7Y 5230   2.625   6.077   5.491  0.5470 -0.1495  0.4927
   64SAPC   C38 5231   2.742   6.128   5.317 -0.7928 -0.0839 -0.2404
   64SAPC   H8X 5232   2.820   6.050   5.330 -1.1645 -0.6699 -1.3706
   64SAPC   H8Y 5233   2.790   6.222   5.282 -0.2629 -0.4930 -0.6321
   64SAPC   C39 5234   2.641   6.081   5.206  0.3827  0.8002 -0.8276
   64SAPC   H9X 5235   2.541   6.128   5.198 -0.4218 -0.4503  1.0110
   64SAPC   H9Y 5236   2.615   5.982   5.250 -2.5973  1.5948 -0.5736
   64SAPC  C310 5237   2.706   6.058   5.065 -0.6050 -0.3316  0.2814
   64SAPC  H10X 5238   2.776   5.972   5.071  1.2278  0.8198 -2.4126
   64SAPC  H10Y 5239   2.774   6.142   5.039 -1.2093 -0.8324 -3.5064
   64SAPC  C311 5240   2.603   6.043   4.955  0.4532 -0.2567 -0.1157
   64SAPC  H11X 5241   2.665   6.029   4.864  1.6987 -2.9399  1.0313
   64SAPC  H11Y 5242   2.531   6.128   4.954  0.0126 -0.6230 -1.2122
   64SAPC  C312 5243   2.515   5.914   4.960 -0.3325  0.4812 -0.0520
   64SAPC  H12X 5244   2.425   5.933   5.022  0.4602 -3.2694  2.6251
   64SAPC  H12Y 5245   2.568   5.826   5.002  2.0611  2.2287  0.8509
   64SAPC  C313 5246   2.459   5.876   4.822  0.0354  0.0252  0.1708
   64SAPC  H13X 5247   2.425   5.970   4.774 -0.8770 -0.3714  0.0200
   64SAPC  H13Y 5248   2.374   5.813   4.856 -0.0015  1.0747  2.1931
   64SAPC  C314 5249   2.553   5.788   4.729 -0.1053  0.0304  0.4866
   64SAPC  H14X 5250   2.569   5.688   4.775 -0.9584 -0.6021 -0.5488
   64SAPC  H14Y 5251   2.650   5.842   4.729 -1.3821  2.5743 -1.8580
   64SAPC  C315 5252   2.478   5.765   4.595 -0.0815  0.0302 -0.8117
   64SAPC  H15X 5253   2.437   5.861   4.558  1.1011  1.1136  0.5362
   64SAPC  H15Y 5254   2.396   5.695   4.623  0.5028  0.1901  1.5412
   64SAPC  C316 5255   2.576   5.694   4.500  0.7601 -0.4149  0.6290
   64SAPC  H16X 5256   2.583   5.587   4.528 -2.0140 -1.1537 -1.0727
   64SAPC  H16Y 5257   2.674   5.745   4.497  0.4788  0.0852 -0.9206
   64SAPC  C317 5258   2.516   5.704   4.359 -0.0719  0.7578  0.0332
   64SAPC  H17X 5259   2.413   5.663   4.359  0.4909 -0.7078  0.0983
   64SAPC  H17Y 5260   2.565   5.634   4.288 -0.2940  0.8086 -0.1736
   64SAPC  C318 5261   2.521   5.842   4.289  0.0368 -0.3125  0.5463
   64SAPC  H18X 5262   2.622   5.867   4.252  0.2186 -0.7391  0.7585
   64SAPC  H18Y 5263   2.503   5.924   4.362  3.5832 -1.7982  3.3498
   64SAPC  H18Z 5264   2.456   5.855   4.199  0.4351 -3.3879 -0.2734
   65SAPC     N 5265   2.517   0.334   2.024 -0.9120 -0.8323 -0.5797
   65SAPC   C12 5266   2.529   0.271   2.161  0.0815  0.6214  0.6958
   65SAPC  H12A 5267   2.430   0.234   2.185 -0.7125  2.7781  0.9318
   65SAPC  H12B 5268   2.561   0.343   2.235  0.1223  0.3656  0.9290
   65SAPC   C13 5269   2.398   0.429   2.024 -0.3739  0.2378  0.0220
   65SAPC  H13A 5270   2.301   0.382   2.023 -0.3132  0.1127  0.0102
   65SAPC  H13B 5271   2.412   0.500   2.104 -0.4724 -0.4962  0.6950
   65SAPC  H13C 5272   2.409   0.489   1.935  0.7845  0.4423  0.2818
   65SAPC   C14 5273   2.648   0.414   2.007 -0.6304 -0.6540  0.1754
   65SAPC  H14A 5274   2.664   0.474   2.095  1.0837 -1.5061  0.4849
   65SAPC  H14B 5275   2.737   0.355   1.996 -0.1913 -0.0244  0.3243
   65SAPC  H14C 5276   2.641   0.480   1.921 -2.1484 -0.6990  0.2214
   65SAPC   C15 5277   2.502   0.240   1.911  0.6923 -0.0203  0.5620
   65SAPC  H15A 5278   2.479   0.300   1.824  1.8048 -0.6684 -0.2156
   65SAPC  H15B 5279   2.599   0.192   1.897  0.1899 -1.4094  1.6050
   65SAPC  H15C 5280   2.423   0.168   1.927 -0.2545  1.0461  0.7533
   65SAPC   C11 5281   2.625   0.145   2.184 -0.4990  0.0385 -0.3815
   65SAPC  H11A 5282   2.605   0.120   2.291  0.4053  0.2489 -0.1525
   65SAPC  H11B 5283   2.730   0.182   2.186  0.2824 -1.8060  3.4042
   65SAPC     P 5284   2.519  -0.085   2.093  0.2892 -0.1389 -0.3087
   65SAPC   O13 5285   2.388  -0.042   2.142  1.0370 -0.6146 -0.4397
   65SAPC   O14 5286   2.518  -0.155   1.960  0.2131  0.0765  0.5028
   65SAPC   O12 5287   2.608   0.048   2.085  0.2248  0.1808 -0.2208
   65SAPC   O11 5288   2.590  -0.174   2.197 -0.1758 -0.0570 -0.4158
   65SAPC    C1 5289   2.732  -0.183   2.189 -0.1005 -0.6585  0.0912
   65SAPC    HA 5290   2.766  -0.245   2.103  1.1520 -0.7916  0.6635
   65SAPC    HB 5291   2.781  -0.084   2.184  0.4718 -0.9387  0.0637
   65SAPC    C2 5292   2.801  -0.233   2.327 -0.3996 -0.0510 -0.0397
   65SAPC    HS 5293   2.771  -0.338   2.344  1.9464 -0.3951  2.8397
   65SAPC   O21 5294   2.755  -0.146   2.424  0.2553  0.4175 -0.6426
   65SAPC   C21 5295   2.640  -0.180   2.484 -0.8374 -1.0011  0.3454
   65SAPC   O22 5296   2.577  -0.280   2.472 -0.1839  0.9246 -0.4747
   65SAPC   C22 5297   2.596  -0.071   2.588 -0.2491  0.9554  0.3094
   65SAPC   H2R 5298   2.675   0.007   2.597  0.6622  0.0637  0.2833
   65SAPC   H2S 5299   2.502  -0.038   2.538  0.3653 -0.2084 -1.7642
   65SAPC    C3 5300   2.960  -0.227   2.305 -0.0905  0.3865 -0.1961
   65SAPC    HX 5301   2.991  -0.124   2.278  0.1237  0.7091  1.1882
   65SAPC    HY 5302   2.996  -0.281   2.215  0.4529  2.5811 -1.3658
   65SAPC   O31 5303   3.023  -0.263   2.422 -0.6001 -0.1201  0.1478
   65SAPC   C31 5304   3.013  -0.394   2.450  0.5652  0.1751  0.1880
   65SAPC   O32 5305   2.958  -0.476   2.383  0.3337 -0.0928  0.1018
   65SAPC   C32 5306   3.074  -0.423   2.587 -0.1816  0.4670 -0.1134
   65SAPC   H2X 5307   3.104  -0.325   2.630 -0.1496  0.3809  0.0632
   65SAPC   H2Y 5308   3.169  -0.474   2.563  0.1025  1.5661 -1.4379
   65SAPC   C23 5309   2.558  -0.129   2.724  0.4663  0.2780  0.2397
   65SAPC   H3R 5310   2.470  -0.196   2.711 -0.6843  1.6501  0.6748
   65SAPC   H3S 5311   2.535  -0.042   2.790  2.2867  0.1188  1.1456
   65SAPC   C24 5312   2.672  -0.217   2.782 -0.1217 -0.2343 -0.3502
   65SAPC   H4R 5313   2.669  -0.307   2.718  1.3789 -0.4706 -0.1169
   65SAPC   H4S 5314   2.634  -0.244   2.883  0.3768 -2.0020 -0.5944
   65SAPC   C25 5315   2.810  -0.166   2.799  0.6635 -0.2690 -0.7651
   65SAPC   H5R 5316   2.842  -0.099   2.719 -1.4549  1.2103 -0.4391
   65SAPC   C26 5317   2.882  -0.172   2.917  0.2344  0.3125  0.2842
   65SAPC   H6R 5318   2.982  -0.128   2.921  0.5154  0.1225 -2.4351
   65SAPC   C27 5319   2.845  -0.269   3.029  0.7439  0.8163 -0.0652
   65SAPC   H7R 5320   2.939  -0.318   3.061  0.4182  0.0342 -0.2885
   65SAPC   H7S 5321   2.774  -0.345   2.991  0.4211 -0.2614  2.4754
   65SAPC   C28 5322   2.784  -0.190   3.142 -0.5171  0.6742 -0.8688
   65SAPC   H8R 5323   2.702  -0.121   3.116 -0.4712  0.5883 -1.2477
   65SAPC   C29 5324   2.795  -0.224   3.278 -0.2562 -0.1685  0.3846
   65SAPC   H9R 5325   2.737  -0.164   3.349  2.9355  1.6807  1.6331
   65SAPC  C210 5326   2.880  -0.332   3.332 -0.0711  0.1134 -0.3766
   65SAPC  H10R 5327   2.966  -0.288   3.388 -0.3885  0.6254 -0.2881
   65SAPC  H10S 5328   2.911  -0.407   3.257 -3.6377 -1.4156 -0.5094
   65SAPC  C211 5329   2.797  -0.423   3.422 -0.1404 -0.4069 -0.5527
   65SAPC  H11R 5330   2.709  -0.472   3.379 -0.5218 -1.4967  1.3647
   65SAPC  C212 5331   2.833  -0.466   3.546 -0.5149  0.1574 -0.2746
   65SAPC  H12R 5332   2.758  -0.528   3.599 -0.0773 -1.3822 -1.3816
   65SAPC  C213 5333   2.961  -0.429   3.620 -0.0126 -0.4773 -0.0777
   65SAPC  H13R 5334   3.051  -0.441   3.556 -0.0270  3.7203 -1.1342
   65SAPC  H13S 5335   2.964  -0.494   3.711 -0.6351 -0.5560 -0.1124
   65SAPC  C214 5336   2.965  -0.279   3.663  0.4162  0.2086 -0.1071
   65SAPC  H14R 5337   2.865  -0.234   3.650  0.3141 -0.1400 -0.5979
   65SAPC  C215 5338   3.058  -0.207   3.724 -0.0886  0.3517 -0.2212
   65SAPC  H15R 5339   3.036  -0.101   3.741 -1.1685 -0.1286  1.6625
   65SAPC  C216 5340   3.185  -0.260   3.786 -0.1624  0.4539  0.6099
   65SAPC  H16R 5341   3.278  -0.200   3.779 -0.7389  1.2467 -0.7160
   65SAPC  H16S 5342   3.200  -0.357   3.733  1.0180  0.2466  1.2987
   65SAPC  C217 5343   3.164  -0.296   3.937 -0.6234  0.0786  0.2240
   65SAPC  H17R 5344   3.173  -0.196   3.984 -1.9569 -0.0542  0.8036
   65SAPC  H17S 5345   3.249  -0.360   3.970 -0.0638 -0.4117 -2.0026
   65SAPC  C218 5346   3.034  -0.359   3.995  0.1730  0.1562  0.2438
   65SAPC  H18R 5347   3.028  -0.460   3.950 -1.2527  0.2483  0.1881
   65SAPC  H18S 5348   2.949  -0.294   3.963  0.4644  0.9289  0.9831
   65SAPC  C219 5349   3.036  -0.372   4.141  0.4919  0.0057 -0.0780
   65SAPC  H19R 5350   3.037  -0.271   4.188  3.7711 -0.2259  0.5451
   65SAPC  H19S 5351   3.130  -0.427   4.162  0.4098  0.0007  0.2698
   65SAPC  C220 5352   2.927  -0.470   4.209 -0.2382 -0.4717 -0.3036
   65SAPC  H20R 5353   2.881  -0.535   4.132  2.4027 -1.4320 -1.1691
   65SAPC  H20S 5354   2.843  -0.409   4.249 -0.6993 -0.6711 -0.9513
   65SAPC  H20T 5355   2.976  -0.520   4.295  0.9973  0.5744 -0.3595
   65SAPC   C33 5356   2.981  -0.498   2.667  0.6211 -0.1382  0.8757
   65SAPC   H3X 5357   2.952  -0.595   2.623  0.1758  0.8432 -1.0846
   65SAPC   H3Y 5358   2.888  -0.437   2.661 -0.0324 -1.2798 -1.4696
   65SAPC   C34 5359   3.030  -0.519   2.810 -0.3706  0.2861 -0.1953
   65SAPC   H4X 5360   3.061  -0.429   2.867 -1.8837 -1.0912  3.0387
   65SAPC   H4Y 5361   3.122  -0.579   2.800 -0.1981  0.2757  1.2191
   65SAPC   C35 5362   2.931  -0.596   2.901 -0.4707 -0.4688  0.4021
   65SAPC   H5X 5363   2.909  -0.690   2.846  1.9792 -0.7266 -0.2616
   65SAPC   H5Y 5364   2.833  -0.545   2.906 -0.6451 -0.5363 -1.6789
   65SAPC   C36 5365   2.988  -0.641   3.036  0.0146 -0.1868 -0.2002
   65SAPC   H6X 5366   3.039  -0.553   3.081 -0.5299 -0.7434  1.5650
   65SAPC   H6Y 5367   3.049  -0.732   3.025 -0.3454 -0.6287  1.2919
   65SAPC   C37 5368   2.883  -0.691   3.139  1.6758  0.5032  0.7524
   65SAPC   H7X 5369   2.832  -0.771   3.081  3.0090 -0.8381  1.3606
   65SAPC   H7Y 5370   2.816  -0.605   3.164 -1.8545 -2.3953  2.2196
   65SAPC   C38 5371   2.962  -0.754   3.255 -0.0440  0.2141 -0.1032
   65SAPC   H8X 5372   3.005  -0.673   3.318  2.8837 -0.2330 -1.3856
   65SAPC   H8Y 5373   3.050  -0.810   3.217  0.8947  2.3810 -1.2818
   65SAPC   C39 5374   2.874  -0.846   3.338 -0.0086 -0.5803 -0.6750
   65SAPC   H9X 5375   2.861  -0.937   3.275  1.9279 -0.7958 -0.8486
   65SAPC   H9Y 5376   2.776  -0.795   3.345 -0.3673 -1.2446 -0.7998
   65SAPC  C310 5377   2.937  -0.877   3.477  0.5364  0.6522  0.7885
   65SAPC  H10X 5378   2.932  -0.785   3.540 -1.9701  1.0666  0.0969
   65SAPC  H10Y 5379   3.041  -0.901   3.445  0.6490  1.1052  0.8008
   65SAPC  C311 5380   2.877  -0.998   3.559 -0.3177 -0.4578  0.3462
   65SAPC  H11X 5381   2.873  -1.088   3.493 -1.9705 -1.9627  2.3657
   65SAPC  H11Y 5382   2.771  -0.987   3.590 -0.6186  0.1177 -0.8111
   65SAPC  C312 5383   2.967  -1.034   3.677  0.1647 -0.5071 -0.4491
   65SAPC  H12X 5384   3.075  -1.048   3.652  0.4910 -0.0485  0.6440
   65SAPC  H12Y 5385   2.915  -1.126   3.711 -3.2044  0.9512 -1.2050
   65SAPC  C313 5386   2.966  -0.938   3.798 -0.2754  0.3186  0.0955
   65SAPC  H13X 5387   2.862  -0.916   3.832 -0.2679  2.2893 -1.0285
   65SAPC  H13Y 5388   3.004  -0.837   3.771  0.9095 -0.8908 -3.3807
   65SAPC  C314 5389   3.060  -0.979   3.915 -0.6964 -0.2154 -0.2925
   65SAPC  H14X 5390   3.053  -0.894   3.987 -2.0832 -1.3129  0.9231
   65SAPC  H14Y 5391   3.164  -0.985   3.878 -0.6581 -0.7529 -0.0971
   65SAPC  C315 5392   3.032  -1.108   3.997  0.4054  0.1431 -0.1746
   65SAPC  H15X 5393   3.116  -1.118   4.068 -0.8935  0.0069  1.3853
   65SAPC  H15Y 5394   3.029  -1.198   3.932 -1.1154 -1.2566  1.7275
   65SAPC  C316 5395   2.899  -1.092   4.080  0.6918  0.0924 -0.2457
   65SAPC  H16X 5396   2.836  -1.080   3.989  2.0025 -0.3336 -1.2633
   65SAPC  H16Y 5397   2.900  -1.003   4.146 -0.6532  1.7521 -2.3241
   65SAPC  C317 5398   2.864  -1.213   4.161  0.3614 -0.2624 -0.1150
   65SAPC  H17X 5399   2.869  -1.311   4.108 -2.5256 -1.3063  1.3365
   65SAPC  H17Y 5400   2.755  -1.214   4.185  0.2217  0.9231 -0.6560
   65SAPC  C318 5401   2.933  -1.223   4.296 -0.5419  0.1654  0.4340
   65SAPC  H18X 5402   3.040  -1.245   4.276 -0.9762 -1.2573 -0.4590
   65SAPC  H18Y 5403   2.879  -1.296   4.359 -1.5421 -0.6547 -1.2840
   65SAPC  H18Z 5404   2.932  -1.123   4.345  2.3661  0.3639  0.2306
   66SAPC     N 5405   2.825   5.082   2.039  0.1704  0.5041 -0.0236
   66SAPC   C12 5406   2.916   5.127   2.151  0.3824 -0.2606  0.0614
   66SAPC  H12A 5407   2.912   5.234   2.157 -1.8340 -0.2684 -0.4343
   66SAPC  H12B 5408   3.019   5.110   2.122  0.4449  1.4796 -0.8117
   66SAPC   C13 5409   2.846   5.173   1.921  0.2840 -0.0877  0.9055
   66SAPC  H13A 5410   2.792   5.131   1.837 -1.2172  3.1112  0.1403
   66SAPC  H13B 5411   2.811   5.273   1.939  1.9047  0.6270  0.2380
   66SAPC  H13C 5412   2.942   5.185   1.873 -1.4370  2.3111 -2.3636
   66SAPC   C14 5413   2.849   4.948   1.995 -0.1977  0.8312  0.2074
   66SAPC  H14A 5414   2.784   4.921   1.913  0.7789 -1.3384  0.0524
   66SAPC  H14B 5415   2.949   4.938   1.953 -0.3190  0.8698 -0.0967
   66SAPC  H14C 5416   2.838   4.876   2.075 -1.3394 -1.9947 -2.2680
   66SAPC   C15 5417   2.685   5.097   2.090 -0.5269  0.1739  0.0878
   66SAPC  H15A 5418   2.665   5.050   2.185  0.5380  1.8356  1.1985
   66SAPC  H15B 5419   2.650   5.199   2.100 -0.0139  0.2482  1.3126
   66SAPC  H15C 5420   2.612   5.062   2.019 -1.2375  0.9192  0.4275
   66SAPC   C11 5421   2.905   5.066   2.295  0.2821 -0.3736  0.5488
   66SAPC  H11A 5422   2.797   5.065   2.322  0.2832 -2.0878  0.6194
   66SAPC  H11B 5423   2.947   5.142   2.365  0.1697  1.1265 -0.9709
   66SAPC     P 5424   3.117   4.918   2.330  0.1103 -0.3269 -0.0644
   66SAPC   O13 5425   3.146   4.776   2.358 -0.0599 -0.1266 -0.0411
   66SAPC   O14 5426   3.193   4.972   2.218 -0.4794 -0.3058 -0.9161
   66SAPC   O12 5427   2.962   4.938   2.308 -0.1710 -0.3709 -0.1000
   66SAPC   O11 5428   3.151   5.000   2.456 -0.2720  0.0073 -0.5543
   66SAPC    C1 5429   3.107   4.958   2.587 -0.2441 -0.2092  0.7312
   66SAPC    HA 5430   3.092   5.055   2.639  1.0707  0.0543  0.6343
   66SAPC    HB 5431   3.011   4.901   2.582  0.4961 -1.6908  2.1753
   66SAPC    C2 5432   3.207   4.869   2.664 -0.0068 -0.5425  0.0940
   66SAPC    HS 5433   3.214   4.776   2.605  1.9775  0.2348 -0.9773
   66SAPC   O21 5434   3.156   4.855   2.799  0.2028  0.2846 -0.1194
   66SAPC   C21 5435   3.061   4.755   2.809 -0.7499 -0.1147  0.4674
   66SAPC   O22 5436   3.036   4.678   2.721  0.3954  0.3498 -0.5070
   66SAPC   C22 5437   3.002   4.749   2.952 -0.3087  0.2746 -0.4269
   66SAPC   H2R 5438   2.891   4.749   2.944 -0.5651  2.0468  2.1092
   66SAPC   H2S 5439   3.041   4.649   2.982 -0.4693 -0.1412 -1.5418
   66SAPC    C3 5440   3.344   4.935   2.674  1.0223 -0.0004 -0.1100
   66SAPC    HX 5441   3.316   5.020   2.740 -0.1197  1.1010 -1.9067
   66SAPC    HY 5442   3.375   4.976   2.575  0.0394  1.9256  0.3269
   66SAPC   O31 5443   3.445   4.849   2.731  0.3905  0.0447 -0.3709
   66SAPC   C31 5444   3.553   4.906   2.762  1.0026  0.4970  1.0833
   66SAPC   O32 5445   3.583   5.020   2.734  0.0510 -0.3711  0.3862
   66SAPC   C32 5446   3.646   4.797   2.829 -0.2511 -0.4866 -0.0937
   66SAPC   H2X 5447   3.730   4.771   2.761 -0.3016 -0.3575 -0.2063
   66SAPC   H2Y 5448   3.586   4.703   2.831 -2.4879  0.8437 -0.9879
   66SAPC   C23 5449   3.055   4.861   3.050 -0.2308  0.1509  0.1284
   66SAPC   H3R 5450   3.011   4.955   3.011 -0.4163 -0.4270 -1.1042
   66SAPC   H3S 5451   3.165   4.873   3.049  0.0105 -1.4040 -2.6889
   66SAPC   C24 5452   3.007   4.827   3.192 -0.0758 -0.7331  0.6727
   66SAPC   H4R 5453   3.075   4.881   3.261 -0.6363  0.2696  0.4707
   66SAPC   H4S 5454   3.030   4.720   3.208  0.0135 -0.6551  1.0798
   66SAPC   C25 5455   2.867   4.866   3.220  0.7638 -0.0211  0.5036
   66SAPC   H5R 5456   2.838   4.961   3.174  1.7564 -0.6154 -1.4396
   66SAPC   C26 5457   2.786   4.791   3.294  0.0807  0.5887 -0.7012
   66SAPC   H6R 5458   2.686   4.835   3.308 -0.1780  0.0789 -0.9217
   66SAPC   C27 5459   2.815   4.652   3.351  0.5346 -0.0078  0.4925
   66SAPC   H7R 5460   2.913   4.663   3.401 -0.0639  0.8429  1.5304
   66SAPC   H7S 5461   2.821   4.570   3.275 -2.9656 -0.8478  0.9307
   66SAPC   C28 5462   2.700   4.600   3.433 -0.6092 -0.1148  0.1594
   66SAPC   H8R 5463   2.609   4.570   3.378  0.4686  0.3655 -2.0047
   66SAPC   C29 5464   2.698   4.599   3.566  0.0178  0.2716 -0.0682
   66SAPC   H9R 5465   2.622   4.542   3.622  0.1519  2.6882  2.8558
   66SAPC  C210 5466   2.798   4.650   3.664  0.5707 -0.1602  0.0155
   66SAPC  H10R 5467   2.734   4.719   3.724  1.0762 -0.1255  0.5280
   66SAPC  H10S 5468   2.855   4.727   3.608 -1.9744  2.5316  0.8529
   66SAPC  C211 5469   2.884   4.563   3.748 -0.7627 -0.0095  0.7141
   66SAPC  H11R 5470   2.988   4.561   3.713 -0.9707  1.8443 -0.1360
   66SAPC  C212 5471   2.837   4.491   3.851 -1.0077  0.6234  0.0812
   66SAPC  H12R 5472   2.901   4.436   3.921 -2.1639  0.3278  0.9225
   66SAPC  C213 5473   2.693   4.479   3.893  0.3698  0.5127 -0.0350
   66SAPC  H13R 5474   2.638   4.405   3.829  0.0617 -0.1117  0.9339
   66SAPC  H13S 5475   2.647   4.580   3.886  1.4575  0.9796 -0.7476
   66SAPC  C214 5476   2.685   4.438   4.037  0.1526 -0.5334  0.0215
   66SAPC  H14R 5477   2.780   4.422   4.091  1.2493  1.0974 -1.3252
   66SAPC  C215 5478   2.566   4.454   4.101 -0.4760  0.0920 -0.7061
   66SAPC  H15R 5479   2.560   4.435   4.210 -2.3127 -1.4257 -1.0018
   66SAPC  C216 5480   2.435   4.501   4.045 -0.5025 -0.4381  0.3523
   66SAPC  H16R 5481   2.445   4.574   3.961  0.1561 -1.2483 -0.2920
   66SAPC  H16S 5482   2.372   4.552   4.120 -0.4730 -0.2414  0.2445
   66SAPC  C217 5483   2.351   4.384   4.002  0.6132  0.1134 -0.3488
   66SAPC  H17R 5484   2.401   4.299   3.950 -0.2193  1.5298 -3.7293
   66SAPC  H17S 5485   2.284   4.421   3.921 -1.7957  0.0014  1.4845
   66SAPC  C218 5486   2.256   4.319   4.115  0.0297 -0.2386 -0.1367
   66SAPC  H18R 5487   2.168   4.271   4.068  0.1474  0.8847 -1.5643
   66SAPC  H18S 5488   2.227   4.405   4.180  1.9448  1.2308 -1.1048
   66SAPC  C219 5489   2.339   4.223   4.204  0.2317 -0.5621  0.5196
   66SAPC  H19R 5490   2.439   4.199   4.162  0.8444 -0.2976  1.7849
   66SAPC  H19S 5491   2.280   4.130   4.214 -1.3787  0.6527  5.8869
   66SAPC  C220 5492   2.364   4.266   4.349 -0.1290  0.4959 -0.0738
   66SAPC  H20R 5493   2.428   4.190   4.398  1.0286  1.7373  0.4009
   66SAPC  H20S 5494   2.271   4.265   4.409  0.0966 -0.8921  0.2716
   66SAPC  H20T 5495   2.425   4.359   4.354 -1.9305  1.7867 -0.7474
   66SAPC   C33 5496   3.696   4.830   2.967 -0.1213 -0.1418 -0.2609
   66SAPC   H3X 5497   3.745   4.740   3.009  0.8535  1.4911  2.3649
   66SAPC   H3Y 5498   3.605   4.864   3.022  0.7174 -1.0845  1.7980
   66SAPC   C34 5499   3.796   4.945   2.962 -0.2594 -1.0941 -0.9891
   66SAPC   H4X 5500   3.740   5.037   2.934 -0.5389 -0.6010  1.0784
   66SAPC   H4Y 5501   3.867   4.925   2.879  1.5618 -1.5017  0.6183
   66SAPC   C35 5502   3.884   4.961   3.085 -0.6872 -0.1755  0.1338
   66SAPC   H5X 5503   3.973   5.017   3.051  0.3244 -1.1830  1.0541
   66SAPC   H5Y 5504   3.923   4.863   3.120 -2.7077 -0.1808  2.7654
   66SAPC   C36 5505   3.814   5.030   3.197 -0.5174 -0.9266 -0.4155
   66SAPC   H6X 5506   3.770   5.122   3.152  0.5588  0.4962  1.2881
   66SAPC   H6Y 5507   3.888   5.063   3.273  0.3293 -2.1199 -0.6947
   66SAPC   C37 5508   3.708   4.948   3.274  0.1659  0.4007  0.2209
   66SAPC   H7X 5509   3.744   4.847   3.302  0.0581  0.2870 -0.0412
   66SAPC   H7Y 5510   3.618   4.934   3.211  1.2451  1.0699 -1.5605
   66SAPC   C38 5511   3.653   5.021   3.400  0.5306  0.2666 -0.2204
   66SAPC   H8X 5512   3.547   4.992   3.414  0.6906 -0.4588 -0.4660
   66SAPC   H8Y 5513   3.658   5.131   3.391 -0.7642  0.2054 -2.2971
   66SAPC   C39 5514   3.709   4.969   3.537  0.0995 -0.0939  1.0030
   66SAPC   H9X 5515   3.813   5.004   3.519 -0.5676  0.3163 -3.2408
   66SAPC   H9Y 5516   3.704   4.858   3.542 -2.3137 -0.0054  1.7248
   66SAPC  C310 5517   3.637   5.028   3.653 -0.5079 -0.2655 -0.5989
   66SAPC  H10X 5518   3.539   4.980   3.673 -0.9657  0.5775 -0.7724
   66SAPC  H10Y 5519   3.608   5.133   3.634  0.6803  0.3474  0.7862
   66SAPC  C311 5520   3.712   5.026   3.788 -0.3380 -0.0989 -0.0245
   66SAPC  H11X 5521   3.655   5.089   3.860 -3.3383 -0.8599 -1.5664
   66SAPC  H11Y 5522   3.811   5.074   3.775  0.7188 -2.4199 -1.0306
   66SAPC  C312 5523   3.748   4.894   3.852 -0.0237 -0.3071 -0.0629
   66SAPC  H12X 5524   3.815   4.839   3.783  0.2550 -0.3834  0.2660
   66SAPC  H12Y 5525   3.660   4.828   3.857  0.3757 -0.7983  3.7184
   66SAPC  C313 5526   3.813   4.903   3.986 -0.2787  0.3597 -0.4565
   66SAPC  H13X 5527   3.919   4.938   3.980  0.1007 -0.7833 -0.8669
   66SAPC  H13Y 5528   3.822   4.802   4.032  0.1284  1.4416  1.9776
   66SAPC  C314 5529   3.741   4.994   4.085  0.2179 -0.2393  0.3288
   66SAPC  H14X 5530   3.643   4.946   4.107  0.0329  1.0946  2.7182
   66SAPC  H14Y 5531   3.711   5.097   4.053 -0.0876 -0.2352  0.6210
   66SAPC  C315 5532   3.811   4.992   4.221  0.1646  0.3606  0.0097
   66SAPC  H15X 5533   3.911   5.038   4.209 -0.5028  1.3699 -2.1361
   66SAPC  H15Y 5534   3.836   4.886   4.244 -0.6950  0.6793  2.6849
   66SAPC  C316 5535   3.728   5.050   4.333 -0.3599 -0.3097  0.4527
   66SAPC  H16X 5536   3.769   5.016   4.431  0.6275 -2.4431 -0.6247
   66SAPC  H16Y 5537   3.622   5.016   4.328 -0.2568 -1.1903  2.7747
   66SAPC  C317 5538   3.743   5.202   4.323  0.5736 -0.0085 -0.1688
   66SAPC  H17X 5539   3.704   5.237   4.224  3.8303  0.3363 -1.4416
   66SAPC  H17Y 5540   3.848   5.237   4.320 -0.1057  2.1769 -0.3267
   66SAPC  C318 5541   3.662   5.274   4.429 -0.6624 -0.0187 -0.2584
   66SAPC  H18X 5542   3.660   5.380   4.394  1.7093  0.7853  1.7113
   66SAPC  H18Y 5543   3.729   5.279   4.518  2.5901  0.5615 -2.5705
   66SAPC  H18Z 5544   3.564   5.232   4.461  0.3122 -0.4288  2.4553
   67SAPC     N 5545   1.587   6.685   1.800  0.3023 -0.7144  0.9180
   67SAPC   C12 5546   1.448   6.700   1.851  0.7696  0.0751  0.8387
   67SAPC  H12A 5547   1.418   6.621   1.917 -0.8683  0.0913  0.1460
   67SAPC  H12B 5548   1.372   6.684   1.776  0.2683  1.6084  0.9903
   67SAPC   C13 5549   1.607   6.552   1.736  0.0111 -0.5618 -0.4175
   67SAPC  H13A 5550   1.712   6.544   1.712  0.1632 -0.1719  0.0970
   67SAPC  H13B 5551   1.568   6.473   1.798  0.6839 -0.5023  0.0923
   67SAPC  H13C 5552   1.562   6.537   1.639 -0.1315  2.8319 -1.0185
   67SAPC   C14 5553   1.603   6.802   1.706 -0.4301  0.9469 -0.4076
   67SAPC  H14A 5554   1.587   6.891   1.763 -0.9249  0.6710 -0.1047
   67SAPC  H14B 5555   1.704   6.809   1.669  0.1085  0.9131  1.0180
   67SAPC  H14C 5556   1.536   6.793   1.621 -1.6447 -2.1548  0.7103
   67SAPC   C15 5557   1.684   6.700   1.908  0.5206 -0.0885  0.1513
   67SAPC  H15A 5558   1.674   6.629   1.988 -0.8248  0.4460  0.4752
   67SAPC  H15B 5559   1.787   6.683   1.878  0.6886 -1.3423  1.3406
   67SAPC  H15C 5560   1.683   6.799   1.952 -0.7207 -0.7505  1.6895
   67SAPC   C11 5561   1.416   6.825   1.940 -0.2560  0.2382  0.5857
   67SAPC  H11A 5562   1.468   6.808   2.037 -2.1359 -2.1290  1.2845
   67SAPC  H11B 5563   1.306   6.810   1.947 -0.4715  0.3510 -1.8970
   67SAPC     P 5564   1.411   7.084   1.960 -0.0084  0.2953  0.0461
   67SAPC   O13 5565   1.475   7.199   1.901  0.1447 -0.1743 -0.1939
   67SAPC   O14 5566   1.264   7.099   1.969  0.6167 -0.1474  0.5197
   67SAPC   O12 5567   1.447   6.951   1.879 -0.1504  0.1595 -0.4800
   67SAPC   O11 5568   1.466   7.047   2.104 -0.9133 -0.0895 -0.4563
   67SAPC    C1 5569   1.386   7.105   2.212  0.0729 -0.0511 -0.3339
   67SAPC    HA 5570   1.277   7.090   2.200  0.0345 -2.5834  2.1545
   67SAPC    HB 5571   1.413   7.056   2.308  0.9375  0.9381 -0.0529
   67SAPC    C2 5572   1.408   7.259   2.243 -0.4148  0.1012  0.1576
   67SAPC    HS 5573   1.373   7.314   2.153  0.5644  0.0039 -0.2983
   67SAPC   O21 5574   1.551   7.288   2.263 -0.5290 -0.3075  0.0782
   67SAPC   C21 5575   1.587   7.415   2.265 -0.0847  0.1485  0.5506
   67SAPC   O22 5576   1.519   7.508   2.221 -0.4252  0.7901 -0.2035
   67SAPC   C22 5577   1.723   7.426   2.331 -0.0697 -0.1756 -0.0661
   67SAPC   H2R 5578   1.809   7.455   2.267  1.5481  1.7791  2.8288
   67SAPC   H2S 5579   1.720   7.510   2.403 -1.9013 -0.9956  0.8904
   67SAPC    C3 5580   1.320   7.309   2.367 -0.2457 -0.2714  0.3573
   67SAPC    HX 5581   1.212   7.286   2.360 -0.1082 -2.2846  3.1015
   67SAPC    HY 5582   1.334   7.419   2.367  1.7642 -0.4621 -0.9771
   67SAPC   O31 5583   1.376   7.252   2.492  0.3817 -0.7438  0.1081
   67SAPC   C31 5584   1.326   7.317   2.596 -0.5061 -0.6492 -0.7166
   67SAPC   O32 5585   1.242   7.403   2.595  0.3895  0.5016  0.2711
   67SAPC   C32 5586   1.389   7.271   2.721 -0.2744  0.5117 -1.0169
   67SAPC   H2X 5587   1.439   7.365   2.751 -0.9179  0.7071 -0.5260
   67SAPC   H2Y 5588   1.469   7.198   2.698  0.8280  0.3215  2.8412
   67SAPC   C23 5589   1.766   7.294   2.401 -0.1363  0.0523  0.7879
   67SAPC   H3R 5590   1.773   7.216   2.322  1.0037 -0.1419  1.0627
   67SAPC   H3S 5591   1.681   7.276   2.471 -1.9349  1.2049 -0.9813
   67SAPC   C24 5592   1.905   7.295   2.459 -0.3686 -0.0416  0.8200
   67SAPC   H4R 5593   1.894   7.377   2.534 -0.5620  2.4453 -1.7551
   67SAPC   H4S 5594   1.981   7.325   2.384 -0.0594 -0.8722  0.7969
   67SAPC   C25 5595   1.950   7.160   2.508 -0.0133  0.4528  0.1321
   67SAPC   H5R 5596   1.899   7.080   2.452  2.4782 -2.2549  1.4600
   67SAPC   C26 5597   2.013   7.124   2.623  0.5549  0.0436  0.6730
   67SAPC   H6R 5598   2.045   7.019   2.626  1.3924  0.2842  0.3352
   67SAPC   C27 5599   2.070   7.223   2.722 -0.6952 -0.1643  1.0115
   67SAPC   H7R 5600   2.052   7.323   2.677  1.5379 -0.6313 -1.1789
   67SAPC   H7S 5601   2.180   7.208   2.734 -0.3954  0.7781 -0.2744
   67SAPC   C28 5602   2.007   7.220   2.854  0.5471 -0.2097 -0.1784
   67SAPC   H8R 5603   1.918   7.283   2.867  1.4546  0.8070  1.3858
   67SAPC   C29 5604   2.040   7.134   2.954 -0.3726 -0.2158  0.1606
   67SAPC   H9R 5605   1.988   7.134   3.051  1.5588  0.1249  1.2535
   67SAPC  C210 5606   2.157   7.031   2.950  0.3656  0.3777  0.0734
   67SAPC  H10R 5607   2.205   7.035   2.850 -1.9947  1.7433 -1.0910
   67SAPC  H10S 5608   2.121   6.928   2.971  2.0820 -0.4663 -0.9412
   67SAPC  C211 5609   2.264   7.062   3.052  0.0469  0.0860  0.4948
   67SAPC  H11R 5610   2.360   7.105   3.017  1.4862 -3.5593 -0.4819
   67SAPC  C212 5611   2.251   7.045   3.184 -0.2897 -0.3980  0.5914
   67SAPC  H12R 5612   2.343   7.055   3.243  0.3239 -3.1327  0.2537
   67SAPC  C213 5613   2.131   6.988   3.255  0.6178  0.0564  0.1601
   67SAPC  H13R 5614   2.037   6.999   3.196  1.0947  2.5497 -0.2378
   67SAPC  H13S 5615   2.121   7.050   3.346 -0.3881 -1.8821  1.4368
   67SAPC  C214 5616   2.152   6.842   3.296 -0.1993 -0.6762  0.2746
   67SAPC  H14R 5617   2.103   6.767   3.233  1.1196 -1.4365  0.1268
   67SAPC  C215 5618   2.213   6.790   3.405  0.0166 -0.2247 -0.5038
   67SAPC  H15R 5619   2.207   6.680   3.411  1.2441 -0.2418  0.7370
   67SAPC  C216 5620   2.282   6.857   3.526 -0.6967  0.5446  1.3316
   67SAPC  H16R 5621   2.250   6.822   3.626 -1.3490 -1.8672  0.3365
   67SAPC  H16S 5622   2.281   6.968   3.515 -0.4179  0.3313 -1.5773
   67SAPC  C217 5623   2.433   6.820   3.524  0.5728 -0.2647  0.3043
   67SAPC  H17R 5624   2.465   6.834   3.418 -3.6311 -0.7625 -1.2328
   67SAPC  H17S 5625   2.453   6.722   3.570  0.9636  0.8580  2.6726
   67SAPC  C218 5626   2.516   6.909   3.619  0.1221 -1.1204 -0.6233
   67SAPC  H18R 5627   2.459   6.924   3.713  2.7197  0.9197  0.7610
   67SAPC  H18S 5628   2.527   7.011   3.577  3.5266 -0.1479  2.1544
   67SAPC  C219 5629   2.655   6.852   3.640 -0.7096  0.1120 -0.1404
   67SAPC  H19R 5630   2.703   6.847   3.540  2.5187 -0.0807  1.2851
   67SAPC  H19S 5631   2.636   6.748   3.675 -0.8660 -0.1655 -1.0308
   67SAPC  C220 5632   2.752   6.936   3.722 -0.1923  1.1212  0.3681
   67SAPC  H20R 5633   2.747   7.041   3.687 -0.9873  1.2128  0.7384
   67SAPC  H20S 5634   2.856   6.897   3.722 -0.6909 -0.3487  2.0223
   67SAPC  H20T 5635   2.731   6.921   3.830 -0.4572  0.0096  0.1820
   67SAPC   C33 5636   1.301   7.218   2.840 -0.0472  0.0661  0.1872
   67SAPC   H3X 5637   1.245   7.129   2.807 -2.2526  1.5640 -0.3417
   67SAPC   H3Y 5638   1.230   7.298   2.871  2.5555  1.8018  2.1388
   67SAPC   C34 5639   1.375   7.195   2.973  0.2895  0.0807 -0.3287
   67SAPC   H4X 5640   1.439   7.284   2.992  1.8557 -0.4228 -2.7238
   67SAPC   H4Y 5641   1.438   7.103   2.968 -1.2986 -1.1370  1.0777
   67SAPC   C35 5642   1.276   7.172   3.086 -1.0011  0.3681  0.3143
   67SAPC   H5X 5643   1.214   7.080   3.076 -0.4002 -0.1009  0.7942
   67SAPC   H5Y 5644   1.208   7.259   3.089 -0.9793  0.6134 -3.0922
   67SAPC   C36 5645   1.358   7.159   3.219 -0.3200 -0.3537  0.0211
   67SAPC   H6X 5646   1.431   7.243   3.212 -2.0951  1.2961  0.5722
   67SAPC   H6Y 5647   1.397   7.055   3.224 -2.4999 -1.1669  2.8655
   67SAPC   C37 5648   1.280   7.180   3.345 -0.1875 -0.2255  0.3725
   67SAPC   H7X 5649   1.219   7.087   3.349  1.9126 -1.9045 -2.5649
   67SAPC   H7Y 5650   1.223   7.276   3.346  1.0489  0.5271  0.3998
   67SAPC   C38 5651   1.373   7.186   3.469 -0.6960  0.9439  0.5594
   67SAPC   H8X 5652   1.306   7.208   3.555  1.5667 -0.0670  2.7197
   67SAPC   H8Y 5653   1.458   7.256   3.460 -1.0004  1.2873  0.3403
   67SAPC   C39 5654   1.441   7.050   3.493  0.0359 -0.2828  0.0284
   67SAPC   H9X 5655   1.494   7.011   3.404 -2.5931 -1.0016 -1.3284
   67SAPC   H9Y 5656   1.357   6.978   3.489  2.0241 -2.6991 -0.6585
   67SAPC  C310 5657   1.514   7.033   3.634 -0.1392  0.1525  0.0584
   67SAPC  H10X 5658   1.603   7.099   3.645  1.3125 -1.8722  1.1136
   67SAPC  H10Y 5659   1.537   6.925   3.643 -4.8665 -0.9751  1.1193
   67SAPC  C311 5660   1.415   7.057   3.753  0.0316 -0.7261 -0.5384
   67SAPC  H11X 5661   1.317   7.013   3.723 -0.5855  0.4023 -0.2229
   67SAPC  H11Y 5662   1.401   7.165   3.773 -0.1768 -0.8752  0.1510
   67SAPC  C312 5663   1.456   6.984   3.890  0.0965 -0.2204  0.3899
   67SAPC  H12X 5664   1.564   6.981   3.916 -0.3197 -0.2825  2.2147
   67SAPC  H12Y 5665   1.441   6.875   3.874  1.0240 -0.4286  0.8350
   67SAPC  C313 5666   1.378   7.037   4.017 -0.3596  0.2183  0.1191
   67SAPC  H13X 5667   1.271   7.063   4.003 -0.3744  0.5906  0.8452
   67SAPC  H13Y 5668   1.422   7.132   4.053  0.5881 -0.2410  0.2066
   67SAPC  C314 5669   1.399   6.930   4.131  0.3741 -0.2007  0.0336
   67SAPC  H14X 5670   1.502   6.891   4.148  0.0319 -0.4372  1.6086
   67SAPC  H14Y 5671   1.335   6.850   4.088 -1.1381  1.2457 -0.5226
   67SAPC  C315 5672   1.323   6.969   4.260 -0.8201  0.9890 -0.2953
   67SAPC  H15X 5673   1.317   6.875   4.319  0.6906 -0.0617 -1.7023
   67SAPC  H15Y 5674   1.222   7.006   4.232 -1.5964 -0.1505  0.8889
   67SAPC  C316 5675   1.387   7.086   4.331  0.4669  0.3093  0.0024
   67SAPC  H16X 5676   1.479   7.102   4.271 -0.7467 -0.0042 -2.0333
   67SAPC  H16Y 5677   1.424   7.066   4.434 -2.8966  1.3574  1.5247
   67SAPC  C317 5678   1.287   7.207   4.343  0.5128  0.1097  0.5757
   67SAPC  H17X 5679   1.188   7.172   4.378  0.5099 -1.0910 -0.5546
   67SAPC  H17Y 5680   1.277   7.256   4.244 -0.1454 -1.6309 -0.2540
   67SAPC  C318 5681   1.332   7.301   4.451 -0.1554  0.3149 -0.2347
   67SAPC  H18X 5682   1.336   7.258   4.554  2.0395  1.4440  0.2118
   67SAPC  H18Y 5683   1.279   7.398   4.453 -0.2649  0.2554 -0.2176
   67SAPC  H18Z 5684   1.437   7.326   4.426  0.3141  0.4668  1.6763
   68SAPC     N 5685   3.397   6.147   1.969 -0.1850 -0.0144 -0.3213
   68SAPC   C12 5686   3.538   6.158   2.041 -0.3420 -0.0543 -0.0764
   68SAPC  H12A 5687   3.609   6.205   1.974 -2.3297  2.2424 -0.7329
   68SAPC  H12B 5688   3.577   6.062   2.070  2.2635  1.7243  2.8743
   68SAPC   C13 5689   3.350   6.274   1.902 -0.8178 -0.2843  0.1096
   68SAPC  H13A 5690   3.363   6.350   1.977 -0.7076  2.5065 -2.5157
   68SAPC  H13B 5691   3.417   6.307   1.823 -1.0587 -0.2608 -0.0873
   68SAPC  H13C 5692   3.249   6.273   1.863 -0.8890  1.0275  0.2122
   68SAPC   C14 5693   3.394   6.032   1.874 -0.1774  0.0253 -0.4361
   68SAPC  H14A 5694   3.292   6.010   1.846 -0.6155  1.2856  0.1055
   68SAPC  H14B 5695   3.445   6.061   1.784  1.6562  0.2046  0.6121
   68SAPC  H14C 5696   3.439   5.941   1.912 -0.5752 -0.1340 -0.3361
   68SAPC   C15 5697   3.294   6.109   2.075  0.8369 -0.3673  0.0288
   68SAPC  H15A 5698   3.318   6.027   2.141 -1.9377 -1.1264  0.1863
   68SAPC  H15B 5699   3.270   6.194   2.136 -0.4499 -1.5500  1.2335
   68SAPC  H15C 5700   3.204   6.085   2.020  0.3144  0.0826  0.6841
   68SAPC   C11 5701   3.550   6.244   2.170 -0.2257 -0.4887  0.2182
   68SAPC  H11A 5702   3.656   6.244   2.204  0.1250 -2.0245 -0.7872
   68SAPC  H11B 5703   3.493   6.193   2.251 -0.0847  0.2542  0.7967
   68SAPC     P 5704   3.581   6.488   2.062  0.7626 -0.1163 -0.2310
   68SAPC   O13 5705   3.665   6.415   1.962 -0.3870 -0.5102  0.3026
   68SAPC   O14 5706   3.474   6.574   2.001 -0.0919  0.7326  0.4982
   68SAPC   O12 5707   3.506   6.380   2.152  0.1495 -0.6239  0.1428
   68SAPC   O11 5708   3.671   6.566   2.166  0.3211 -0.1689  0.2462
   68SAPC    C1 5709   3.598   6.632   2.273 -0.0569 -0.0838 -0.8546
   68SAPC    HA 5710   3.648   6.725   2.308  0.0612 -0.5076  0.1386
   68SAPC    HB 5711   3.503   6.677   2.236  0.0231  0.0263 -0.9258
   68SAPC    C2 5712   3.567   6.547   2.402 -0.2871  0.2588  0.1348
   68SAPC    HS 5713   3.498   6.467   2.369 -0.7514  0.5171  0.4631
   68SAPC   O21 5714   3.505   6.637   2.500  0.1232  0.3176  0.2203
   68SAPC   C21 5715   3.429   6.569   2.590 -0.5245 -0.0791  0.2449
   68SAPC   O22 5716   3.410   6.451   2.594 -0.2282  0.4575  0.3790
   68SAPC   C22 5717   3.379   6.671   2.693  0.3611  0.4147 -1.2210
   68SAPC   H2R 5718   3.455   6.748   2.718 -0.2040  0.6758 -0.2140
   68SAPC   H2S 5719   3.290   6.718   2.647 -0.5670  1.4715  1.4091
   68SAPC    C3 5720   3.701   6.483   2.459  0.7516 -0.0032 -0.0835
   68SAPC    HX 5721   3.766   6.572   2.456 -1.3026  1.5503 -1.4269
   68SAPC    HY 5722   3.750   6.415   2.386 -0.3570  1.5095 -2.3555
   68SAPC   O31 5723   3.688   6.430   2.596  0.0060 -0.4464  0.5221
   68SAPC   C31 5724   3.658   6.303   2.603  0.2287 -0.8658 -0.1656
   68SAPC   O32 5725   3.644   6.227   2.510 -0.3538 -0.0298 -0.1124
   68SAPC   C32 5726   3.666   6.255   2.747  0.3034 -0.1773 -0.1299
   68SAPC   H2X 5727   3.718   6.157   2.744 -0.5048 -0.5925 -1.9990
   68SAPC   H2Y 5728   3.561   6.223   2.766 -0.9095  1.2301 -3.5397
   68SAPC   C23 5729   3.317   6.606   2.822 -1.0338  0.2193 -0.2847
   68SAPC   H3R 5730   3.268   6.511   2.792  1.2925 -1.3714  0.6844
   68SAPC   H3S 5731   3.248   6.679   2.868 -0.7068 -0.7081  1.7908
   68SAPC   C24 5732   3.435   6.561   2.916  0.4840  0.3202  0.3816
   68SAPC   H4R 5733   3.501   6.649   2.924  0.5963  0.5641 -2.2079
   68SAPC   H4S 5734   3.504   6.501   2.852 -0.0424 -1.3749  1.3346
   68SAPC   C25 5735   3.403   6.482   3.042  0.3744 -0.2936  0.4608
   68SAPC   H5R 5736   3.315   6.417   3.035  1.2063 -2.0693  4.2379
   68SAPC   C26 5737   3.465   6.488   3.157 -0.0834  0.6251 -0.4465
   68SAPC   H6R 5738   3.416   6.436   3.241  1.1195  0.7866  0.3720
   68SAPC   C27 5739   3.576   6.588   3.182  0.2567 -0.9562 -0.2721
   68SAPC   H7R 5740   3.531   6.681   3.223  0.0269 -0.9969 -0.4275
   68SAPC   H7S 5741   3.623   6.618   3.086  2.7775  0.8701  1.3798
   68SAPC   C28 5742   3.665   6.533   3.288  0.2208  0.1971 -0.0429
   68SAPC   H8R 5743   3.756   6.479   3.256  0.7432  1.2222 -0.3427
   68SAPC   C29 5744   3.678   6.572   3.419 -0.6456  0.1375 -0.5534
   68SAPC   H9R 5745   3.760   6.530   3.477 -0.3378 -1.0641 -1.7947
   68SAPC  C210 5746   3.594   6.684   3.486  0.1162 -0.5163  0.4177
   68SAPC  H10R 5747   3.490   6.655   3.512  0.1791 -1.2916 -0.1758
   68SAPC  H10S 5748   3.581   6.771   3.417 -2.3718 -0.0136  1.4024
   68SAPC  C211 5749   3.653   6.729   3.613 -0.5418 -0.0893  0.4279
   68SAPC  H11R 5750   3.708   6.825   3.614  2.3872 -1.6225  1.5713
   68SAPC  C212 5751   3.656   6.668   3.736  0.7117  0.4979  0.1835
   68SAPC  H12R 5752   3.700   6.719   3.823  0.0291 -0.6324  1.2178
   68SAPC  C213 5753   3.590   6.529   3.775 -0.6111  1.2613 -0.3385
   68SAPC  H13R 5754   3.505   6.513   3.705 -0.4250 -1.7144 -0.0105
   68SAPC  H13S 5755   3.536   6.532   3.873  0.1562  0.5450  0.1185
   68SAPC  C214 5756   3.688   6.417   3.777 -0.2069 -0.7373 -0.8204
   68SAPC  H14R 5757   3.793   6.436   3.752 -0.2412 -2.3533 -2.3592
   68SAPC  C215 5758   3.652   6.295   3.828 -0.1973  0.2573  0.2006
   68SAPC  H15R 5759   3.728   6.216   3.819  0.6746  0.9381  1.3580
   68SAPC  C216 5760   3.511   6.251   3.859 -0.3019  1.1231 -0.7675
   68SAPC  H16R 5761   3.484   6.175   3.783 -1.1273  0.9601 -0.3211
   68SAPC  H16S 5762   3.445   6.338   3.840 -1.3380  0.7657  0.9554
   68SAPC  C217 5763   3.478   6.189   3.993  0.1853  0.2524  0.5043
   68SAPC  H17R 5764   3.517   6.272   4.057 -2.2681  1.9715 -0.0939
   68SAPC  H17S 5765   3.539   6.098   4.010 -1.2444 -0.3397  2.7550
   68SAPC  C218 5766   3.329   6.159   4.010  0.2869  0.3305 -0.1185
   68SAPC  H18R 5767   3.291   6.086   3.935 -1.1239 -0.5768  1.3965
   68SAPC  H18S 5768   3.270   6.252   4.025 -0.0182  0.1301 -0.0673
   68SAPC  C219 5769   3.308   6.087   4.144 -0.0429  0.5577 -0.0354
   68SAPC  H19R 5770   3.370   5.994   4.144 -2.1335 -0.9017 -0.2517
   68SAPC  H19S 5771   3.203   6.056   4.161  0.0093  1.4973  2.3713
   68SAPC  C220 5772   3.352   6.171   4.266 -0.0925  0.7679 -0.0499
   68SAPC  H20R 5773   3.446   6.229   4.258  0.4374  0.0288  0.7100
   68SAPC  H20S 5774   3.352   6.109   4.358 -0.5025  0.7145 -0.0805
   68SAPC  H20T 5775   3.270   6.245   4.281 -2.1685 -1.5905  1.0575
   68SAPC   C33 5776   3.718   6.344   2.855 -0.1991 -0.2787 -0.0538
   68SAPC   H3X 5777   3.661   6.336   2.950 -1.1127  0.3434 -0.5379
   68SAPC   H3Y 5778   3.725   6.452   2.830  0.0879  0.4171  2.7104
   68SAPC   C34 5779   3.859   6.292   2.890  0.4501  0.3971 -0.6372
   68SAPC   H4X 5780   3.929   6.300   2.804 -0.6585  5.5305 -1.4147
   68SAPC   H4Y 5781   3.868   6.188   2.926 -0.4542  0.6098  0.2706
   68SAPC   C35 5782   3.907   6.378   3.014 -0.4853  0.3087 -0.3471
   68SAPC   H5X 5783   3.855   6.347   3.107  1.4855 -0.5807  0.4908
   68SAPC   H5Y 5784   3.892   6.484   2.987  2.2412  0.3085 -2.2564
   68SAPC   C36 5785   4.051   6.334   3.045 -0.2739 -0.1561 -0.0246
   68SAPC   H6X 5786   4.111   6.340   2.952 -0.3130  1.9726  0.0351
   68SAPC   H6Y 5787   4.054   6.229   3.079 -1.0092 -0.8518 -1.9922
   68SAPC   C37 5788   4.118   6.431   3.153 -0.0659  0.2128 -0.4596
   68SAPC   H7X 5789   4.093   6.536   3.125 -1.1981  0.1985  0.4243
   68SAPC   H7Y 5790   4.228   6.416   3.147  0.1332  1.1461  0.4276
   68SAPC   C38 5791   4.070   6.420   3.303 -0.4853 -0.4419 -0.2475
   68SAPC   H8X 5792   3.965   6.452   3.320  0.2221  2.4185 -0.7786
   68SAPC   H8Y 5793   4.139   6.492   3.353  1.8120 -2.1221 -0.7906
   68SAPC   C39 5794   4.082   6.284   3.370 -0.2457 -0.1014  0.5293
   68SAPC   H9X 5795   4.187   6.247   3.374  0.0121  0.7186  3.7638
   68SAPC   H9Y 5796   4.017   6.225   3.301 -0.8973  2.2996 -1.0289
   68SAPC  C310 5797   4.026   6.292   3.514 -0.8344 -0.1876 -0.4457
   68SAPC  H10X 5798   3.998   6.190   3.547  2.0269 -0.9162  0.0424
   68SAPC  H10Y 5799   3.940   6.362   3.511  0.2031  1.1093 -0.8196
   68SAPC  C311 5800   4.133   6.334   3.623 -0.2458  0.5968  0.5822
   68SAPC  H11X 5801   4.179   6.423   3.575 -0.7827 -0.0537 -1.2372
   68SAPC  H11Y 5802   4.215   6.259   3.629  1.8843  2.7297 -0.3219
   68SAPC  C312 5803   4.080   6.362   3.764 -0.0234 -0.0688  0.7003
   68SAPC  H12X 5804   3.980   6.406   3.744  1.2671  1.4976 -3.3324
   68SAPC  H12Y 5805   4.154   6.437   3.801  0.6160 -0.0610 -0.5454
   68SAPC  C313 5806   4.063   6.241   3.853 -0.2114 -0.0028  0.0892
   68SAPC  H13X 5807   4.169   6.209   3.851 -0.8016 -2.1422  0.9068
   68SAPC  H13Y 5808   3.987   6.171   3.814  0.5679 -1.1317  0.5404
   68SAPC  C314 5809   4.024   6.278   3.997  0.1571 -0.0030 -0.6128
   68SAPC  H14X 5810   3.977   6.192   4.048  1.3336  0.6316  1.6572
   68SAPC  H14Y 5811   3.952   6.362   3.986  1.2675  0.9664 -0.6632
   68SAPC  C315 5812   4.146   6.310   4.094  0.2077  0.8456 -0.1414
   68SAPC  H15X 5813   4.197   6.404   4.063  0.6909  0.7777  0.4241
   68SAPC  H15Y 5814   4.220   6.227   4.091  1.3838  1.6463  3.0173
   68SAPC  C316 5815   4.099   6.329   4.239  0.2627 -1.4885 -1.0445
   68SAPC  H16X 5816   4.066   6.232   4.281 -0.2973 -0.8644 -0.0050
   68SAPC  H16Y 5817   4.012   6.398   4.242  1.1733 -0.3160 -0.1249
   68SAPC  C317 5818   4.188   6.399   4.343 -0.4318 -0.5389 -0.1712
   68SAPC  H17X 5819   4.233   6.495   4.309  1.4474 -1.0916  0.6385
   68SAPC  H17Y 5820   4.267   6.326   4.372 -2.0866 -1.7924  1.3622
   68SAPC  C318 5821   4.110   6.436   4.471  0.3813 -0.4186  0.3926
   68SAPC  H18X 5822   4.087   6.342   4.526  1.0480  0.0136  1.4445
   68SAPC  H18Y 5823   4.014   6.471   4.428  0.8563 -2.0028 -2.1703
   68SAPC  H18Z 5824   4.159   6.509   4.538  1.8702  0.0317 -1.1196
   69SAPC     N 5825   4.789   3.104   2.158  0.2850  0.1276 -0.2007
   69SAPC   C12 5826   4.881   3.007   2.082  0.4080  0.2050 -0.1014
   69SAPC  H12A 5827   4.940   3.067   2.015  1.0751 -1.2001 -0.8048
   69SAPC  H12B 5828   4.826   2.941   2.017  1.4790 -1.9781  1.1048
   69SAPC   C13 5829   4.866   3.208   2.241 -0.3864  0.6596  0.2890
   69SAPC  H13A 5830   4.902   3.161   2.331  2.9063 -2.0498 -2.1617
   69SAPC  H13B 5831   4.952   3.250   2.191 -0.1913  1.5985  1.3883
   69SAPC  H13C 5832   4.793   3.280   2.275 -1.7042 -1.2772  1.7891
   69SAPC   C14 5833   4.700   3.180   2.071  0.5298  0.2806 -0.0691
   69SAPC  H14A 5834   4.627   3.119   2.020  1.6768  1.2930 -3.1773
   69SAPC  H14B 5835   4.650   3.254   2.132  1.3463 -0.3759  1.4530
   69SAPC  H14C 5836   4.754   3.233   1.994 -2.5610  2.3026 -1.0521
   69SAPC   C15 5837   4.698   3.036   2.263 -0.1417 -0.3433  1.0209
   69SAPC  H15A 5838   4.758   3.005   2.346  0.0688 -0.0485  0.9820
   69SAPC  H15B 5839   4.635   3.104   2.318  1.5516  1.6303  0.6456
   69SAPC  H15C 5840   4.634   2.963   2.216 -1.4869  1.3323  0.1361
   69SAPC   C11 5841   4.988   2.931   2.175 -0.0055 -0.2307  0.2352
   69SAPC  H11A 5842   5.059   3.005   2.216  2.8641 -1.8781 -1.4800
   69SAPC  H11B 5843   5.041   2.864   2.105  1.8091  1.6760 -0.3160
   69SAPC     P 5844   4.898   2.717   2.296 -0.0670  0.3180 -0.3853
   69SAPC   O13 5845   4.784   2.681   2.209  0.4503  0.1686 -0.4396
   69SAPC   O14 5846   5.020   2.642   2.270 -0.0471 -0.2391  0.1203
   69SAPC   O12 5847   4.942   2.867   2.291 -0.1963  0.1974  0.3821
   69SAPC   O11 5848   4.859   2.698   2.443  0.3810  0.2458  0.0773
   69SAPC    C1 5849   4.727   2.727   2.492  0.9329 -0.0448 -0.1323
   69SAPC    HA 5850   4.716   2.836   2.510  0.1029  0.0353 -1.0007
   69SAPC    HB 5851   4.646   2.703   2.419  0.0834 -0.5672  0.9530
   69SAPC    C2 5852   4.689   2.641   2.617  0.3702  0.1960 -0.0852
   69SAPC    HS 5853   4.582   2.656   2.642  0.2865 -0.2139 -0.1996
   69SAPC   O21 5854   4.767   2.677   2.729  1.1359  0.8307  0.3410
   69SAPC   C21 5855   4.740   2.796   2.783  0.0715 -0.4957 -0.3391
   69SAPC   O22 5856   4.660   2.880   2.746 -0.3445  0.0533  0.1142
   69SAPC   C22 5857   4.822   2.810   2.908  0.0413  0.4978  0.0363
   69SAPC   H2R 5858   4.929   2.807   2.876 -0.3909 -0.6152 -1.4234
   69SAPC   H2S 5859   4.799   2.905   2.962 -1.1345 -0.6551  1.6277
   69SAPC    C3 5860   4.712   2.494   2.581  0.0751  0.3366  0.0606
   69SAPC    HX 5861   4.822   2.482   2.569  0.2358  0.6461  1.1434
   69SAPC    HY 5862   4.673   2.476   2.478 -0.2090  2.3159 -0.2151
   69SAPC   O31 5863   4.659   2.400   2.683  0.0232  0.4921  0.3157
   69SAPC   C31 5864   4.528   2.376   2.662 -0.2262 -0.4780 -0.5134
   69SAPC   O32 5865   4.461   2.426   2.573  0.8341  0.1033  0.6656
   69SAPC   C32 5866   4.491   2.259   2.753  0.2167 -0.0682  0.4924
   69SAPC   H2X 5867   4.582   2.231   2.811 -1.0849 -1.7055  1.8139
   69SAPC   H2Y 5868   4.460   2.171   2.692  0.0229  0.5613 -0.3437
   69SAPC   C23 5869   4.791   2.698   3.012 -0.1427  0.6607 -0.3634
   69SAPC   H3R 5870   4.863   2.707   3.096  0.9192  0.8931 -1.2757
   69SAPC   H3S 5871   4.812   2.600   2.964  0.0574  0.4383  0.1725
   69SAPC   C24 5872   4.646   2.702   3.062  0.6722 -0.4685  0.7022
   69SAPC   H4R 5873   4.636   2.623   3.139  1.9904 -1.4565 -0.1110
   69SAPC   H4S 5874   4.571   2.687   2.982  1.0783  1.1984 -0.0337
   69SAPC   C25 5875   4.618   2.832   3.136 -0.4519  0.6476  0.0816
   69SAPC   H5R 5876   4.544   2.900   3.089 -0.0349 -0.2145 -1.9023
   69SAPC   C26 5877   4.682   2.866   3.253 -0.2871 -0.8454  0.2638
   69SAPC   H6R 5878   4.656   2.955   3.313 -0.3842 -1.1017  0.6097
   69SAPC   C27 5879   4.778   2.784   3.334  0.0242  0.5281  0.1212
   69SAPC   H7R 5880   4.874   2.839   3.338  0.7587 -0.7619  0.8238
   69SAPC   H7S 5881   4.805   2.688   3.286 -0.1479  0.3934  0.2876
   69SAPC   C28 5882   4.733   2.754   3.466  0.5386 -0.1723 -0.1465
   69SAPC   H8R 5883   4.630   2.715   3.461 -0.2242  1.6971 -0.2381
   69SAPC   C29 5884   4.796   2.778   3.581 -0.1979  0.6046 -0.4289
   69SAPC   H9R 5885   4.757   2.736   3.675  2.4272 -1.0121  0.0416
   69SAPC  C210 5886   4.935   2.840   3.599 -0.5004 -0.1061  0.2094
   69SAPC  H10R 5887   4.966   2.914   3.522  1.1257 -0.4247  0.5277
   69SAPC  H10S 5888   5.006   2.755   3.605 -2.5506 -2.1263 -1.8210
   69SAPC  C211 5889   4.972   2.905   3.728  0.0025  0.6667  0.5795
   69SAPC  H11R 5890   4.956   3.014   3.727 -0.4822  0.5960  0.7832
   69SAPC  C212 5891   5.002   2.845   3.845  0.0597  0.5641 -0.9756
   69SAPC  H12R 5892   5.038   2.914   3.923 -3.6622 -0.8643  2.3412
   69SAPC  C213 5893   5.030   2.707   3.881  0.6502  0.0879  0.2850
   69SAPC  H13R 5894   5.138   2.692   3.902  0.3153  0.1309  2.2605
   69SAPC  H13S 5895   5.005   2.645   3.792  0.5027  0.8951 -0.2425
   69SAPC  C214 5896   4.941   2.675   4.001 -0.4593  0.4636  0.8808
   69SAPC  H14R 5897   4.848   2.734   3.999 -1.5195 -1.1192  1.2808
   69SAPC  C215 5898   4.984   2.640   4.124 -0.0531 -0.2925 -0.4703
   69SAPC  H15R 5899   4.906   2.620   4.199  0.3509  3.4296  1.1496
   69SAPC  C216 5900   5.122   2.587   4.162 -0.3710 -0.2888  0.2126
   69SAPC  H16R 5901   5.155   2.504   4.096  1.0636  0.8699 -0.6078
   69SAPC  H16S 5902   5.101   2.544   4.263 -1.3325 -2.1388 -0.7272
   69SAPC  C217 5903   5.231   2.701   4.190  0.3317  0.6311 -0.1160
   69SAPC  H17R 5904   5.188   2.757   4.275  1.0769 -0.0250  0.7059
   69SAPC  H17S 5905   5.238   2.765   4.099 -0.6643 -0.1691 -0.7869
   69SAPC  C218 5906   5.364   2.659   4.239  0.5880  0.7591  0.4660
   69SAPC  H18R 5907   5.429   2.749   4.240 -1.4657  2.3462 -0.8908
   69SAPC  H18S 5908   5.411   2.586   4.169 -0.2310 -0.9434  1.6046
   69SAPC  C219 5909   5.361   2.590   4.369  0.0822  0.6007 -0.5082
   69SAPC  H19R 5910   5.452   2.528   4.387 -0.7752 -0.4773  0.2361
   69SAPC  H19S 5911   5.278   2.516   4.370  0.9420 -0.3978 -1.0379
   69SAPC  C220 5912   5.337   2.683   4.485  0.7986  0.8431  0.1025
   69SAPC  H20R 5913   5.409   2.768   4.486  0.6150  1.0604 -1.9292
   69SAPC  H20S 5914   5.343   2.628   4.581 -1.8857  2.0073  1.0230
   69SAPC  H20T 5915   5.243   2.736   4.463  1.2759  1.2734 -0.9944
   69SAPC   C33 5916   4.367   2.304   2.836 -0.6145 -0.3192 -0.1313
   69SAPC   H3X 5917   4.322   2.205   2.863 -0.0196 -0.1365  1.6379
   69SAPC   H3Y 5918   4.290   2.363   2.781 -1.2005 -0.7049  0.2628
   69SAPC   C34 5919   4.420   2.364   2.967 -0.2487  0.2593  0.3488
   69SAPC   H4X 5920   4.477   2.455   2.940 -1.3455  0.7745 -0.2868
   69SAPC   H4Y 5921   4.482   2.285   3.016 -0.1256  0.7380  0.9796
   69SAPC   C35 5922   4.305   2.405   3.056 -0.0675  0.2096  0.3788
   69SAPC   H5X 5923   4.224   2.329   3.058  0.6373 -0.5331  1.6168
   69SAPC   H5Y 5924   4.259   2.490   3.001 -1.7947 -0.8438  0.0858
   69SAPC   C36 5925   4.345   2.445   3.202  0.0090  0.1369 -0.3457
   69SAPC   H6X 5926   4.427   2.520   3.196 -0.2768  0.5898  0.9560
   69SAPC   H6Y 5927   4.382   2.355   3.256  2.2289  1.0976 -0.1505
   69SAPC   C37 5928   4.231   2.509   3.277 -0.2164  0.0970 -0.4096
   69SAPC   H7X 5929   4.152   2.431   3.279  0.8426 -0.9932  0.6426
   69SAPC   H7Y 5930   4.201   2.603   3.227  1.1536  0.4585 -0.5949
   69SAPC   C38 5931   4.255   2.541   3.430 -0.4770  0.7427  0.3255
   69SAPC   H8X 5932   4.276   2.443   3.477 -0.9737 -0.3707 -1.6670
   69SAPC   H8Y 5933   4.153   2.571   3.465 -0.3806  4.7001 -2.1876
   69SAPC   C39 5934   4.347   2.652   3.469  0.4081 -0.2942  0.2929
   69SAPC   H9X 5935   4.320   2.753   3.431 -2.3592 -0.8216  0.6623
   69SAPC   H9Y 5936   4.447   2.625   3.429  0.2260 -1.3823  0.5546
   69SAPC  C310 5937   4.379   2.662   3.616 -0.9617  0.2605 -1.0962
   69SAPC  H10X 5938   4.285   2.689   3.669 -0.2843  0.6220 -0.0537
   69SAPC  H10Y 5939   4.453   2.744   3.626 -0.9759  0.0247  1.3689
   69SAPC  C311 5940   4.427   2.534   3.692 -0.7350  0.2047 -0.2696
   69SAPC  H11X 5941   4.489   2.470   3.626  0.2321 -1.0374  1.7448
   69SAPC  H11Y 5942   4.331   2.479   3.698 -1.4057  0.8688 -3.3353
   69SAPC  C312 5943   4.498   2.560   3.828 -0.9139 -1.3782 -0.1627
   69SAPC  H12X 5944   4.463   2.657   3.870  0.8651 -1.3724  1.4691
   69SAPC  H12Y 5945   4.606   2.575   3.807 -0.5125 -0.0339  2.4109
   69SAPC  C313 5946   4.493   2.443   3.930  0.0738 -0.0191  0.0088
   69SAPC  H13X 5947   4.491   2.353   3.865  1.4183  0.2225 -0.4021
   69SAPC  H13Y 5948   4.393   2.428   3.977  0.6399  0.2612  1.3519
   69SAPC  C314 5949   4.600   2.444   4.036 -0.5622 -1.0802  0.0705
   69SAPC  H14X 5950   4.690   2.481   3.982 -1.6675 -1.8453 -2.4584
   69SAPC  H14Y 5951   4.637   2.342   4.060 -0.5096 -1.6140 -2.0864
   69SAPC  C315 5952   4.571   2.536   4.156  0.3569 -0.2279 -0.7584
   69SAPC  H15X 5953   4.554   2.638   4.115  0.5641  0.5068  0.9067
   69SAPC  H15Y 5954   4.663   2.541   4.219  0.9057  1.4939 -1.6302
   69SAPC  C316 5955   4.445   2.510   4.237  0.2105  0.0205  0.0395
   69SAPC  H16X 5956   4.349   2.505   4.181 -0.2088  0.4406  0.7186
   69SAPC  H16Y 5957   4.433   2.597   4.305 -1.1702  0.0930 -0.2782
   69SAPC  C317 5958   4.454   2.390   4.338  0.1784 -0.4576  0.2557
   69SAPC  H17X 5959   4.535   2.426   4.405 -0.7264  0.6817  0.7615
   69SAPC  H17Y 5960   4.482   2.301   4.277 -0.5663  0.2402 -1.1442
   69SAPC  C318 5961   4.323   2.358   4.416  0.5937  0.6519  0.9007
   69SAPC  H18X 5962   4.238   2.319   4.354 -1.3382 -1.3478  4.4833
   69SAPC  H18Y 5963   4.278   2.451   4.457 -1.6150 -0.2073  0.5878
   69SAPC  H18Z 5964   4.327   2.283   4.497  1.2398 -0.7371 -0.3607
   70SAPC     N 5965   4.890   1.375   2.005 -0.1475  0.3010 -0.4524
   70SAPC   C12 5966   4.855   1.234   2.048 -0.6461 -0.5325  0.6193
   70SAPC  H12A 5967   4.947   1.177   2.045 -0.5468 -0.5734  2.6811
   70SAPC  H12B 5968   4.785   1.193   1.976 -0.2215  0.3515 -0.3146
   70SAPC   C13 5969   4.776   1.471   2.001  0.0069 -0.0871  0.5026
   70SAPC  H13A 5970   4.809   1.573   1.990  0.6618 -0.3465 -0.0702
   70SAPC  H13B 5971   4.708   1.450   1.920 -0.4626  3.8190 -0.2722
   70SAPC  H13C 5972   4.722   1.474   2.094 -1.4510  2.1391 -0.3520
   70SAPC   C14 5973   4.984   1.430   2.105  0.2759  0.2378  0.4182
   70SAPC  H14A 5974   4.933   1.459   2.196  1.8464 -1.1154  1.7894
   70SAPC  H14B 5975   5.066   1.364   2.129  0.1522 -0.1317 -0.1689
   70SAPC  H14C 5976   5.024   1.527   2.080  0.4070  0.4486  1.4007
   70SAPC   C15 5977   4.964   1.368   1.878 -0.4714  0.5025 -0.3797
   70SAPC  H15A 5978   5.026   1.453   1.851 -2.3964  1.8387 -0.8017
   70SAPC  H15B 5979   5.035   1.287   1.867  0.7976  1.3797  1.0304
   70SAPC  H15C 5980   4.902   1.367   1.789 -0.2182  2.3309 -0.6213
   70SAPC   C11 5981   4.800   1.216   2.190  0.9471  0.7287 -0.0178
   70SAPC  H11A 5982   4.882   1.251   2.256  1.3104  0.0458 -0.0980
   70SAPC  H11B 5983   4.779   1.110   2.215  0.6010  1.0144  0.9171
   70SAPC     P 5984   4.541   1.232   2.139 -0.0881  0.4403 -0.5523
   70SAPC   O13 5985   4.436   1.337   2.138 -0.6404 -0.4057  0.3074
   70SAPC   O14 5986   4.580   1.172   2.012 -0.4516 -0.7294 -0.5763
   70SAPC   O12 5987   4.674   1.284   2.207 -0.0763 -0.2103 -1.1692
   70SAPC   O11 5988   4.500   1.115   2.237  0.5854  0.1116  0.3356
   70SAPC    C1 5989   4.457   1.156   2.369 -0.2030 -0.5694 -0.0893
   70SAPC    HA 5990   4.532   1.223   2.417 -0.7598  1.7712 -2.2349
   70SAPC    HB 5991   4.363   1.216   2.374  0.0865 -0.0821 -0.4168
   70SAPC    C2 5992   4.427   1.032   2.457  0.1120 -0.7457 -0.1991
   70SAPC    HS 5993   4.512   0.960   2.456  0.5359 -0.2425 -0.9390
   70SAPC   O21 5994   4.305   0.966   2.409 -0.1576 -0.1851 -0.1315
   70SAPC   C21 5995   4.291   0.836   2.441 -0.5547 -0.3749 -0.2541
   70SAPC   O22 5996   4.367   0.775   2.515 -0.0428  0.1846  0.4219
   70SAPC   C22 5997   4.167   0.786   2.383  0.2456 -0.4065  0.4026
   70SAPC   H2R 5998   4.090   0.864   2.402 -1.3761 -0.7993 -3.5978
   70SAPC   H2S 5999   4.192   0.767   2.277  1.0132  1.3812  0.2230
   70SAPC    C3 6000   4.417   1.087   2.603  0.3881 -0.2446  0.5688
   70SAPC    HX 6001   4.325   1.144   2.580  0.0376 -0.4595  1.3916
   70SAPC    HY 6002   4.491   1.162   2.637  0.5232 -0.4071  0.6379
   70SAPC   O31 6003   4.393   0.980   2.694  0.0889  0.3003  0.0490
   70SAPC   C31 6004   4.507   0.920   2.737 -0.5706 -0.4951 -0.3842
   70SAPC   O32 6005   4.624   0.957   2.726 -0.1077 -0.0614  0.6681
   70SAPC   C32 6006   4.476   0.798   2.824 -0.2040 -0.0228  0.2443
   70SAPC   H2X 6007   4.507   0.702   2.777  4.4650  1.6321 -0.6433
   70SAPC   H2Y 6008   4.369   0.802   2.854  0.1811 -3.0925  2.4630
   70SAPC   C23 6009   4.137   0.656   2.455  0.8592  0.5566 -0.6230
   70SAPC   H3R 6010   4.126   0.668   2.565 -1.4423 -1.3792 -0.5512
   70SAPC   H3S 6011   4.215   0.577   2.445 -0.1467 -0.5389 -0.0610
   70SAPC   C24 6012   4.002   0.590   2.403 -0.7566  0.6876 -0.5908
   70SAPC   H4R 6013   3.986   0.492   2.453 -0.8761  1.6340  1.3162
   70SAPC   H4S 6014   4.015   0.568   2.294 -1.0923 -0.1626 -0.4661
   70SAPC   C25 6015   3.883   0.676   2.426 -0.1211  0.0793  0.0203
   70SAPC   H5R 6016   3.877   0.754   2.349  0.9472  0.5718  0.4150
   70SAPC   C26 6017   3.793   0.670   2.523  0.4608  0.6772 -0.2471
   70SAPC   H6R 6018   3.708   0.738   2.516  1.2696  1.4984 -3.5781
   70SAPC   C27 6019   3.784   0.580   2.646 -0.5995  0.2529  0.0066
   70SAPC   H7R 6020   3.842   0.486   2.634  3.0787  2.3266  0.1396
   70SAPC   H7S 6021   3.676   0.557   2.659 -0.5946 -0.4516 -1.0126
   70SAPC   C28 6022   3.839   0.649   2.772 -0.0393  1.0253  0.2045
   70SAPC   H8R 6023   3.945   0.675   2.785 -0.1340  0.5401  2.2840
   70SAPC   C29 6024   3.759   0.669   2.882 -0.4418  0.2636 -0.0223
   70SAPC   H9R 6025   3.806   0.714   2.971  0.2894  0.7098 -0.6197
   70SAPC  C210 6026   3.608   0.656   2.909  0.6796 -0.5781  0.3328
   70SAPC  H10R 6027   3.592   0.605   3.007  1.8031 -1.8124 -0.0907
   70SAPC  H10S 6028   3.574   0.581   2.835  0.2461 -1.2881  1.2233
   70SAPC  C211 6029   3.539   0.796   2.901 -0.1594  0.2003 -0.5883
   70SAPC  H11R 6030   3.593   0.871   2.842  1.7526 -2.2363 -2.1425
   70SAPC  C212 6031   3.414   0.825   2.942 -0.2595  0.2172 -0.1635
   70SAPC  H12R 6032   3.372   0.927   2.930 -1.0381 -0.2497 -1.7863
   70SAPC  C213 6033   3.327   0.731   3.027 -0.0414 -0.4617  0.2895
   70SAPC  H13R 6034   3.383   0.720   3.123  1.8698  1.9732 -0.4274
   70SAPC  H13S 6035   3.312   0.633   2.977  2.0852 -0.5793 -0.2110
   70SAPC  C214 6036   3.190   0.792   3.049 -0.6107  0.0656 -0.6175
   70SAPC  H14R 6037   3.125   0.789   2.960 -3.6693 -3.4587  1.4712
   70SAPC  C215 6038   3.148   0.850   3.159  0.4925 -0.3672 -0.3492
   70SAPC  H15R 6039   3.051   0.902   3.152  0.7746 -0.0290 -1.9108
   70SAPC  C216 6040   3.223   0.878   3.289 -0.1984  0.2442 -0.0751
   70SAPC  H16R 6041   3.214   0.988   3.303 -0.5151 -0.1589  4.9555
   70SAPC  H16S 6042   3.329   0.848   3.299 -0.5842 -0.8126  1.2521
   70SAPC  C217 6043   3.148   0.812   3.411 -0.2764  0.6358 -0.1713
   70SAPC  H17R 6044   3.117   0.708   3.389  0.0215  0.2831  1.0281
   70SAPC  H17S 6045   3.053   0.869   3.421 -1.8032 -1.8349  0.2237
   70SAPC  C218 6046   3.228   0.814   3.534  0.5052  0.0122 -0.2183
   70SAPC  H18R 6047   3.268   0.914   3.560 -0.9788  0.5236  0.2219
   70SAPC  H18S 6048   3.323   0.759   3.520  1.3944  1.2671  0.6323
   70SAPC  C219 6049   3.149   0.765   3.653  0.8175 -0.3388 -0.4240
   70SAPC  H19R 6050   3.088   0.677   3.622  0.3272  0.9932 -3.5872
   70SAPC  H19S 6051   3.086   0.850   3.687  1.7829 -0.6561  2.4758
   70SAPC  C220 6052   3.230   0.743   3.784 -0.3349 -0.2560 -0.1431
   70SAPC  H20R 6053   3.301   0.658   3.774 -0.7556 -0.6109 -0.1528
   70SAPC  H20S 6054   3.181   0.733   3.883  1.2184 -0.7302  0.6136
   70SAPC  H20T 6055   3.296   0.832   3.791 -1.4674  0.7357 -1.6025
   70SAPC   C33 6056   4.552   0.802   2.962  0.5780  0.2674 -0.1781
   70SAPC   H3X 6057   4.527   0.897   3.014 -0.6905  1.4306 -2.7769
   70SAPC   H3Y 6058   4.660   0.800   2.937  1.1479  0.3911  2.0108
   70SAPC   C34 6059   4.529   0.682   3.053  0.3514  0.1313  0.4795
   70SAPC   H4X 6060   4.565   0.581   3.024  1.1705  0.4953  0.1956
   70SAPC   H4Y 6061   4.419   0.677   3.068  0.2365  1.5823  0.3045
   70SAPC   C35 6062   4.583   0.709   3.192  0.1015 -0.1559  0.1864
   70SAPC   H5X 6063   4.528   0.794   3.237  1.0799  0.6079 -0.0488
   70SAPC   H5Y 6064   4.686   0.750   3.191 -0.5465  1.5258 -0.7459
   70SAPC   C36 6065   4.578   0.582   3.283  1.0572 -0.0920 -0.6833
   70SAPC   H6X 6066   4.618   0.492   3.230  1.5295 -0.7714  0.7810
   70SAPC   H6Y 6067   4.472   0.553   3.300  0.4919  1.9707 -0.3960
   70SAPC   C37 6068   4.662   0.603   3.407 -0.0842  0.6384  0.5310
   70SAPC   H7X 6069   4.766   0.610   3.368  0.2131  1.3672  1.4224
   70SAPC   H7Y 6070   4.654   0.705   3.450  2.4470  1.4692 -0.7658
   70SAPC   C38 6071   4.652   0.485   3.499 -0.7706  0.1583 -0.4501
   70SAPC   H8X 6072   4.743   0.492   3.562 -1.2448  1.1039  0.1566
   70SAPC   H8Y 6073   4.654   0.388   3.446  3.0137  0.4627 -1.1837
   70SAPC   C39 6074   4.522   0.485   3.580  0.3956  0.1143 -0.3110
   70SAPC   H9X 6075   4.445   0.483   3.499  0.0499  1.0510 -0.0262
   70SAPC   H9Y 6076   4.528   0.577   3.642 -0.0908  1.7258 -2.5086
   70SAPC  C310 6077   4.503   0.369   3.681  0.9320 -0.1379  0.8717
   70SAPC  H10X 6078   4.493   0.276   3.621 -0.2399  0.6017 -0.1286
   70SAPC  H10Y 6079   4.410   0.379   3.741 -0.4330  1.1452 -1.3103
   70SAPC  C311 6080   4.616   0.355   3.777  0.9838  0.3233 -0.6715
   70SAPC  H11X 6081   4.625   0.452   3.831  0.9835  1.0159 -1.8902
   70SAPC  H11Y 6082   4.710   0.330   3.724  2.1833  0.4010  1.2943
   70SAPC  C312 6083   4.585   0.240   3.885 -0.3833 -0.2796 -0.3880
   70SAPC  H12X 6084   4.585   0.142   3.832  1.4209 -0.2086 -0.5863
   70SAPC  H12Y 6085   4.490   0.270   3.934  0.1816  0.6751  0.1531
   70SAPC  C313 6086   4.693   0.260   3.992 -0.5619  0.4412 -0.7763
   70SAPC  H13X 6087   4.663   0.351   4.048 -2.4376  0.3471 -1.5564
   70SAPC  H13Y 6088   4.788   0.272   3.936  0.1585 -0.1565  0.2761
   70SAPC  C314 6089   4.680   0.148   4.100  0.0444  0.1044  0.0529
   70SAPC  H14X 6090   4.573   0.122   4.111 -0.1537  1.6031  2.3378
   70SAPC  H14Y 6091   4.724   0.182   4.197 -0.8826  1.0993  0.1378
   70SAPC  C315 6092   4.764   0.029   4.064  0.3271  0.2476 -0.5328
   70SAPC  H15X 6093   4.865   0.058   4.030  1.0725 -1.1493  0.4039
   70SAPC  H15Y 6094   4.717  -0.040   3.991 -0.7755  1.7601 -1.3109
   70SAPC  C316 6095   4.793  -0.065   4.187 -0.2330  0.4013 -0.0709
   70SAPC  H16X 6096   4.853   0.003   4.250 -0.9128  1.3588 -0.4202
   70SAPC  H16Y 6097   4.851  -0.154   4.154 -0.9546 -0.7452  1.6263
   70SAPC  C317 6098   4.678  -0.109   4.273  0.3592  0.3436 -0.3366
   70SAPC  H17X 6099   4.592  -0.152   4.218 -0.7903  0.2845  1.4210
   70SAPC  H17Y 6100   4.635  -0.019   4.322 -1.5209 -1.1051  0.7730
   70SAPC  C318 6101   4.724  -0.226   4.369  0.1103 -0.4115  0.3088
   70SAPC  H18X 6102   4.800  -0.189   4.443 -0.3123  0.8787  0.1255
   70SAPC  H18Y 6103   4.768  -0.310   4.311 -1.1544 -0.6763 -0.2976
   70SAPC  H18Z 6104   4.639  -0.262   4.431  0.1773  0.0892  0.7077
   71SAPC     N 6105   5.193   5.820   1.786  0.5982  0.2276 -0.1831
   71SAPC   C12 6106   5.277   5.800   1.911  0.2693 -0.0966  0.3432
   71SAPC  H12A 6107   5.345   5.883   1.910 -1.5083  1.4399  1.4943
   71SAPC  H12B 6108   5.338   5.713   1.888  0.8448  0.2384  0.6013
   71SAPC   C13 6109   5.117   5.946   1.815  0.6559 -0.1308 -1.3580
   71SAPC  H13A 6110   5.101   5.956   1.921  0.6260 -0.6877 -1.3064
   71SAPC  H13B 6111   5.172   6.038   1.799  1.8710 -0.2997  1.2787
   71SAPC  H13C 6112   5.021   5.965   1.769 -0.2710 -0.2351  0.4626
   71SAPC   C14 6113   5.275   5.829   1.664  0.6729  0.0124  0.4032
   71SAPC  H14A 6114   5.315   5.731   1.644 -0.7672 -0.1614 -2.0943
   71SAPC  H14B 6115   5.216   5.851   1.576 -1.0654  0.2601  1.5615
   71SAPC  H14C 6116   5.354   5.902   1.675  0.1399  0.5089  1.0459
   71SAPC   C15 6117   5.096   5.707   1.773 -0.2199 -0.1332  0.2025
   71SAPC  H15A 6118   5.155   5.617   1.759  2.3826  1.5991 -0.5848
   71SAPC  H15B 6119   5.044   5.701   1.868 -1.3603  1.3053 -0.2956
   71SAPC  H15C 6120   5.015   5.715   1.701  1.6160 -3.0243 -2.4536
   71SAPC   C11 6121   5.230   5.805   2.054  0.5190  0.2882  0.5655
   71SAPC  H11A 6122   5.166   5.895   2.072 -1.3346 -0.5472 -1.3481
   71SAPC  H11B 6123   5.315   5.820   2.123  0.3510  1.3694  0.5645
   71SAPC     P 6124   5.183   5.564   2.154 -0.2853  0.0149 -0.2694
   71SAPC   O13 6125   5.094   5.449   2.125  0.0839  1.2727  0.0618
   71SAPC   O14 6126   5.330   5.548   2.148 -0.0472 -0.3935  0.1303
   71SAPC   O12 6127   5.142   5.695   2.075 -0.3048  0.3790  0.2465
   71SAPC   O11 6128   5.141   5.604   2.301 -0.1991  0.1849 -0.0285
   71SAPC    C1 6129   5.005   5.621   2.337  0.2081 -0.0773 -0.3379
   71SAPC    HA 6130   4.931   5.627   2.255 -1.1186  1.8131  0.9228
   71SAPC    HB 6131   4.977   5.534   2.401  0.0220 -0.1740 -0.5511
   71SAPC    C2 6132   4.988   5.757   2.409  0.3887 -0.0274  0.4675
   71SAPC    HS 6133   5.014   5.836   2.336  1.9083 -0.2953  0.6837
   71SAPC   O21 6134   5.070   5.762   2.528 -0.2074  0.4104 -0.4051
   71SAPC   C21 6135   5.129   5.868   2.573 -0.5671 -0.4725 -0.1482
   71SAPC   O22 6136   5.123   5.979   2.524  0.0177  0.0759  0.3887
   71SAPC   C22 6137   5.207   5.843   2.701 -0.1448 -0.3650 -0.4283
   71SAPC   H2R 6138   5.268   5.933   2.726 -1.0089 -0.5896  3.0364
   71SAPC   H2S 6139   5.140   5.820   2.787  0.8598  2.1572  1.1713
   71SAPC    C3 6140   4.838   5.779   2.458 -0.0053 -0.0943  0.7884
   71SAPC    HX 6141   4.768   5.807   2.376 -1.2744 -0.4327  1.7231
   71SAPC    HY 6142   4.836   5.867   2.525 -1.1392 -0.1139  0.8023
   71SAPC   O31 6143   4.783   5.661   2.510  0.4750 -0.5212  0.2095
   71SAPC   C31 6144   4.792   5.642   2.638  0.6572 -0.3865 -0.0399
   71SAPC   O32 6145   4.826   5.724   2.724  0.1842  0.7492  0.1964
   71SAPC   C32 6146   4.745   5.498   2.669 -0.2315  0.8929  0.2328
   71SAPC   H2X 6147   4.803   5.467   2.758 -1.7490  5.0321  2.9729
   71SAPC   H2Y 6148   4.757   5.436   2.578 -0.6088 -0.8182  1.3008
   71SAPC   C23 6149   5.318   5.731   2.685 -1.0085  0.3342  0.1630
   71SAPC   H3R 6150   5.262   5.643   2.645  0.1282 -1.0912  1.5660
   71SAPC   H3S 6151   5.351   5.709   2.789 -1.8990  2.4244  0.9399
   71SAPC   C24 6152   5.447   5.768   2.599  1.0337  0.0077 -0.0192
   71SAPC   H4R 6153   5.534   5.702   2.619  2.3138  1.7376  0.3874
   71SAPC   H4S 6154   5.485   5.867   2.630  0.2344  1.5407 -3.4475
   71SAPC   C25 6155   5.426   5.774   2.447 -0.0462  0.1500 -0.1770
   71SAPC   H5R 6156   5.320   5.789   2.420 -0.7313 -1.9895  1.0498
   71SAPC   C26 6157   5.516   5.755   2.346 -0.2573 -0.0176 -0.4289
   71SAPC   H6R 6158   5.468   5.747   2.248 -0.6733  1.0312 -0.3261
   71SAPC   C27 6159   5.661   5.712   2.355 -0.6733  1.0030  0.1627
   71SAPC   H7R 6160   5.670   5.602   2.341  2.2836  0.8909  2.1921
   71SAPC   H7S 6161   5.709   5.725   2.454 -3.2565 -0.8988  1.8098
   71SAPC   C28 6162   5.758   5.789   2.267 -0.3505 -0.2214  0.3755
   71SAPC   H8R 6163   5.796   5.740   2.176  3.5790  0.5308  1.4570
   71SAPC   C29 6164   5.793   5.918   2.281  0.0437 -0.0402  0.1401
   71SAPC   H9R 6165   5.859   5.972   2.212  0.0941  1.5804  1.3859
   71SAPC  C210 6166   5.759   6.010   2.400  0.8261  0.3004  0.6130
   71SAPC  H10R 6167   5.728   5.951   2.489 -0.1316 -0.6912 -0.3429
   71SAPC  H10S 6168   5.674   6.081   2.387  0.3335 -0.6596 -2.2845
   71SAPC  C211 6169   5.881   6.088   2.443 -0.5896  0.0928 -0.5366
   71SAPC  H11R 6170   5.880   6.196   2.421  1.3861  0.1359 -0.6383
   71SAPC  C212 6171   5.982   6.049   2.526  0.1704  0.6203 -0.4379
   71SAPC  H12R 6172   6.066   6.116   2.552  0.8894 -0.6433  0.5660
   71SAPC  C213 6173   5.997   5.908   2.585  0.9112  0.4126  1.0802
   71SAPC  H13R 6174   6.106   5.883   2.585  1.0981  1.0879 -0.8809
   71SAPC  H13S 6175   5.967   5.826   2.517 -0.6270 -0.1791  2.4101
   71SAPC  C214 6176   5.923   5.880   2.708 -0.2670  0.3378 -0.6145
   71SAPC  H14R 6177   5.818   5.914   2.718 -0.9435 -2.0149  1.0526
   71SAPC  C215 6178   5.976   5.817   2.814 -0.2833  0.9742 -0.8407
   71SAPC  H15R 6179   5.926   5.807   2.912  0.2455  0.7693 -0.5885
   71SAPC  C216 6180   6.111   5.749   2.815  0.1369  0.8321  0.7276
   71SAPC  H16R 6181   6.183   5.826   2.849  0.0005  1.2084  0.1638
   71SAPC  H16S 6182   6.134   5.708   2.715  0.7375 -0.0431  1.2091
   71SAPC  C217 6183   6.125   5.633   2.918  0.2846  0.2217  0.3990
   71SAPC  H17R 6184   6.211   5.572   2.886  0.1895  0.0957  0.3856
   71SAPC  H17S 6185   6.032   5.574   2.906  1.2498 -1.4005  0.6969
   71SAPC  C218 6186   6.138   5.681   3.062  0.2261 -0.4996  1.1786
   71SAPC  H18R 6187   6.081   5.775   3.076  0.6029  0.3336 -2.0698
   71SAPC  H18S 6188   6.244   5.698   3.090 -0.1904 -1.5338  3.6158
   71SAPC  C219 6189   6.077   5.575   3.154  0.1981 -0.1991 -0.3843
   71SAPC  H19R 6190   6.127   5.478   3.133  0.7788 -0.6027  2.5005
   71SAPC  H19S 6191   5.968   5.562   3.137  0.2956 -2.2940  0.3242
   71SAPC  C220 6192   6.099   5.605   3.304  0.1575  0.8801 -0.7473
   71SAPC  H20R 6193   6.203   5.620   3.339 -0.5863  0.9277  1.6427
   71SAPC  H20S 6194   6.063   5.522   3.368  0.4641  0.5023 -1.0649
   71SAPC  H20T 6195   6.047   5.702   3.321  1.3638  1.3450  0.4119
   71SAPC   C33 6196   4.595   5.492   2.707 -0.0827 -0.2165  0.8971
   71SAPC   H3X 6197   4.552   5.390   2.696  0.0900 -0.1935 -0.0172
   71SAPC   H3Y 6198   4.541   5.559   2.638  0.4769 -0.2897  0.3806
   71SAPC   C34 6199   4.589   5.538   2.853  0.3073 -0.3240  0.1652
   71SAPC   H4X 6200   4.624   5.644   2.848  3.3144 -1.3108 -1.8844
   71SAPC   H4Y 6201   4.660   5.486   2.920 -1.0675 -1.4485  0.8079
   71SAPC   C35 6202   4.451   5.526   2.917  0.6004  0.2688 -0.1014
   71SAPC   H5X 6203   4.423   5.421   2.941 -1.2981  0.8651  0.4473
   71SAPC   H5Y 6204   4.375   5.567   2.847 -0.0290  1.0590  1.0077
   71SAPC   C36 6205   4.426   5.607   3.044  0.0875 -0.3334  0.1885
   71SAPC   H6X 6206   4.320   5.588   3.072 -0.0608 -2.7520 -1.5759
   71SAPC   H6Y 6207   4.446   5.714   3.026  0.3945 -0.5005 -0.5188
   71SAPC   C37 6208   4.500   5.545   3.161  0.2322 -0.0150 -0.1772
   71SAPC   H7X 6209   4.601   5.502   3.143  0.2365  0.1008 -0.4290
   71SAPC   H7Y 6210   4.435   5.459   3.189  2.0182 -0.1852  4.1318
   71SAPC   C38 6211   4.510   5.629   3.296  0.1071  0.9504 -0.3690
   71SAPC   H8X 6212   4.549   5.728   3.264  0.1061 -0.0833 -4.0786
   71SAPC   H8Y 6213   4.577   5.583   3.371 -0.5165 -0.4822 -0.6640
   71SAPC   C39 6214   4.373   5.642   3.365 -0.5232 -0.5719 -0.6786
   71SAPC   H9X 6215   4.328   5.544   3.389 -1.6392 -0.1830 -1.1063
   71SAPC   H9Y 6216   4.303   5.687   3.290 -1.9153 -2.3704 -0.5305
   71SAPC  C310 6217   4.383   5.728   3.494  0.4505 -0.7585 -0.5488
   71SAPC  H10X 6218   4.437   5.667   3.570 -0.9326 -0.4684  0.6973
   71SAPC  H10Y 6219   4.281   5.747   3.532 -0.2010 -0.7501 -2.2233
   71SAPC  C311 6220   4.468   5.848   3.484  0.4448  0.3147  1.0606
   71SAPC  H11X 6221   4.430   5.904   3.396  0.8859  0.0513  0.6917
   71SAPC  H11Y 6222   4.568   5.809   3.455  0.1837 -0.4657  1.1611
   71SAPC  C312 6223   4.475   5.933   3.604 -0.2598 -0.2230 -0.2306
   71SAPC  H12X 6224   4.520   5.864   3.678  0.2889  0.0296 -0.3198
   71SAPC  H12Y 6225   4.374   5.959   3.642 -0.1953 -0.2697 -0.0292
   71SAPC  C313 6226   4.576   6.057   3.585  0.5078 -0.7404  0.4882
   71SAPC  H13X 6227   4.539   6.118   3.500  0.8911 -0.9576  0.1669
   71SAPC  H13Y 6228   4.678   6.029   3.551  1.0358  1.8149 -0.2516
   71SAPC  C314 6229   4.566   6.144   3.712 -0.3880  0.3311  0.0546
   71SAPC  H14X 6230   4.461   6.162   3.744 -0.3433 -1.3421  1.2959
   71SAPC  H14Y 6231   4.608   6.246   3.696 -2.4249  1.1120 -0.6656
   71SAPC  C315 6232   4.658   6.096   3.834 -1.4992 -0.6683  0.2143
   71SAPC  H15X 6233   4.760   6.087   3.792 -1.7015  0.3226 -0.5277
   71SAPC  H15Y 6234   4.625   5.996   3.870 -0.5580 -1.1561 -0.2359
   71SAPC  C316 6235   4.662   6.188   3.953 -0.4105 -0.1446 -0.1897
   71SAPC  H16X 6236   4.729   6.272   3.927  0.0612  0.1785  1.8923
   71SAPC  H16Y 6237   4.702   6.144   4.047  0.0740 -0.0042 -0.3315
   71SAPC  C317 6238   4.528   6.251   3.989 -0.6319 -0.1942  0.4266
   71SAPC  H17X 6239   4.460   6.169   4.022  1.1557 -1.6646  0.6162
   71SAPC  H17Y 6240   4.495   6.301   3.896  1.5978  1.0994  0.2810
   71SAPC  C318 6241   4.532   6.361   4.095 -1.5695  0.1197 -0.0154
   71SAPC  H18X 6242   4.580   6.318   4.185 -0.7531 -2.3593 -1.5536
   71SAPC  H18Y 6243   4.433   6.406   4.118 -0.2630  1.9999  2.3943
   71SAPC  H18Z 6244   4.611   6.431   4.062  0.2949 -1.4590  0.9366
   72SAPC     N 6245   1.844   5.309   1.881 -0.3017 -0.4370  0.4556
   72SAPC   C12 6246   1.813   5.327   2.025 -0.2235 -0.1696 -0.1690
   72SAPC  H12A 6247   1.857   5.248   2.085 -0.7525 -1.8815 -1.9197
   72SAPC  H12B 6248   1.709   5.297   2.028 -0.3519  0.3438  1.0456
   72SAPC   C13 6249   1.985   5.342   1.839  0.2774  0.3442  0.0267
   72SAPC  H13A 6250   2.053   5.299   1.911 -3.6917 -1.4300  3.1079
   72SAPC  H13B 6251   1.999   5.301   1.741 -2.6614 -1.5011  0.2507
   72SAPC  H13C 6252   2.011   5.447   1.838 -1.1773  0.7236 -0.7026
   72SAPC   C14 6253   1.813   5.167   1.841  0.7514  1.1364  0.1081
   72SAPC  H14A 6254   1.805   5.149   1.735  0.9957 -0.0869  0.2908
   72SAPC  H14B 6255   1.897   5.107   1.872 -0.5221 -0.2256  1.0603
   72SAPC  H14C 6256   1.728   5.124   1.891  2.5657 -0.8363  1.6911
   72SAPC   C15 6257   1.753   5.403   1.801  0.3100  0.6498 -0.0885
   72SAPC  H15A 6258   1.650   5.373   1.804  0.5692 -0.2632  0.0088
   72SAPC  H15B 6259   1.759   5.494   1.858 -0.1504  0.3220  0.5006
   72SAPC  H15C 6260   1.794   5.420   1.703 -1.3488 -0.3999 -1.0159
   72SAPC   C11 6261   1.834   5.467   2.089 -0.1476 -0.2310 -0.0379
   72SAPC  H11A 6262   1.942   5.493   2.084 -0.4294  1.3279  1.1386
   72SAPC  H11B 6263   1.804   5.459   2.195  1.4922 -0.9470  0.4014
   72SAPC     P 6264   1.675   5.683   2.081  0.0237  0.2903  0.0402
   72SAPC   O13 6265   1.589   5.732   1.974 -0.5962  0.0712  0.0148
   72SAPC   O14 6266   1.616   5.608   2.192 -0.5515  0.2645  0.3429
   72SAPC   O12 6267   1.783   5.583   2.017  0.3455  0.5629 -0.5094
   72SAPC   O11 6268   1.752   5.804   2.136 -0.0307  0.4871  0.5261
   72SAPC    C1 6269   1.866   5.872   2.084 -0.4436 -0.1781  0.1329
   72SAPC    HA 6270   1.872   5.865   1.974 -0.2033 -2.1633  0.2281
   72SAPC    HB 6271   1.857   5.978   2.114  1.4845 -0.7929  3.4011
   72SAPC    C2 6272   2.004   5.827   2.134 -0.2940 -0.1297  0.2489
   72SAPC    HS 6273   2.081   5.906   2.123  0.7505 -0.2477  4.7189
   72SAPC   O21 6274   2.037   5.703   2.059  0.3239 -0.5897 -0.8977
   72SAPC   C21 6275   2.118   5.728   1.948 -0.4303  0.2877 -0.2549
   72SAPC   O22 6276   2.121   5.832   1.888 -1.0810 -0.0440 -0.1203
   72SAPC   C22 6277   2.200   5.604   1.926 -0.7471  0.5456 -0.1089
   72SAPC   H2R 6278   2.160   5.526   1.995 -1.6308  2.0616  1.1634
   72SAPC   H2S 6279   2.194   5.566   1.821  0.8330 -3.3208  1.0200
   72SAPC    C3 6280   1.990   5.794   2.283  0.4182 -0.3327  0.3861
   72SAPC    HX 6281   2.085   5.744   2.312  0.9943  0.9032  0.6968
   72SAPC    HY 6282   1.906   5.726   2.308  0.2594  0.2043  1.3452
   72SAPC   O31 6283   1.962   5.912   2.368  0.3059 -0.1476 -0.2438
   72SAPC   C31 6284   2.070   5.984   2.403 -0.3127  0.1453  0.3100
   72SAPC   O32 6285   2.183   5.946   2.382 -0.1141 -0.2126 -0.1674
   72SAPC   C32 6286   2.039   6.095   2.500  0.8826  0.6763  0.3582
   72SAPC   H2X 6287   1.959   6.060   2.568  1.0830 -2.0200 -0.6979
   72SAPC   H2Y 6288   1.999   6.176   2.434  1.5112 -2.5242 -4.4513
   72SAPC   C23 6289   2.345   5.643   1.947 -0.2044  0.2797  0.4456
   72SAPC   H3R 6290   2.368   5.725   1.874  0.3024 -1.5761 -1.5872
   72SAPC   H3S 6291   2.411   5.559   1.915  2.0585  2.3898 -0.8212
   72SAPC   C24 6292   2.383   5.667   2.094 -0.1311  0.9721 -0.3687
   72SAPC   H4R 6293   2.382   5.565   2.138 -0.5901  0.6431 -1.1127
   72SAPC   H4S 6294   2.297   5.720   2.141 -2.1552 -1.6610 -0.8583
   72SAPC   C25 6295   2.519   5.731   2.122 -0.5481 -0.7221 -0.1040
   72SAPC   H5R 6296   2.558   5.783   2.033 -0.4136 -0.9831 -0.2008
   72SAPC   C26 6297   2.579   5.721   2.242 -0.2468  0.5245 -0.0227
   72SAPC   H6R 6298   2.665   5.786   2.265 -0.4112 -0.0224  2.3934
   72SAPC   C27 6299   2.519   5.670   2.371  0.7606 -0.3208 -0.2743
   72SAPC   H7R 6300   2.492   5.565   2.347  0.0533 -0.0683 -0.6233
   72SAPC   H7S 6301   2.420   5.718   2.385  0.5850 -0.4670 -0.9654
   72SAPC   C28 6302   2.605   5.686   2.493  0.0424  0.6399 -0.6150
   72SAPC   H8R 6303   2.642   5.789   2.500  1.2633  0.2242 -0.7774
   72SAPC   C29 6304   2.640   5.589   2.575 -0.4405 -0.1570  0.7724
   72SAPC   H9R 6305   2.707   5.608   2.660  2.1711 -0.7466 -1.0201
   72SAPC  C210 6306   2.610   5.441   2.564  0.1565  0.1079  0.3963
   72SAPC  H10R 6307   2.526   5.422   2.493  0.1284 -0.2372  0.5206
   72SAPC  H10S 6308   2.565   5.405   2.659 -1.3522  0.2086 -0.2424
   72SAPC  C211 6309   2.727   5.364   2.518 -0.7272  0.5163  0.1777
   72SAPC  H11R 6310   2.731   5.344   2.410 -0.7660  1.7204 -0.0530
   72SAPC  C212 6311   2.819   5.308   2.602 -0.3285 -0.7578 -0.6400
   72SAPC  H12R 6312   2.910   5.261   2.560 -0.5542 -1.8868  0.0805
   72SAPC  C213 6313   2.814   5.332   2.754  0.4966 -0.0604  0.1067
   72SAPC  H13R 6314   2.718   5.364   2.800  0.0560 -0.8410 -0.2693
   72SAPC  H13S 6315   2.886   5.412   2.781 -1.7505  1.8838  0.6899
   72SAPC  C214 6316   2.861   5.207   2.828 -0.3184  0.8106  0.3996
   72SAPC  H14R 6317   2.943   5.232   2.897 -0.3891  0.5004  0.5977
   72SAPC  C215 6318   2.803   5.083   2.831  0.0427  0.2211 -0.1865
   72SAPC  H15R 6319   2.863   5.000   2.869  2.8572  2.6633  1.1207
   72SAPC  C216 6320   2.684   5.040   2.749 -0.9024 -0.3438  0.0341
   72SAPC  H16R 6321   2.728   4.993   2.658  0.3913 -1.5005  1.2227
   72SAPC  H16S 6322   2.632   5.130   2.709 -0.8181 -0.0923  0.4901
   72SAPC  C217 6323   2.583   4.947   2.818 -0.4232  0.6048  0.0383
   72SAPC  H17R 6324   2.625   4.845   2.813  1.5609  1.1384  3.1757
   72SAPC  H17S 6325   2.494   4.947   2.751 -0.0002  0.8662 -0.5397
   72SAPC  C218 6326   2.553   4.983   2.961  0.1688  0.3012 -0.7726
   72SAPC  H18R 6327   2.537   5.092   2.974  1.7341  0.4045  0.6442
   72SAPC  H18S 6328   2.638   4.951   3.025 -0.2036  0.6410 -0.0951
   72SAPC  C219 6329   2.424   4.906   3.018  0.4004 -0.1846 -0.2955
   72SAPC  H19R 6330   2.359   4.924   2.929  1.0593  4.8388 -0.0818
   72SAPC  H19S 6331   2.386   4.959   3.108  0.6370  0.3661 -0.5116
   72SAPC  C220 6332   2.435   4.756   3.031 -0.4709  0.7177  0.3326
   72SAPC  H20R 6333   2.335   4.719   3.061  0.2053 -0.1881  1.5693
   72SAPC  H20S 6334   2.500   4.720   3.113  1.7978  1.4961 -1.0173
   72SAPC  H20T 6335   2.470   4.703   2.939  1.4986 -0.7116  1.8063
   72SAPC   C33 6336   2.153   6.134   2.590 -0.4050 -0.2403 -0.0816
   72SAPC   H3X 6337   2.244   6.170   2.537  0.8204 -1.9840  0.7117
   72SAPC   H3Y 6338   2.188   6.048   2.651  4.4236  0.8051 -0.9665
   72SAPC   C34 6339   2.106   6.245   2.683  0.0286  0.3041 -0.2959
   72SAPC   H4X 6340   2.022   6.290   2.626  0.4250  0.1507 -1.0080
   72SAPC   H4Y 6341   2.194   6.306   2.713  0.3251 -0.6731  0.9237
   72SAPC   C35 6342   2.041   6.193   2.812  0.5693  0.5106 -0.1218
   72SAPC   H5X 6343   1.961   6.125   2.774  0.7625  0.4251 -0.3774
   72SAPC   H5Y 6344   1.992   6.278   2.865  0.2380 -0.2577  0.8455
   72SAPC   C36 6345   2.130   6.117   2.910  0.3224 -0.5961  0.1486
   72SAPC   H6X 6346   2.227   6.168   2.927  0.4452 -0.8057  0.0710
   72SAPC   H6Y 6347   2.170   6.023   2.868  1.4764 -1.1120  2.2472
   72SAPC   C37 6348   2.057   6.095   3.034 -0.5677 -0.3981  0.2502
   72SAPC   H7X 6349   1.956   6.052   3.013  0.4394 -1.6854 -2.4032
   72SAPC   H7Y 6350   2.038   6.182   3.100 -2.9148 -0.3763 -0.3384
   72SAPC   C38 6351   2.117   5.991   3.132  0.1648  0.3980 -0.3818
   72SAPC   H8X 6352   2.210   6.033   3.175  0.1623  0.1794 -0.1629
   72SAPC   H8Y 6353   2.131   5.895   3.078  0.5276  0.9574 -1.3040
   72SAPC   C39 6354   2.034   5.965   3.259  0.2655 -0.1224 -0.3600
   72SAPC   H9X 6355   1.946   5.916   3.213  1.9367 -1.0797 -2.7434
   72SAPC   H9Y 6356   2.001   6.065   3.293 -0.8760 -0.5855 -0.0598
   72SAPC  C310 6357   2.106   5.885   3.362  0.4906  0.6112  0.2795
   72SAPC  H10X 6358   2.189   5.950   3.396  2.0581 -0.2230 -1.7131
   72SAPC  H10Y 6359   2.148   5.791   3.322  0.0453  0.9580 -1.0602
   72SAPC  C311 6360   2.007   5.862   3.484 -0.2242  0.7489 -0.7117
   72SAPC  H11X 6361   1.933   5.782   3.464 -1.0975  1.4951 -0.5358
   72SAPC  H11Y 6362   1.954   5.950   3.526 -0.2784  0.8951 -1.0873
   72SAPC  C312 6363   2.090   5.813   3.615  1.5685 -0.5116  0.4127
   72SAPC  H12X 6364   2.132   5.904   3.662 -1.3053  2.3112 -1.9664
   72SAPC  H12Y 6365   2.182   5.757   3.588  0.7863 -2.2432  1.1618
   72SAPC  C313 6366   2.001   5.734   3.712  0.2412 -0.0792  0.3522
   72SAPC  H13X 6367   1.972   5.631   3.679 -1.1080  0.2175  0.5440
   72SAPC  H13Y 6368   1.911   5.791   3.743  0.8030  1.2105 -0.3204
   72SAPC  C314 6369   2.085   5.715   3.838  0.3151 -0.1026 -0.1803
   72SAPC  H14X 6370   2.192   5.702   3.810  0.2215 -0.7613 -0.2564
   72SAPC  H14Y 6371   2.060   5.619   3.888 -1.4525  0.5773  0.3279
   72SAPC  C315 6372   2.064   5.830   3.927 -0.1090 -0.3520 -0.0820
   72SAPC  H15X 6373   1.961   5.810   3.963 -0.0441  0.4759  0.5797
   72SAPC  H15Y 6374   2.082   5.925   3.873 -2.1125  0.1863  0.1191
   72SAPC  C316 6375   2.153   5.842   4.046 -0.0651  0.0874 -0.3820
   72SAPC  H16X 6376   2.121   5.925   4.112 -3.7015 -2.3686  1.2815
   72SAPC  H16Y 6377   2.254   5.879   4.017  1.1463 -1.7236  1.2362
   72SAPC  C317 6378   2.174   5.730   4.140 -0.2834 -0.0162 -0.2195
   72SAPC  H17X 6379   2.254   5.751   4.215 -0.4176  0.4282 -0.2017
   72SAPC  H17Y 6380   2.213   5.646   4.078  3.7731  1.4616  0.0257
   72SAPC  C318 6381   2.055   5.682   4.226 -0.2891 -0.2483 -0.4903
   72SAPC  H18X 6382   1.961   5.659   4.171 -0.5620  1.2501 -0.6896
   72SAPC  H18Y 6383   2.016   5.755   4.300  0.2678 -1.6460  1.2724
   72SAPC  H18Z 6384   2.079   5.587   4.278 -0.6267  0.0230  0.1756
   73SLPC     N 6385   6.173   0.567   6.833  0.1216  0.0309  0.3449
   73SLPC   C13 6386   6.218   0.609   6.965 -0.2656 -0.0275 -0.1970
   73SLPC  H13A 6387   6.289   0.538   7.006  0.0445  0.9407  1.0049
   73SLPC  H13B 6388   6.281   0.696   6.955  2.0143 -1.6434 -0.6604
   73SLPC  H13C 6389   6.136   0.617   7.034  0.0696  0.1877  0.1808
   73SLPC   C14 6390   6.085   0.667   6.770 -0.2444 -0.0997  0.0514
   73SLPC  H14A 6391   6.067   0.624   6.672 -0.6404  0.4639 -0.1264
   73SLPC  H14B 6392   5.986   0.673   6.812 -1.2172  0.0991 -2.1381
   73SLPC  H14C 6393   6.135   0.761   6.757 -1.4764  0.9011  2.0825
   73SLPC   C15 6394   6.091   0.443   6.847 -0.5573  0.0101  0.1011
   73SLPC  H15A 6395   6.130   0.368   6.914  1.6906  0.0068 -1.1177
   73SLPC  H15B 6396   5.998   0.482   6.884  0.5869  5.7688 -2.0464
   73SLPC  H15C 6397   6.079   0.398   6.749 -1.0777  1.0396 -0.3226
   73SLPC   C12 6398   6.299   0.544   6.749  0.4029  1.1568  0.1264
   73SLPC  H12A 6399   6.270   0.491   6.659 -0.2014 -0.3576  1.1602
   73SLPC  H12B 6400   6.360   0.473   6.802 -0.7367  0.7037  0.8577
   73SLPC   C11 6401   6.379   0.661   6.710 -0.7966 -0.3668  0.6258
   73SLPC  H11A 6402   6.322   0.733   6.647 -2.2166 -0.5242  1.6819
   73SLPC  H11B 6403   6.456   0.622   6.639 -0.6013 -0.1838  0.7358
   73SLPC     P 6404   6.598   0.725   6.843 -0.1604  0.4474 -0.2880
   73SLPC   O13 6405   6.612   0.852   6.916  0.0618  0.1478 -0.3043
   73SLPC   O14 6406   6.641   0.603   6.907  0.1850  0.5112 -0.0461
   73SLPC   O12 6407   6.443   0.717   6.821 -0.5005 -0.2211 -0.0509
   73SLPC   O11 6408   6.653   0.741   6.697  0.5073  0.3135  0.2680
   73SLPC    C1 6409   6.716   0.858   6.641 -0.3697 -0.4498 -0.6268
   73SLPC    HA 6410   6.754   0.918   6.726 -0.7605  1.2831 -1.6357
   73SLPC    HB 6411   6.799   0.835   6.571 -0.8285  0.1394 -1.3828
   73SLPC    C2 6412   6.601   0.941   6.564 -0.0776 -0.0465 -0.3924
   73SLPC    HS 6413   6.519   0.966   6.634 -0.3906  0.7556 -1.0309
   73SLPC   O21 6414   6.556   0.859   6.457  0.2913 -0.3435 -0.8123
   73SLPC   C21 6415   6.435   0.892   6.422  0.0174 -0.7369 -0.0533
   73SLPC   O22 6416   6.383   0.999   6.455  0.1988  0.1208 -0.5319
   73SLPC   C22 6417   6.382   0.800   6.314  0.1873 -0.3353 -0.6157
   73SLPC   H2R 6418   6.464   0.762   6.250  0.7676  2.1438 -1.4528
   73SLPC   H2S 6419   6.326   0.717   6.362 -2.5146  1.4854 -0.3265
   73SLPC    C3 6420   6.650   1.079   6.515 -0.1772  0.3858 -0.9828
   73SLPC    HX 6421   6.678   1.134   6.608 -2.3149 -0.2419  0.0757
   73SLPC    HY 6422   6.570   1.140   6.468 -0.1281  1.6537  0.4951
   73SLPC   O31 6423   6.768   1.073   6.433 -0.0076  0.5153  0.4388
   73SLPC   C31 6424   6.756   1.053   6.306 -0.2856 -0.1078 -0.1227
   73SLPC   O32 6425   6.650   1.063   6.243  0.1826 -0.4996 -0.1557
   73SLPC   C32 6426   6.883   1.041   6.225 -0.2384  0.7308  0.2114
   73SLPC   H2X 6427   6.868   0.949   6.164 -0.3868  0.2670  0.9399
   73SLPC   H2Y 6428   6.956   1.021   6.307 -1.4153 -0.9023  0.9140
   73SLPC   C23 6429   6.295   0.879   6.209 -0.1190 -0.0810  0.4529
   73SLPC   H3R 6430   6.362   0.913   6.127 -0.4597 -1.8719 -0.6088
   73SLPC   H3S 6431   6.243   0.965   6.257  0.6283  0.1413  0.8811
   73SLPC   C24 6432   6.201   0.788   6.130 -0.5414  0.0539  1.0046
   73SLPC   H4R 6433   6.098   0.790   6.174 -0.4675 -0.7306  1.2415
   73SLPC   H4S 6434   6.241   0.684   6.133  0.4186  0.0445 -3.7824
   73SLPC   C25 6435   6.177   0.844   5.987  0.1242 -0.1190  0.1547
   73SLPC   H5R 6436   6.263   0.859   5.919 -0.7273  0.5826 -0.7932
   73SLPC   H5S 6437   6.138   0.947   5.999 -4.5986 -1.8497  1.7649
   73SLPC   C26 6438   6.062   0.783   5.904  0.1165 -0.2581 -0.9325
   73SLPC   H6R 6439   6.040   0.843   5.813 -1.5662  2.2242  0.9913
   73SLPC   H6S 6440   5.964   0.783   5.957  0.6571 -1.5686  0.1288
   73SLPC   C27 6441   6.091   0.634   5.865 -0.1503 -0.0320 -0.1657
   73SLPC   H7R 6442   6.011   0.578   5.813  1.4704 -2.3431 -0.3416
   73SLPC   H7S 6443   6.104   0.581   5.962  0.0950 -1.1244 -0.7776
   73SLPC   C28 6444   6.223   0.617   5.780 -0.5532  0.5039  0.5598
   73SLPC   H8R 6445   6.236   0.513   5.744  1.0525 -0.0571  2.5783
   73SLPC   H8S 6446   6.303   0.632   5.855 -0.2400  2.2318 -0.0685
   73SLPC   C29 6447   6.238   0.726   5.674 -0.0639  0.1048 -0.1054
   73SLPC   H9R 6448   6.280   0.824   5.701  0.2926 -0.4257  1.3198
   73SLPC  C210 6449   6.202   0.714   5.545 -0.1686  0.1270  0.5101
   73SLPC  H10R 6450   6.214   0.805   5.484 -0.8824  0.4984  0.9058
   73SLPC  C211 6451   6.137   0.587   5.491  0.0708  0.2389 -1.1469
   73SLPC  H11R 6452   6.052   0.619   5.427  0.1005  3.1815  0.0993
   73SLPC  H11S 6453   6.090   0.539   5.580  1.6279  1.3689  0.3450
   73SLPC  C212 6454   6.217   0.481   5.422  0.3331 -0.3134 -0.6256
   73SLPC  H12R 6455   6.249   0.397   5.486 -0.3927 -0.5818 -0.6051
   73SLPC  C213 6456   6.258   0.482   5.301 -0.4905 -0.4877  0.3595
   73SLPC  H13R 6457   6.332   0.404   5.276 -1.0390 -0.6324 -0.9164
   73SLPC  C214 6458   6.238   0.588   5.196 -0.0961  0.7706  0.6052
   73SLPC  H14R 6459   6.212   0.688   5.238  2.6249  1.8111 -0.0204
   73SLPC  H14S 6460   6.159   0.566   5.121  2.1282  0.3796 -1.7218
   73SLPC  C215 6461   6.373   0.605   5.114  0.2925 -0.6075  0.2792
   73SLPC  H15R 6462   6.392   0.506   5.067 -0.1244 -0.8581  0.6220
   73SLPC  H15S 6463   6.454   0.647   5.177  1.9368 -1.0860 -1.4176
   73SLPC  C216 6464   6.362   0.703   4.999 -0.5042 -0.0883  0.2435
   73SLPC  H16R 6465   6.295   0.660   4.921  0.9936 -1.1879 -0.4655
   73SLPC  H16S 6466   6.458   0.696   4.944 -0.2640 -0.1597  0.6636
   73SLPC  C217 6467   6.329   0.853   5.031  0.5753 -0.3622 -0.1852
   73SLPC  H17R 6468   6.418   0.911   5.064  0.1055 -0.2099  0.8657
   73SLPC  H17S 6469   6.257   0.864   5.115  0.4621 -0.1750 -0.3053
   73SLPC  C218 6470   6.267   0.911   4.906  0.0381  0.2261  0.2215
   73SLPC  H18R 6471   6.335   0.896   4.819 -0.0232  0.3770  0.1452
   73SLPC  H18S 6472   6.242   1.018   4.925 -0.6941 -0.4948  4.0136
   73SLPC  H18T 6473   6.173   0.863   4.870 -0.6151  1.0661  0.7590
   73SLPC   C33 6474   6.913   1.167   6.144  0.2306 -0.0918 -0.4408
   73SLPC   H3X 6475   7.017   1.145   6.112  0.7391 -0.8198  1.5653
   73SLPC   H3Y 6476   6.907   1.260   6.205  0.8057 -0.1004 -0.3647
   73SLPC   C34 6477   6.830   1.190   6.011 -0.2103  0.3880 -0.0394
   73SLPC   H4X 6478   6.881   1.257   5.939 -0.0246 -1.1029 -1.3393
   73SLPC   H4Y 6479   6.726   1.222   6.032 -1.2133 -2.0095 -0.9351
   73SLPC   C35 6480   6.793   1.058   5.928  0.1341 -0.0001  0.2055
   73SLPC   H5X 6481   6.718   0.999   5.986  1.4897 -0.6429  1.3684
   73SLPC   H5Y 6482   6.883   0.995   5.911  0.8700  0.4907  2.0188
   73SLPC   C36 6483   6.723   1.094   5.794 -0.2579 -0.1220 -0.7583
   73SLPC   H6X 6484   6.795   1.143   5.726 -1.4974  2.2779 -0.4562
   73SLPC   H6Y 6485   6.637   1.162   5.811 -0.2594 -0.3021 -0.0117
   73SLPC   C37 6486   6.665   0.972   5.723  0.0207 -0.0407 -0.2049
   73SLPC   H7X 6487   6.580   0.924   5.776 -0.1317  0.1405 -0.2889
   73SLPC   H7Y 6488   6.743   0.894   5.706  1.3841  1.4947 -1.2400
   73SLPC   C38 6489   6.608   1.018   5.584  1.3848  0.4797  0.3139
   73SLPC   H8X 6490   6.683   1.076   5.526  0.8676 -1.1577 -2.1679
   73SLPC   H8Y 6491   6.513   1.074   5.601  1.2579  0.0975  0.8962
   73SLPC   C39 6492   6.571   0.903   5.496  0.6664 -0.4257  0.0478
   73SLPC   H9X 6493   6.521   0.831   5.565 -1.2147  2.3109  1.7619
   73SLPC   H9Y 6494   6.651   0.841   5.450  0.9798 -0.8282  1.1080
   73SLPC  C310 6495   6.476   0.952   5.374 -0.8554  0.3631 -0.2013
   73SLPC  H10X 6496   6.394   1.008   5.425  0.6105  1.1845  1.3796
   73SLPC  H10Y 6497   6.439   0.857   5.330  0.5606 -0.4697  0.3399
   73SLPC  C311 6498   6.551   1.041   5.270  0.5133  0.3031  0.9223
   73SLPC  H11X 6499   6.595   1.130   5.318 -0.5461  0.4236  1.7255
   73SLPC  H11Y 6500   6.489   1.092   5.193  1.7379 -0.9771 -1.0150
   73SLPC  C312 6501   6.659   0.968   5.188  0.1865  1.0417 -0.5758
   73SLPC  H12X 6502   6.617   0.866   5.174 -0.8459  1.3732 -0.0213
   73SLPC  H12Y 6503   6.751   0.959   5.250 -0.8245 -1.5007  0.6762
   73SLPC  C313 6504   6.687   1.034   5.055 -0.2990  0.4312  1.2719
   73SLPC  H13X 6505   6.742   1.127   5.081 -0.9212  0.7206  1.5776
   73SLPC  H13Y 6506   6.595   1.069   5.004 -0.0395 -1.0083 -0.2689
   73SLPC  C314 6507   6.760   0.949   4.951  0.1756  0.0148 -0.3827
   73SLPC  H14X 6508   6.688   0.871   4.920 -0.8284  0.7335  0.0778
   73SLPC  H14Y 6509   6.843   0.902   5.008  0.5303  2.3577  1.1991
   73SLPC  C315 6510   6.810   1.017   4.822 -0.3065 -0.2785  0.1481
   73SLPC  H15X 6511   6.881   1.100   4.843 -1.4472  0.1256  2.7784
   73SLPC  H15Y 6512   6.725   1.050   4.759 -0.6025 -0.3053  0.5327
   73SLPC  C316 6513   6.888   0.913   4.759 -0.4763 -0.3917  0.0790
   73SLPC  H16X 6514   6.852   0.809   4.769  0.5999 -0.7612  0.2314
   73SLPC  H16Y 6515   6.983   0.915   4.818 -2.2652 -0.0261  3.1836
   73SLPC  C317 6516   6.923   0.929   4.610  0.1602  0.6847 -0.3821
   73SLPC  H17X 6517   6.830   0.923   4.550 -0.0303  1.8077 -0.2148
   73SLPC  H17Y 6518   6.988   0.842   4.585 -1.6172 -0.9309  0.3069
   73SLPC  C318 6519   7.001   1.056   4.563  0.1307  0.7822  0.7312
   73SLPC  H18X 6520   6.935   1.145   4.572 -0.6291  0.7296 -2.8870
   73SLPC  H18Y 6521   7.030   1.047   4.457 -0.8991 -0.8858  0.5486
   73SLPC  H18Z 6522   7.094   1.076   4.620  0.6145  1.6615 -0.3322
   74SLPC     N 6523   3.310   0.863   6.606 -0.6511  0.0997  0.1093
   74SLPC   C13 6524   3.409   0.770   6.679  0.5697  0.6810  0.3751
   74SLPC  H13A 6525   3.361   0.673   6.682 -2.2666  1.9212 -0.7481
   74SLPC  H13B 6526   3.501   0.768   6.622 -1.4019 -0.2926 -3.1065
   74SLPC  H13C 6527   3.423   0.801   6.781  2.8735 -0.1189  0.3516
   74SLPC   C14 6528   3.185   0.864   6.674  0.2929  0.6682 -0.5059
   74SLPC  H14A 6529   3.158   0.767   6.714 -1.5481  0.4146 -2.2493
   74SLPC  H14B 6530   3.181   0.935   6.755  1.8511 -0.1374  0.3391
   74SLPC  H14C 6531   3.114   0.895   6.599 -0.6154 -0.9444 -0.3718
   74SLPC   C15 6532   3.287   0.818   6.472  0.3733  0.1972  0.2592
   74SLPC  H15A 6533   3.237   0.722   6.468  0.3801  0.0608  2.2969
   74SLPC  H15B 6534   3.224   0.890   6.422 -0.3426 -0.3082  0.4124
   74SLPC  H15C 6535   3.382   0.805   6.423 -1.3529 -1.8776 -2.8524
   74SLPC   C12 6536   3.367   1.008   6.607 -0.0482  0.6229 -0.5781
   74SLPC  H12A 6537   3.463   0.993   6.559 -0.7481 -0.0215 -1.7993
   74SLPC  H12B 6538   3.375   1.047   6.708  0.9337 -0.9550 -0.0034
   74SLPC   C11 6539   3.286   1.108   6.529  0.5225  0.1445 -0.1502
   74SLPC  H11A 6540   3.319   1.208   6.563  0.5247  0.6986 -1.6962
   74SLPC  H11B 6541   3.179   1.102   6.560  0.3349  4.8387  0.8017
   74SLPC     P 6542   3.207   1.152   6.290  0.0027  0.1357 -0.1340
   74SLPC   O13 6543   3.171   1.288   6.342 -0.3542 -0.3295  0.0033
   74SLPC   O14 6544   3.262   1.150   6.152 -0.2634  0.2499 -0.4997
   74SLPC   O12 6545   3.314   1.094   6.385 -0.2193 -0.2873 -0.6250
   74SLPC   O11 6546   3.083   1.059   6.298  0.5223  0.3280 -0.1484
   74SLPC    C1 6547   3.075   0.944   6.214 -0.2097  0.4943  0.3542
   74SLPC    HA 6548   3.179   0.912   6.189  0.2967  0.4962  2.3159
   74SLPC    HB 6549   3.015   0.864   6.262  1.3163 -0.8479  0.1305
   74SLPC    C2 6550   3.000   0.986   6.080  0.1197 -0.0571  0.1383
   74SLPC    HS 6551   3.069   1.058   6.032  0.1792 -0.2035  0.0030
   74SLPC   O21 6552   2.879   1.050   6.120 -0.1931  0.9133  0.0847
   74SLPC   C21 6553   2.838   1.152   6.046 -0.1393  0.0394  0.1551
   74SLPC   O22 6554   2.905   1.205   5.955  1.1138 -0.4019 -0.8267
   74SLPC   C22 6555   2.701   1.172   6.079  0.1876  0.3077 -0.8213
   74SLPC   H2R 6556   2.659   1.228   5.993 -0.1585  0.8110 -0.3265
   74SLPC   H2S 6557   2.646   1.075   6.084  0.9097 -0.1928 -1.9975
   74SLPC    C3 6558   2.970   0.867   5.988 -0.2313 -0.0628  0.1269
   74SLPC    HX 6559   2.887   0.810   6.033 -0.7910 -0.9879 -1.9561
   74SLPC    HY 6560   3.065   0.808   5.993  0.0914  0.5139  0.9976
   74SLPC   O31 6561   2.935   0.913   5.854  0.3958  0.2079  0.4530
   74SLPC   C31 6562   3.034   0.943   5.777 -0.1187  0.5322 -0.2580
   74SLPC   O32 6563   3.150   0.928   5.798  0.4711  0.3182 -0.5229
   74SLPC   C32 6564   2.987   1.024   5.660 -0.6131  0.8748  0.5386
   74SLPC   H2X 6565   3.026   1.124   5.691  0.5867 -0.2268  2.8835
   74SLPC   H2Y 6566   2.876   1.028   5.657 -0.7132 -1.3768 -0.4712
   74SLPC   C23 6567   2.688   1.257   6.207  0.1115  0.1372  0.3655
   74SLPC   H3R 6568   2.756   1.344   6.206 -0.5588  0.7066 -1.6713
   74SLPC   H3S 6569   2.720   1.190   6.289 -0.4702 -3.2487 -1.9020
   74SLPC   C24 6570   2.543   1.287   6.245 -0.5121 -0.1691  0.4041
   74SLPC   H4R 6571   2.487   1.193   6.265 -0.4999  0.0110  1.3294
   74SLPC   H4S 6572   2.503   1.341   6.157  1.8865  1.0157 -0.0341
   74SLPC   C25 6573   2.537   1.377   6.367  0.1326  0.1429 -0.9093
   74SLPC   H5R 6574   2.462   1.454   6.338  1.8414  1.2053 -2.8046
   74SLPC   H5S 6575   2.618   1.453   6.379  0.4669 -0.3421  0.0245
   74SLPC   C26 6576   2.516   1.314   6.503 -0.2764  0.1785  1.4301
   74SLPC   H6R 6577   2.504   1.403   6.569 -0.4795  0.6436  0.7770
   74SLPC   H6S 6578   2.612   1.261   6.522 -1.4354 -2.9712 -0.7208
   74SLPC   C27 6579   2.391   1.227   6.535 -0.2293  0.4557 -0.3929
   74SLPC   H7R 6580   2.385   1.216   6.646 -0.1533  1.5584 -0.2661
   74SLPC   H7S 6581   2.413   1.126   6.495  0.3646  0.4296 -0.0153
   74SLPC   C28 6582   2.258   1.291   6.482 -0.0074  0.4850 -0.0944
   74SLPC   H8R 6583   2.267   1.303   6.372  0.9648 -0.5716 -0.1443
   74SLPC   H8S 6584   2.246   1.393   6.526  0.8737 -0.4256  2.4484
   74SLPC   C29 6585   2.155   1.189   6.519  0.2553 -0.1772  0.1182
   74SLPC   H9R 6586   2.181   1.141   6.615  2.2101 -0.0977 -0.3333
   74SLPC  C210 6587   2.059   1.140   6.444  0.2824  1.3061  0.6416
   74SLPC  H10R 6588   1.994   1.058   6.480 -0.3722  1.0593 -1.0287
   74SLPC  C211 6589   2.032   1.178   6.299 -0.9154 -0.0782  0.0998
   74SLPC  H11R 6590   2.067   1.281   6.278  2.3025 -1.1670 -0.5442
   74SLPC  H11S 6591   1.929   1.184   6.260 -0.2301 -0.7286 -1.9556
   74SLPC  C212 6592   2.115   1.097   6.206 -0.7183  0.4003  0.4108
   74SLPC  H12R 6593   2.179   1.021   6.252 -0.3942  0.0027 -0.6659
   74SLPC  C213 6594   2.108   1.087   6.068 -0.5755  0.6775 -0.4399
   74SLPC  H13R 6595   2.168   1.011   6.015  1.5961  2.0424 -0.0955
   74SLPC  C214 6596   2.013   1.165   5.985  0.4168 -0.7235  0.2701
   74SLPC  H14R 6597   1.966   1.247   6.043  1.8254  0.9405 -0.8409
   74SLPC  H14S 6598   1.936   1.100   5.938  1.3734 -0.8417 -1.2109
   74SLPC  C215 6599   2.075   1.260   5.877  0.6258  0.3143 -0.1076
   74SLPC  H15R 6600   2.161   1.314   5.923  0.7052 -0.1450  0.2962
   74SLPC  H15S 6601   2.007   1.333   5.829  0.8131 -0.1959 -1.1728
   74SLPC  C216 6602   2.118   1.172   5.762 -0.7227 -0.2940  0.1327
   74SLPC  H16R 6603   2.184   1.086   5.787  1.3277  1.1038 -0.1468
   74SLPC  H16S 6604   2.174   1.241   5.694 -1.4878  0.0060 -0.1970
   74SLPC  C217 6605   2.003   1.121   5.671 -0.2695  0.0575 -0.0657
   74SLPC  H17R 6606   1.918   1.190   5.687  1.3097  1.8405  1.1318
   74SLPC  H17S 6607   1.970   1.022   5.709  2.0484 -0.8166 -0.1544
   74SLPC  C218 6608   2.039   1.107   5.521  0.0060  0.5721  0.7004
   74SLPC  H18R 6609   2.127   1.041   5.506 -1.7031 -1.8264  0.6965
   74SLPC  H18S 6610   2.062   1.207   5.478  3.4680  0.0915  1.1404
   74SLPC  H18T 6611   1.954   1.070   5.459  1.6392  0.2228 -1.4932
   74SLPC   C33 6612   3.046   0.980   5.526 -0.5415 -0.0522 -0.9846
   74SLPC   H3X 6613   3.157   0.981   5.537 -0.4488  0.0227 -1.8981
   74SLPC   H3Y 6614   3.014   1.056   5.452  0.6490  2.2074  0.6764
   74SLPC   C34 6615   2.994   0.838   5.484 -0.8628  0.8555  0.1866
   74SLPC   H4X 6616   2.884   0.823   5.482 -0.5867 -2.1009  1.6251
   74SLPC   H4Y 6617   3.028   0.776   5.570  0.7192 -0.5454 -1.3355
   74SLPC   C35 6618   3.059   0.795   5.355  0.3767 -0.1385 -0.9444
   74SLPC   H5X 6619   3.049   0.684   5.352 -2.8391  0.0368 -0.3194
   74SLPC   H5Y 6620   3.166   0.817   5.375 -0.2319  0.4357  2.1677
   74SLPC   C36 6621   3.014   0.872   5.227  0.6541  0.3155 -0.5304
   74SLPC   H6X 6622   2.979   0.972   5.262  1.2876 -0.3601  2.2974
   74SLPC   H6Y 6623   2.912   0.830   5.211  0.9751 -1.6110  1.8772
   74SLPC   C37 6624   3.122   0.880   5.120 -0.5421 -0.3293 -0.8397
   74SLPC   H7X 6625   3.152   0.773   5.116  0.6027 -0.0249 -0.5655
   74SLPC   H7Y 6626   3.206   0.943   5.156 -0.5447 -1.6067  1.6073
   74SLPC   C38 6627   3.066   0.913   4.984 -1.3447  0.1663  0.7242
   74SLPC   H8X 6628   3.021   1.014   4.987 -1.4174  0.1323  0.7900
   74SLPC   H8Y 6629   2.984   0.838   4.983 -0.4262 -0.9368 -1.6450
   74SLPC   C39 6630   3.151   0.878   4.859 -0.0416  0.4576 -0.0040
   74SLPC   H9X 6631   3.172   0.770   4.876 -0.0144  0.0674 -2.2618
   74SLPC   H9Y 6632   3.235   0.948   4.880 -0.4827  0.7540  0.8295
   74SLPC  C310 6633   3.071   0.907   4.732 -0.4097 -0.4701 -0.7750
   74SLPC  H10X 6634   3.062   1.016   4.713  0.7902 -0.2723 -0.3556
   74SLPC  H10Y 6635   2.979   0.847   4.744  0.6499 -1.9506  0.4252
   74SLPC  C311 6636   3.134   0.845   4.600  0.1635  0.6960 -0.3499
   74SLPC  H11X 6637   3.170   0.741   4.613  1.2470  0.8165 -2.0400
   74SLPC  H11Y 6638   3.218   0.913   4.573  1.3079  0.0882  1.5780
   74SLPC  C312 6639   3.029   0.849   4.490 -0.2891  0.4536 -0.3218
   74SLPC  H12X 6640   2.982   0.950   4.481  0.1552  0.8102  1.1643
   74SLPC  H12Y 6641   2.947   0.781   4.521 -0.9707  0.9127 -1.0736
   74SLPC  C313 6642   3.094   0.828   4.348  0.0765  0.4335 -1.0716
   74SLPC  H13X 6643   3.016   0.794   4.276 -0.1189  0.5523 -0.9172
   74SLPC  H13Y 6644   3.170   0.748   4.340 -1.0529 -0.8881  0.8558
   74SLPC  C314 6645   3.145   0.958   4.287  0.1065  0.3890  0.8071
   74SLPC  H14X 6646   3.224   1.000   4.353  1.1314 -0.8036  0.3783
   74SLPC  H14Y 6647   3.066   1.036   4.289 -3.5437 -2.7699 -1.9670
   74SLPC  C315 6648   3.185   0.950   4.129  0.8471  0.1515 -0.9653
   74SLPC  H15X 6649   3.094   0.920   4.073 -1.2493  2.8449  0.7541
   74SLPC  H15Y 6650   3.262   0.881   4.088 -0.4125 -1.0381 -1.4149
   74SLPC  C316 6651   3.208   1.091   4.077  0.3134  0.2292  0.4111
   74SLPC  H16X 6652   3.138   1.161   4.126 -0.0941 -0.3374  0.6461
   74SLPC  H16Y 6653   3.183   1.106   3.970  1.7345 -0.6907 -0.0888
   74SLPC  C317 6654   3.349   1.150   4.095  0.3507 -0.2042 -0.5693
   74SLPC  H17X 6655   3.383   1.157   4.201  1.6963 -0.2823 -0.9738
   74SLPC  H17Y 6656   3.345   1.255   4.058  0.8066  0.7167  1.7818
   74SLPC  C318 6657   3.451   1.080   4.019 -0.7161  0.0052 -0.4739
   74SLPC  H18X 6658   3.412   1.056   3.919  0.9503 -1.0083 -0.9256
   74SLPC  H18Y 6659   3.489   0.989   4.070  1.6620  0.8896 -0.5088
   74SLPC  H18Z 6660   3.536   1.149   3.997  0.4374 -1.3567 -0.4100
   75SLPC     N 6661   5.793   6.330   6.999 -0.4997 -0.6321 -0.3422
   75SLPC   C13 6662   5.900   6.245   7.059  0.4165  0.0149 -0.4153
   75SLPC  H13A 6663   5.966   6.199   6.988 -0.9637 -1.6789 -0.6520
   75SLPC  H13B 6664   5.956   6.304   7.131 -0.1951  0.1086 -0.0137
   75SLPC  H13C 6665   5.859   6.167   7.121  1.4346 -0.1826  0.0351
   75SLPC   C14 6666   5.855   6.445   6.926  0.2900 -0.4922  0.2142
   75SLPC  H14A 6667   5.779   6.493   6.865  0.4332 -1.0810 -0.4484
   75SLPC  H14B 6668   5.889   6.520   6.995  0.8588 -0.3633 -0.1999
   75SLPC  H14C 6669   5.942   6.411   6.871  0.2213 -0.8059  0.2965
   75SLPC   C15 6670   5.689   6.382   7.092  0.5531 -0.4734  0.4639
   75SLPC  H15A 6671   5.609   6.312   7.111  0.4887 -0.9529 -1.3303
   75SLPC  H15B 6672   5.726   6.418   7.187 -0.2933 -1.1870  1.0792
   75SLPC  H15C 6673   5.627   6.461   7.050  1.5060 -0.4395 -0.9701
   75SLPC   C12 6674   5.723   6.250   6.891  0.5961  0.4376  0.4009
   75SLPC  H12A 6675   5.674   6.167   6.939  2.1482 -0.9737 -0.3206
   75SLPC  H12B 6676   5.794   6.209   6.820  0.7543 -0.1712  0.9037
   75SLPC   C11 6677   5.609   6.320   6.808 -0.5375 -0.0070  0.1489
   75SLPC  H11A 6678   5.548   6.382   6.877  1.2928  1.8499  0.1743
   75SLPC  H11B 6679   5.536   6.245   6.769  1.0105 -0.7476 -1.4909
   75SLPC     P 6680   5.737   6.344   6.581  0.3793  0.0712 -0.3280
   75SLPC   O13 6681   5.864   6.413   6.557 -0.5176 -0.3466  0.0515
   75SLPC   O14 6682   5.733   6.192   6.580  0.6167 -0.4672 -0.0541
   75SLPC   O12 6683   5.667   6.406   6.710  0.0844 -0.0844  0.4619
   75SLPC   O11 6684   5.631   6.382   6.466 -0.2068 -0.2686 -0.1425
   75SLPC    C1 6685   5.629   6.524   6.428  0.3662  0.4801 -0.4939
   75SLPC    HA 6686   5.524   6.559   6.422 -0.9357 -3.1109 -1.5352
   75SLPC    HB 6687   5.688   6.578   6.505  0.3168 -0.0861 -0.0557
   75SLPC    C2 6688   5.686   6.541   6.285 -0.9984  0.2415 -0.5356
   75SLPC    HS 6689   5.619   6.499   6.207 -0.6652  1.8370 -1.7541
   75SLPC   O21 6690   5.813   6.472   6.279 -0.0329  0.1160 -0.9325
   75SLPC   C21 6691   5.813   6.359   6.217  0.6924  0.4235 -0.6905
   75SLPC   O22 6692   5.718   6.308   6.161 -0.0150  0.0288  0.0855
   75SLPC   C22 6693   5.946   6.291   6.233 -0.2226 -0.3308  0.3299
   75SLPC   H2R 6694   5.966   6.280   6.341 -0.2714 -0.1136  0.3612
   75SLPC   H2S 6695   5.943   6.184   6.202 -0.0771 -0.1473 -0.3364
   75SLPC    C3 6696   5.703   6.693   6.240 -0.1084 -0.2692 -0.5188
   75SLPC    HX 6697   5.787   6.734   6.299 -0.1782 -0.9951  0.1047
   75SLPC    HY 6698   5.604   6.733   6.270 -0.9442 -1.3311 -1.7451
   75SLPC   O31 6699   5.744   6.727   6.104 -0.3661 -0.2952  0.1594
   75SLPC   C31 6700   5.654   6.717   6.016  0.1853  0.4126  0.5696
   75SLPC   O32 6701   5.540   6.669   6.030 -0.2802 -0.0483  0.7170
   75SLPC   C32 6702   5.713   6.769   5.882  0.4384 -0.2303 -0.3808
   75SLPC   H2X 6703   5.790   6.699   5.844  0.6589 -0.5816  0.6878
   75SLPC   H2Y 6704   5.770   6.863   5.899  0.2203 -0.3071  0.8114
   75SLPC   C23 6705   6.061   6.358   6.165 -0.3983  0.4035 -0.9460
   75SLPC   H3R 6706   6.149   6.353   6.233 -0.0191  0.0355 -1.4534
   75SLPC   H3S 6707   6.042   6.467   6.164  1.7847  0.8785  0.9184
   75SLPC   C24 6708   6.098   6.298   6.029  0.3291  0.8673 -0.0426
   75SLPC   H4R 6709   6.140   6.196   6.043 -0.1251  0.7375  0.4168
   75SLPC   H4S 6710   6.168   6.368   5.978  0.5778  0.8678  0.2978
   75SLPC   C25 6711   5.969   6.261   5.945 -0.5029  0.1050  0.1520
   75SLPC   H5R 6712   5.902   6.349   5.955  0.5543  1.0256 -0.5923
   75SLPC   H5S 6713   5.918   6.168   5.980 -1.2757  0.3654 -0.2420
   75SLPC   C26 6714   5.995   6.246   5.801  0.0292  0.4238  0.7495
   75SLPC   H6R 6715   6.053   6.337   5.776 -0.9077  0.8368 -0.0076
   75SLPC   H6S 6716   5.905   6.243   5.735  0.4869 -0.7060  0.1550
   75SLPC   C27 6717   6.082   6.120   5.771  0.4798 -0.4233  0.0656
   75SLPC   H7R 6718   6.036   6.029   5.815  2.2306 -0.8961  1.0015
   75SLPC   H7S 6719   6.185   6.129   5.812  0.2057  0.8696  0.4886
   75SLPC   C28 6720   6.097   6.095   5.617 -0.2016 -0.6169 -0.4354
   75SLPC   H8R 6721   5.996   6.106   5.570 -0.2605 -1.8189 -0.6053
   75SLPC   H8S 6722   6.112   5.985   5.621 -1.3540 -0.7753 -0.1065
   75SLPC   C29 6723   6.209   6.161   5.539 -0.0704 -0.2634  0.0727
   75SLPC   H9R 6724   6.263   6.236   5.597  0.9959 -1.0136  0.0683
   75SLPC  C210 6725   6.247   6.140   5.412 -0.4521 -0.4888 -0.1999
   75SLPC  H10R 6726   6.335   6.190   5.369 -0.0875  0.0306  1.1075
   75SLPC  C211 6727   6.183   6.052   5.305  0.3617 -0.3559 -1.1258
   75SLPC  H11R 6728   6.120   5.972   5.348 -1.0258  0.5045 -1.5204
   75SLPC  H11S 6729   6.257   5.994   5.245  2.2481 -0.5303  1.2243
   75SLPC  C212 6730   6.111   6.133   5.204 -0.4572 -0.0700 -0.0337
   75SLPC  H12R 6731   6.069   6.231   5.230 -2.2780 -0.1297 -2.4085
   75SLPC  C213 6732   6.097   6.100   5.077  0.8234 -0.1904  0.1901
   75SLPC  H13R 6733   6.048   6.175   5.012  1.2591  0.5857  0.7472
   75SLPC  C214 6734   6.136   5.969   5.004 -0.1958 -0.0594  0.1608
   75SLPC  H14R 6735   6.053   5.926   4.945 -0.6082  0.7989  0.0848
   75SLPC  H14S 6736   6.149   5.888   5.079 -1.1172  1.8430  2.5486
   75SLPC  C215 6737   6.275   5.983   4.931  0.1282  0.1214 -1.4724
   75SLPC  H15R 6738   6.322   5.883   4.931  0.2579  0.1468  0.3877
   75SLPC  H15S 6739   6.333   6.058   4.989  1.9377 -1.3668 -1.2907
   75SLPC  C216 6740   6.270   6.039   4.792  0.7647 -0.2761  0.2607
   75SLPC  H16R 6741   6.368   6.078   4.755 -1.3107  2.5041 -2.9038
   75SLPC  H16S 6742   6.202   6.126   4.801  0.0605 -0.7237 -0.6161
   75SLPC  C217 6743   6.229   5.935   4.688 -0.1528 -0.2834 -0.2198
   75SLPC  H17R 6744   6.275   5.835   4.690 -0.4408 -0.4239 -0.4807
   75SLPC  H17S 6745   6.264   5.982   4.594  0.5281 -1.1561 -0.4088
   75SLPC  C218 6746   6.077   5.918   4.660  0.3193  0.8035 -0.2263
   75SLPC  H18R 6747   6.049   5.829   4.722  0.2160  0.8442 -0.2146
   75SLPC  H18S 6748   6.057   5.898   4.553  0.7512  1.4666 -0.4319
   75SLPC  H18T 6749   6.021   6.008   4.691 -1.8292 -0.7745  0.7933
   75SLPC   C33 6750   5.610   6.808   5.774 -0.3512  0.4164  0.1302
   75SLPC   H3X 6751   5.546   6.893   5.806 -0.3066  0.4422  0.1488
   75SLPC   H3Y 6752   5.548   6.717   5.757  0.1897  0.1544 -0.4820
   75SLPC   C34 6753   5.679   6.850   5.645 -0.2725  0.7886  0.1816
   75SLPC   H4X 6754   5.731   6.765   5.596 -0.9231  0.6595 -0.3016
   75SLPC   H4Y 6755   5.754   6.932   5.656 -0.7883  1.2445  0.3956
   75SLPC   C35 6756   5.580   6.907   5.544  0.8990 -0.9655  0.1159
   75SLPC   H5X 6757   5.568   7.013   5.575 -2.2690 -1.0890 -0.4384
   75SLPC   H5Y 6758   5.486   6.848   5.552  0.5781 -0.4861 -0.1230
   75SLPC   C36 6759   5.644   6.907   5.404 -0.6311 -0.5942 -0.0588
   75SLPC   H6X 6760   5.667   6.805   5.366 -0.7424 -2.4652  4.3077
   75SLPC   H6Y 6761   5.732   6.974   5.418 -0.8377 -0.3712  0.1794
   75SLPC   C37 6762   5.545   6.967   5.298 -0.5189  0.6485 -0.4636
   75SLPC   H7X 6763   5.551   7.077   5.307 -1.2446  0.7803 -1.4298
   75SLPC   H7Y 6764   5.444   6.936   5.330 -0.2771 -0.3555 -0.6438
   75SLPC   C38 6765   5.577   6.928   5.150 -0.4395  0.0921 -0.6966
   75SLPC   H8X 6766   5.559   6.819   5.139 -0.7984 -0.0198  0.7623
   75SLPC   H8Y 6767   5.686   6.946   5.135 -0.4131  1.5944  0.9016
   75SLPC   C39 6768   5.505   7.015   5.058 -0.3592 -0.0852  0.0940
   75SLPC   H9X 6769   5.526   7.123   5.078 -2.0545  0.2581  0.1478
   75SLPC   H9Y 6770   5.395   6.998   5.056 -0.3699 -0.3867  1.8171
   75SLPC  C310 6771   5.553   6.989   4.915 -0.0075 -0.2337 -0.4970
   75SLPC  H10X 6772   5.514   6.888   4.889 -2.0074  0.3012  0.2538
   75SLPC  H10Y 6773   5.663   7.002   4.913 -0.1161  0.8009 -0.4129
   75SLPC  C311 6774   5.503   7.101   4.806 -0.3381  0.1730 -0.3344
   75SLPC  H11X 6775   5.553   7.199   4.822 -0.5849  0.3182 -0.4538
   75SLPC  H11Y 6776   5.392   7.101   4.811 -0.3272 -1.9582  2.1532
   75SLPC  C312 6777   5.546   7.056   4.659  0.4557  0.3474 -0.3513
   75SLPC  H12X 6778   5.490   7.117   4.584 -1.5330  0.3184  1.0212
   75SLPC  H12Y 6779   5.510   6.953   4.634  0.2851  0.7228 -1.7647
   75SLPC  C313 6780   5.701   7.039   4.635 -0.7341  0.4684  0.3763
   75SLPC  H13X 6781   5.714   6.976   4.544  0.0132 -0.0283  0.8176
   75SLPC  H13Y 6782   5.743   6.978   4.718 -1.0878 -0.0411  0.1864
   75SLPC  C314 6783   5.790   7.164   4.648 -0.0856 -0.2726 -0.4716
   75SLPC  H14X 6784   5.781   7.213   4.747 -0.1217  2.1443 -1.5989
   75SLPC  H14Y 6785   5.751   7.236   4.573 -0.6288  0.1821  0.2412
   75SLPC  C315 6786   5.943   7.133   4.623 -0.0678 -0.2907 -0.5801
   75SLPC  H15X 6787   5.963   7.076   4.529  0.5640 -1.6340  0.3340
   75SLPC  H15Y 6788   5.982   7.071   4.706  1.0610  0.3824 -0.5752
   75SLPC  C316 6789   6.017   7.269   4.629  0.0426 -0.2577  0.8199
   75SLPC  H16X 6790   6.127   7.254   4.635 -0.1594 -2.0083  0.6500
   75SLPC  H16Y 6791   5.998   7.330   4.720 -1.5363 -1.3311  1.2514
   75SLPC  C317 6792   5.989   7.361   4.509  1.3153  0.3864 -0.7507
   75SLPC  H17X 6793   5.887   7.403   4.522  0.5825 -1.1361 -1.3647
   75SLPC  H17Y 6794   5.989   7.303   4.414 -2.4536  1.9767 -1.8696
   75SLPC  C318 6795   6.086   7.478   4.488 -0.4229  0.2579  0.0152
   75SLPC  H18X 6796   6.188   7.437   4.471 -0.2113  0.8269 -0.1395
   75SLPC  H18Y 6797   6.093   7.555   4.568  0.4854  2.4583 -2.0308
   75SLPC  H18Z 6798   6.062   7.541   4.399 -1.3694  0.2215  0.2424
   76SLPC     N 6799   1.947   1.431   7.260  0.1641  0.1101  0.3048
   76SLPC   C13 6800   1.815   1.410   7.322  0.5655  0.3183 -0.2341
   76SLPC  H13A 6801   1.817   1.402   7.430 -1.3965  2.5769  0.0540
   76SLPC  H13B 6802   1.746   1.491   7.304  0.3199  0.7302  2.2449
   76SLPC  H13C 6803   1.763   1.326   7.279 -0.5626  1.2226 -0.6821
   76SLPC   C14 6804   2.038   1.324   7.299  0.0420 -0.7287 -0.6785
   76SLPC  H14A 6805   2.000   1.227   7.271 -0.9460  0.5724 -4.4181
   76SLPC  H14B 6806   2.129   1.339   7.243 -1.3223  1.7157 -2.4359
   76SLPC  H14C 6807   2.061   1.327   7.404 -0.1019 -0.4745 -0.6525
   76SLPC   C15 6808   2.003   1.561   7.299  0.4404  0.2773 -0.7862
   76SLPC  H15A 6809   1.958   1.639   7.241  1.6425  0.7411 -1.1341
   76SLPC  H15B 6810   1.989   1.571   7.406  1.1557 -1.1171 -0.5269
   76SLPC  H15C 6811   2.108   1.567   7.275  0.6878  1.1372  0.3876
   76SLPC   C12 6812   1.924   1.437   7.110 -1.0906 -0.5039  0.1233
   76SLPC  H12A 6813   2.021   1.456   7.065 -1.3319  2.0912  0.5714
   76SLPC  H12B 6814   1.866   1.526   7.092 -0.6429 -0.3960 -0.9188
   76SLPC   C11 6815   1.852   1.321   7.049 -0.2282 -0.6829  0.3379
   76SLPC  H11A 6816   1.901   1.227   7.081  1.2501  0.2162  0.8117
   76SLPC  H11B 6817   1.866   1.325   6.939  1.4734 -0.2217  0.5433
   76SLPC     P 6818   1.618   1.203   7.021 -0.1684  0.1557  0.2406
   76SLPC   O13 6819   1.678   1.075   7.070  0.9929  0.4440 -0.7096
   76SLPC   O14 6820   1.479   1.223   7.069  0.1736 -0.3643  0.0469
   76SLPC   O12 6821   1.708   1.323   7.074 -0.3938  0.1072 -0.4172
   76SLPC   O11 6822   1.629   1.215   6.863 -0.3172  0.1867 -0.4704
   76SLPC    C1 6823   1.595   1.328   6.789 -0.2270  0.4217  0.1319
   76SLPC    HA 6824   1.499   1.374   6.821  0.7969  1.9095  1.1994
   76SLPC    HB 6825   1.676   1.404   6.797  0.2336 -0.1638  1.3655
   76SLPC    C2 6826   1.586   1.284   6.639  0.2613 -0.2462  0.0273
   76SLPC    HS 6827   1.683   1.239   6.609 -0.7537 -0.5628 -3.1541
   76SLPC   O21 6828   1.546   1.399   6.563 -0.3076 -0.0655 -0.3460
   76SLPC   C21 6829   1.646   1.469   6.517 -0.1514 -0.2702  0.0639
   76SLPC   O22 6830   1.765   1.435   6.532  0.0565 -0.1100 -0.4656
   76SLPC   C22 6831   1.590   1.587   6.438 -0.0617 -0.5702  0.1532
   76SLPC   H2R 6832   1.489   1.569   6.396  1.2293  1.6393 -4.5813
   76SLPC   H2S 6833   1.594   1.668   6.514  1.5117 -1.3247  0.9332
   76SLPC    C3 6834   1.483   1.171   6.619  0.0780  0.2520 -0.5385
   76SLPC    HX 6835   1.383   1.218   6.634 -0.4447 -1.6698  3.2997
   76SLPC    HY 6836   1.507   1.100   6.702  1.2918  4.1428  2.7841
   76SLPC   O31 6837   1.492   1.114   6.485 -0.2813  0.4488 -0.0147
   76SLPC   C31 6838   1.570   1.012   6.463  0.6811 -0.2778  0.0231
   76SLPC   O32 6839   1.631   0.951   6.549  0.0669  0.2484  0.1769
   76SLPC   C32 6840   1.573   0.991   6.309 -0.3999  0.0506 -0.0984
   76SLPC   H2X 6841   1.607   1.083   6.257 -0.4973  0.2247  0.1453
   76SLPC   H2Y 6842   1.468   0.966   6.284 -0.4819  0.8734 -0.6318
   76SLPC   C23 6843   1.681   1.624   6.320  0.4875  0.6278  0.0751
   76SLPC   H3R 6844   1.789   1.611   6.344  0.4341 -0.3621 -0.2003
   76SLPC   H3S 6845   1.654   1.729   6.293  0.6941  0.6814  0.0750
   76SLPC   C24 6846   1.646   1.530   6.193  0.1040 -0.0581 -0.5525
   76SLPC   H4R 6847   1.537   1.546   6.176 -0.1367 -1.3208 -0.2771
   76SLPC   H4S 6848   1.644   1.421   6.213  0.7511  0.2863  1.6425
   76SLPC   C25 6849   1.729   1.556   6.067  0.2540  0.2733  0.0979
   76SLPC   H5R 6850   1.837   1.551   6.096  0.8474 -2.0703 -2.1252
   76SLPC   H5S 6851   1.713   1.661   6.036 -2.5048  0.4675  1.8349
   76SLPC   C26 6852   1.695   1.470   5.936  0.2088 -1.0852 -0.5413
   76SLPC   H6R 6853   1.588   1.487   5.910 -0.2901  0.0963  1.9318
   76SLPC   H6S 6854   1.724   1.363   5.934  0.3626 -1.0648  0.3732
   76SLPC   C27 6855   1.771   1.540   5.819 -0.3298 -0.4641  1.0446
   76SLPC   H7R 6856   1.879   1.542   5.843  0.5124 -1.0222 -2.1347
   76SLPC   H7S 6857   1.730   1.642   5.804  0.4025 -0.3581 -0.4439
   76SLPC   C28 6858   1.765   1.470   5.676 -0.6767 -0.3183 -0.2369
   76SLPC   H8R 6859   1.667   1.418   5.677 -0.8599  0.0035  1.6574
   76SLPC   H8S 6860   1.840   1.388   5.674 -0.6558 -0.2895 -0.8699
   76SLPC   C29 6861   1.773   1.561   5.560  0.1526 -0.3592 -0.5369
   76SLPC   H9R 6862   1.806   1.665   5.574  0.0512 -0.4667  0.5233
   76SLPC  C210 6863   1.743   1.526   5.433 -0.2378  0.0622 -0.2487
   76SLPC  H10R 6864   1.757   1.592   5.347  0.4454 -1.7903 -1.6218
   76SLPC  C211 6865   1.689   1.393   5.389 -0.7278  0.3041 -0.0436
   76SLPC  H11R 6866   1.586   1.383   5.429 -0.5470  1.4088  0.7476
   76SLPC  H11S 6867   1.747   1.310   5.434  2.6709  2.3066 -0.3824
   76SLPC  C212 6868   1.674   1.369   5.245  0.1951  0.1138  0.5963
   76SLPC  H12R 6869   1.580   1.413   5.207  0.2044  0.0916  0.5478
   76SLPC  C213 6870   1.764   1.319   5.160  0.1439  0.1805  0.6410
   76SLPC  H13R 6871   1.751   1.303   5.052  2.4333 -1.0776  0.4986
   76SLPC  C214 6872   1.896   1.263   5.216 -0.2364 -0.5357 -0.1359
   76SLPC  H14R 6873   1.880   1.161   5.257  0.4220 -1.6759 -2.5523
   76SLPC  H14S 6874   1.942   1.327   5.294  1.2767  0.1965 -1.5724
   76SLPC  C215 6875   2.015   1.239   5.121 -0.4699  1.1964  0.2252
   76SLPC  H15R 6876   2.107   1.226   5.183 -1.2970  0.0665  1.2780
   76SLPC  H15S 6877   2.033   1.326   5.055  2.1366  0.4847 -0.1283
   76SLPC  C216 6878   2.005   1.112   5.041 -0.6047 -0.1855  0.1362
   76SLPC  H16R 6879   1.907   1.124   4.990  0.8052 -1.8095 -3.2540
   76SLPC  H16S 6880   2.009   1.029   5.115  2.2886 -1.2358 -1.0695
   76SLPC  C217 6881   2.102   1.086   4.927 -0.1594  0.1200 -0.3883
   76SLPC  H17R 6882   2.201   1.082   4.977  0.4631  2.7700 -1.2267
   76SLPC  H17S 6883   2.102   1.173   4.857 -0.2812 -0.4232 -1.0784
   76SLPC  C218 6884   2.088   0.950   4.858  0.2945  0.3326 -0.0724
   76SLPC  H18R 6885   1.981   0.922   4.871  0.4342 -0.0894  0.1850
   76SLPC  H18S 6886   2.142   0.866   4.908 -0.0141  0.1880  0.0201
   76SLPC  H18T 6887   2.118   0.953   4.751  0.7820 -0.2263  0.0389
   76SLPC   C33 6888   1.665   0.870   6.256  0.4061  0.1784 -0.7846
   76SLPC   H3X 6889   1.652   0.787   6.329  2.4330  0.3975 -0.1224
   76SLPC   H3Y 6890   1.773   0.888   6.272  0.6778 -1.5878 -0.4561
   76SLPC   C34 6891   1.615   0.845   6.119  0.0658  0.4272  0.1897
   76SLPC   H4X 6892   1.507   0.820   6.118  0.3441 -0.7946 -0.1084
   76SLPC   H4Y 6893   1.661   0.748   6.094  2.4341  2.0618 -2.3141
   76SLPC   C35 6894   1.645   0.957   6.012 -0.3876 -0.1633  0.0631
   76SLPC   H5X 6895   1.749   0.988   6.036 -0.2318 -1.8893  1.9804
   76SLPC   H5Y 6896   1.579   1.043   6.036  0.4427  0.0392  1.8075
   76SLPC   C36 6897   1.619   0.906   5.873 -0.0237  0.4157  0.9422
   76SLPC   H6X 6898   1.510   0.892   5.860 -0.0159 -1.0133  2.2233
   76SLPC   H6Y 6899   1.661   0.805   5.851 -0.2093  1.1184 -3.5818
   76SLPC   C37 6900   1.659   1.002   5.758 -0.0355 -0.0446  0.2578
   76SLPC   H7X 6901   1.765   1.035   5.765 -0.2134  0.1641  3.2306
   76SLPC   H7Y 6902   1.600   1.096   5.754  0.6853  0.4074 -3.2046
   76SLPC   C38 6903   1.633   0.931   5.620 -0.0540 -0.6276 -0.1444
   76SLPC   H8X 6904   1.528   0.901   5.641 -0.6686  2.2647  1.4182
   76SLPC   H8Y 6905   1.699   0.841   5.614  0.7555  0.0740 -2.9514
   76SLPC   C39 6906   1.635   1.010   5.491  0.1834 -0.2926 -0.6192
   76SLPC   H9X 6907   1.739   1.015   5.452  0.1261 -2.0428 -1.0593
   76SLPC   H9Y 6908   1.599   1.114   5.505  0.9331 -0.3705  2.7625
   76SLPC  C310 6909   1.547   0.945   5.388  0.1759 -0.0463  0.3825
   76SLPC  H10X 6910   1.445   0.917   5.423 -0.1251 -0.0899 -0.5093
   76SLPC  H10Y 6911   1.602   0.850   5.375  0.1317 -0.1391  0.8649
   76SLPC  C311 6912   1.561   1.025   5.254  0.3067 -0.6003  0.0496
   76SLPC  H11X 6913   1.663   1.069   5.251  0.2225 -0.2767  1.3024
   76SLPC  H11Y 6914   1.474   1.095   5.246  1.0096  0.2030 -0.8699
   76SLPC  C312 6915   1.556   0.928   5.138 -0.3470  0.4938 -0.5172
   76SLPC  H12X 6916   1.464   0.867   5.147 -0.7526  1.1330 -0.2425
   76SLPC  H12Y 6917   1.653   0.873   5.136 -0.6047  0.0426 -1.4567
   76SLPC  C313 6918   1.537   1.014   5.015  0.0684 -0.5376 -0.1003
   76SLPC  H13X 6919   1.633   1.068   5.000 -1.5214  3.4669  2.6000
   76SLPC  H13Y 6920   1.465   1.093   5.045  0.3659 -0.7613  1.2387
   76SLPC  C314 6921   1.493   0.937   4.887  0.3209 -0.6832 -0.7444
   76SLPC  H14X 6922   1.484   1.001   4.796 -3.1798 -1.6221 -1.2368
   76SLPC  H14Y 6923   1.390   0.896   4.889 -0.6941  1.6126 -1.7398
   76SLPC  C315 6924   1.593   0.826   4.846 -0.6976  0.5838  0.1037
   76SLPC  H15X 6925   1.598   0.752   4.929 -0.1268  1.7804  1.1731
   76SLPC  H15Y 6926   1.694   0.872   4.845  0.7352 -2.3317  0.6031
   76SLPC  C316 6927   1.566   0.765   4.709 -0.6163  0.7754 -0.2964
   76SLPC  H16X 6928   1.548   0.840   4.629  1.0747  0.2562 -1.1933
   76SLPC  H16Y 6929   1.482   0.692   4.708 -1.1770  1.4107 -1.0269
   76SLPC  C317 6930   1.693   0.686   4.661 -0.1705  0.3082 -0.3263
   76SLPC  H17X 6931   1.789   0.722   4.703 -0.5028  0.9187 -0.0781
   76SLPC  H17Y 6932   1.705   0.700   4.552  0.3942  0.7194 -0.2146
   76SLPC  C318 6933   1.683   0.535   4.674 -0.1628 -0.5835 -1.0910
   76SLPC  H18X 6934   1.641   0.516   4.776  0.2884 -1.2235 -1.0138
   76SLPC  H18Y 6935   1.780   0.479   4.670  0.1683  0.0441 -2.0400
   76SLPC  H18Z 6936   1.613   0.490   4.601 -1.0312 -1.5843  0.2798
   77SLPC     N 6937   6.769   0.036   7.036  0.5826  0.7083  0.1690
   77SLPC   C13 6938   6.826   0.167   7.075  0.1255 -0.3941  0.7173
   77SLPC  H13A 6939   6.746   0.233   7.102  1.0807  0.9859  0.2750
   77SLPC  H13B 6940   6.901   0.174   7.153  1.8297 -0.8682 -0.7957
   77SLPC  H13C 6941   6.873   0.196   6.982 -0.0142  0.3806  0.8815
   77SLPC   C14 6942   6.682   0.062   6.918  0.1704 -0.6399  0.0695
   77SLPC  H14A 6943   6.746   0.120   6.853  0.9325 -2.5241 -0.9341
   77SLPC  H14B 6944   6.642  -0.026   6.870  1.7634 -1.6217  0.4647
   77SLPC  H14C 6945   6.607   0.126   6.962  1.8857 -0.1753  2.4938
   77SLPC   C15 6946   6.684  -0.017   7.147  0.3873 -0.0230  0.1061
   77SLPC  H15A 6947   6.609   0.055   7.176  2.1052  2.5305 -1.3444
   77SLPC  H15B 6948   6.645  -0.111   7.112 -1.2010  1.0311 -1.0736
   77SLPC  H15C 6949   6.736  -0.034   7.241 -0.3037 -1.1593  0.3008
   77SLPC   C12 6950   6.879  -0.055   6.987 -0.1790  0.2896  0.3269
   77SLPC  H12A 6951   6.949  -0.058   7.069  0.6048  1.4782 -0.2668
   77SLPC  H12B 6952   6.927  -0.005   6.904  0.7989  1.2744  1.4464
   77SLPC   C11 6953   6.852  -0.197   6.934  0.3182 -0.0864  0.4499
   77SLPC  H11A 6954   6.800  -0.253   7.015  1.1401 -1.6060 -0.0346
   77SLPC  H11B 6955   6.946  -0.257   6.933  1.4649  1.6365 -0.4626
   77SLPC     P 6956   6.854  -0.245   6.668 -0.4076 -0.2011 -0.0400
   77SLPC   O13 6957   6.856  -0.395   6.649  1.2011 -0.1491  0.0887
   77SLPC   O14 6958   6.804  -0.159   6.558  0.1873  0.3182  0.0846
   77SLPC   O12 6959   6.779  -0.199   6.801 -0.6160  0.1217 -0.6408
   77SLPC   O11 6960   7.004  -0.204   6.685  0.1916 -0.4922 -0.5223
   77SLPC    C1 6961   7.044  -0.067   6.686  0.0113  0.1940 -0.4581
   77SLPC    HA 6962   6.967   0.011   6.703 -0.4252  0.1625 -2.1217
   77SLPC    HB 6963   7.125  -0.047   6.760  0.4924 -2.2923 -0.2323
   77SLPC    C2 6964   7.105  -0.019   6.550  0.7673 -0.4454  0.3726
   77SLPC    HS 6965   7.013  -0.006   6.489 -1.0752  0.5435  3.1624
   77SLPC   O21 6966   7.198  -0.118   6.511  0.1609 -0.0995  0.0609
   77SLPC   C21 6967   7.182  -0.180   6.400 -0.0590 -0.3731  0.2272
   77SLPC   O22 6968   7.107  -0.140   6.308 -0.1266  0.5391 -0.1844
   77SLPC   C22 6969   7.274  -0.301   6.372  0.4143  0.2795 -0.2036
   77SLPC   H2R 6970   7.363  -0.290   6.438  1.4494 -0.1548 -1.4787
   77SLPC   H2S 6971   7.226  -0.390   6.418  2.6278 -0.4906  0.7373
   77SLPC    C3 6972   7.169   0.127   6.554 -0.5308  0.2457 -0.4281
   77SLPC    HX 6973   7.251   0.141   6.628  0.3968  0.6830 -1.5226
   77SLPC    HY 6974   7.082   0.188   6.589 -0.5596 -0.1029  0.1259
   77SLPC   O31 6975   7.227   0.153   6.419  0.4813  0.1461 -0.1324
   77SLPC   C31 6976   7.144   0.187   6.325 -0.1142  0.1279 -0.3139
   77SLPC   O32 6977   7.030   0.227   6.342  0.1565 -0.0935 -0.2237
   77SLPC   C32 6978   7.206   0.151   6.192  0.2556 -0.5722 -0.7661
   77SLPC   H2X 6979   7.248   0.048   6.193  0.8280 -0.3454 -0.9576
   77SLPC   H2Y 6980   7.285   0.229   6.186 -0.5655  0.3713  0.3218
   77SLPC   C23 6981   7.338  -0.316   6.231 -0.1631 -0.3909  0.2832
   77SLPC   H3R 6982   7.413  -0.398   6.242 -1.3077 -1.5922 -0.6295
   77SLPC   H3S 6983   7.395  -0.232   6.186 -1.7516 -0.3067 -1.6834
   77SLPC   C24 6984   7.246  -0.380   6.121 -0.0142 -0.0250  0.0408
   77SLPC   H4R 6985   7.149  -0.416   6.161 -1.1218  1.5908 -1.0470
   77SLPC   H4S 6986   7.303  -0.467   6.085  1.4425  0.5018  0.9787
   77SLPC   C25 6987   7.227  -0.291   6.003 -0.7297  0.3884  0.0815
   77SLPC   H5R 6988   7.328  -0.260   5.968 -0.3082 -0.2763  0.6749
   77SLPC   H5S 6989   7.187  -0.192   6.035  1.7028  1.3369  0.4214
   77SLPC   C26 6990   7.150  -0.358   5.884  0.3121  0.8739 -0.3526
   77SLPC   H6R 6991   7.051  -0.387   5.924  0.3625  2.0213  0.6847
   77SLPC   H6S 6992   7.208  -0.451   5.864  1.4240  0.9498  2.1600
   77SLPC   C27 6993   7.138  -0.264   5.760  0.0845  0.5925  0.1083
   77SLPC   H7R 6994   7.131  -0.161   5.800  0.7475  0.2960  1.0207
   77SLPC   H7S 6995   7.041  -0.289   5.713 -0.5040  1.6415  0.7302
   77SLPC   C28 6996   7.246  -0.263   5.658  0.0867 -0.3700 -0.6521
   77SLPC   H8R 6997   7.341  -0.249   5.715  0.5013 -2.5347 -0.7259
   77SLPC   H8S 6998   7.218  -0.181   5.588 -1.1666  1.2220  1.6072
   77SLPC   C29 6999   7.258  -0.400   5.595  0.0906 -0.7637 -0.3591
   77SLPC   H9R 7000   7.325  -0.471   5.647 -1.4544 -2.2490 -0.2936
   77SLPC  C210 7001   7.217  -0.445   5.477  0.3287  0.2011  0.0530
   77SLPC  H10R 7002   7.230  -0.552   5.455  1.2210  0.1415  0.7983
   77SLPC  C211 7003   7.127  -0.362   5.392 -0.0622  0.0388 -0.3299
   77SLPC  H11R 7004   7.047  -0.304   5.444 -1.0314 -0.2923 -1.4176
   77SLPC  H11S 7005   7.059  -0.433   5.340 -0.9905  1.1499 -0.6890
   77SLPC  C212 7006   7.192  -0.286   5.277 -0.3361 -0.4469  0.3958
   77SLPC  H12R 7007   7.299  -0.262   5.280 -0.2920 -0.5379 -0.2959
   77SLPC  C213 7008   7.125  -0.248   5.165 -0.4975  1.0294 -0.4136
   77SLPC  H13R 7009   7.180  -0.200   5.083  2.3312 -2.0785 -0.5660
   77SLPC  C214 7010   6.980  -0.268   5.137 -0.2536  0.1178 -0.1861
   77SLPC  H14R 7011   6.914  -0.258   5.226  0.1052  0.4199  0.0484
   77SLPC  H14S 7012   6.962  -0.366   5.087  0.8660  0.0336 -0.4458
   77SLPC  C215 7013   6.946  -0.163   5.027 -0.2106 -0.2917  0.3226
   77SLPC  H15R 7014   6.978  -0.063   5.062 -0.9205 -0.8267  2.6335
   77SLPC  H15S 7015   6.836  -0.155   5.013 -0.1206  0.2758 -0.0780
   77SLPC  C216 7016   6.992  -0.191   4.878  0.5113 -0.0032 -0.1808
   77SLPC  H16R 7017   7.100  -0.218   4.870  0.8700  1.1590  0.5517
   77SLPC  H16S 7018   6.982  -0.101   4.814 -2.1113 -1.1845 -1.5595
   77SLPC  C217 7019   6.921  -0.304   4.800 -0.6985  0.0023  0.0690
   77SLPC  H17R 7020   6.817  -0.268   4.783 -0.7150 -0.1169 -0.0891
   77SLPC  H17S 7021   6.913  -0.402   4.852 -2.2873  0.5853  0.9668
   77SLPC  C218 7022   6.974  -0.333   4.662 -0.0290 -0.8459  0.0986
   77SLPC  H18R 7023   7.077  -0.375   4.657  0.1737 -0.2356 -1.0337
   77SLPC  H18S 7024   6.956  -0.246   4.597 -0.0500  0.5647  1.9093
   77SLPC  H18T 7025   6.920  -0.426   4.635  1.6334 -1.9603  0.3980
   77SLPC   C33 7026   7.123   0.171   6.068  0.6101  0.0481  0.0214
   77SLPC   H3X 7027   7.068   0.267   6.064 -0.1955 -0.4422 -0.8497
   77SLPC   H3Y 7028   7.049   0.088   6.064  2.7396 -1.9836 -0.0046
   77SLPC   C34 7029   7.215   0.161   5.939  0.4728 -0.1122  0.8480
   77SLPC   H4X 7030   7.264   0.062   5.950 -0.8661 -0.9244 -0.1549
   77SLPC   H4Y 7031   7.295   0.238   5.948  0.6351 -0.2865  0.9055
   77SLPC   C35 7032   7.152   0.188   5.804 -0.4586 -0.3040 -0.0722
   77SLPC   H5X 7033   7.114   0.292   5.791  0.7462  0.0444 -0.9921
   77SLPC   H5Y 7034   7.075   0.110   5.785 -0.3344 -1.0029  2.0306
   77SLPC   C36 7035   7.265   0.173   5.697  0.7671  0.6930 -0.4477
   77SLPC   H6X 7036   7.312   0.072   5.704 -0.0235  0.3567  0.2022
   77SLPC   H6Y 7037   7.351   0.243   5.703  0.9292  0.9795 -3.8560
   77SLPC   C37 7038   7.212   0.184   5.555 -0.0623  0.7061  0.1455
   77SLPC   H7X 7039   7.205   0.293   5.534  0.8299  0.9479  1.0597
   77SLPC   H7Y 7040   7.114   0.132   5.552  1.5390 -2.5770 -0.2710
   77SLPC   C38 7041   7.300   0.110   5.452  0.1425  0.4240  0.0828
   77SLPC   H8X 7042   7.297  -0.000   5.467  2.8655 -0.1346 -2.4175
   77SLPC   H8Y 7043   7.408   0.136   5.462  0.0458  0.6982  0.4410
   77SLPC   C39 7044   7.254   0.144   5.314 -0.2480 -0.1276  0.2465
   77SLPC   H9X 7045   7.249   0.255   5.301  2.2674 -0.0567 -0.7801
   77SLPC   H9Y 7046   7.152   0.100   5.312  0.5050 -2.0479 -2.2220
   77SLPC  C310 7047   7.333   0.088   5.194  0.6430 -0.4456  0.0539
   77SLPC  H10X 7048   7.340  -0.023   5.191 -1.6162 -0.6121 -1.2145
   77SLPC  H10Y 7049   7.437   0.126   5.178 -0.6950  2.7962 -2.0724
   77SLPC  C311 7050   7.265   0.131   5.057  0.4373  0.2462  0.0416
   77SLPC  H11X 7051   7.300   0.236   5.051  1.4923  0.0194  1.5189
   77SLPC  H11Y 7052   7.155   0.115   5.059  0.5897 -1.0244 -0.5343
   77SLPC  C312 7053   7.325   0.047   4.938  0.2384 -0.0679 -0.0170
   77SLPC  H12X 7054   7.259  -0.043   4.947 -1.5636  1.0391 -1.4879
   77SLPC  H12Y 7055   7.429   0.014   4.959  0.7957  0.4169 -1.9040
   77SLPC  C313 7056   7.303   0.114   4.807  0.4482  0.4134 -1.1098
   77SLPC  H13X 7057   7.314   0.223   4.823 -1.2092  0.3275  1.0384
   77SLPC  H13Y 7058   7.197   0.100   4.775 -0.5415 -0.2915  2.1042
   77SLPC  C314 7059   7.390   0.065   4.689 -0.0253  0.2730 -0.7882
   77SLPC  H14X 7060   7.375  -0.045   4.675  0.5964 -0.2908  2.1564
   77SLPC  H14Y 7061   7.494   0.075   4.725 -0.4009 -0.6257  0.6388
   77SLPC  C315 7062   7.352   0.141   4.568 -0.0161 -0.2309 -0.1478
   77SLPC  H15X 7063   7.334   0.250   4.584  3.8058  0.2301  2.4678
   77SLPC  H15Y 7064   7.260   0.108   4.517  0.7370 -1.1457 -0.9450
   77SLPC  C316 7065   7.460   0.118   4.460  0.2292 -0.3963  0.1105
   77SLPC  H16X 7066   7.561   0.149   4.495 -0.5391 -0.3334  2.4404
   77SLPC  H16Y 7067   7.429   0.170   4.367 -1.7314 -2.4695 -0.5007
   77SLPC  C317 7068   7.474  -0.035   4.428 -0.2214 -0.1763 -0.8004
   77SLPC  H17X 7069   7.376  -0.082   4.403 -1.1988 -0.2160  2.6371
   77SLPC  H17Y 7070   7.520  -0.091   4.511  1.9063  1.7903 -0.5539
   77SLPC  C318 7071   7.570  -0.050   4.313 -0.0845 -0.2176  0.3727
   77SLPC  H18X 7072   7.521  -0.035   4.214  0.3752  2.1236  0.4613
   77SLPC  H18Y 7073   7.607  -0.155   4.317 -2.2963 -1.0696  0.1365
   77SLPC  H18Z 7074   7.656   0.020   4.321 -2.3158  2.8443 -0.4897
   78SLPC     N 7075   2.635   5.148   6.814 -0.1274 -0.2753 -0.3899
   78SLPC   C13 7076   2.686   5.271   6.885  0.7463  0.4031  0.2458
   78SLPC  H13A 7077   2.643   5.358   6.837  0.6698 -0.8139 -2.0537
   78SLPC  H13B 7078   2.672   5.269   6.992 -2.1369 -1.7171 -0.0380
   78SLPC  H13C 7079   2.793   5.282   6.876  0.7214  0.9150  0.5384
   78SLPC   C14 7080   2.695   5.042   6.899  0.3426  0.6807 -0.5180
   78SLPC  H14A 7081   2.802   5.034   6.884  0.0237 -2.7145 -1.7626
   78SLPC  H14B 7082   2.673   5.058   7.004  3.4851 -0.6886  0.4799
   78SLPC  H14C 7083   2.650   4.947   6.875 -0.9435  0.5443  2.0574
   78SLPC   C15 7084   2.674   5.136   6.677 -0.2774 -0.4727  0.2372
   78SLPC  H15A 7085   2.634   5.220   6.623  1.5857  1.5381  1.8042
   78SLPC  H15B 7086   2.781   5.142   6.664 -0.3972  0.1152 -0.5924
   78SLPC  H15C 7087   2.656   5.045   6.621  0.6861 -1.0780  0.8692
   78SLPC   C12 7088   2.477   5.142   6.825 -0.4324  0.2795 -0.2049
   78SLPC  H12A 7089   2.457   5.119   6.929 -0.1233 -0.3301 -0.2808
   78SLPC  H12B 7090   2.442   5.055   6.772 -2.9430  0.5842  0.8084
   78SLPC   C11 7091   2.407   5.272   6.770  0.3135 -0.5053 -0.2226
   78SLPC  H11A 7092   2.443   5.353   6.836 -0.0434 -1.3159  0.9898
   78SLPC  H11B 7093   2.298   5.247   6.768  0.9446 -3.7337  0.3053
   78SLPC     P 7094   2.362   5.379   6.523 -0.0717 -0.0315  0.0621
   78SLPC   O13 7095   2.253   5.455   6.585  0.0099  0.2606  0.5673
   78SLPC   O14 7096   2.450   5.463   6.438 -0.0278  0.5926 -0.0286
   78SLPC   O12 7097   2.450   5.309   6.633 -0.2307  0.7363 -0.5171
   78SLPC   O11 7098   2.294   5.274   6.424  0.5862  0.0856  0.0228
   78SLPC    C1 7099   2.383   5.188   6.352  0.0058 -0.2973 -0.1920
   78SLPC    HA 7100   2.485   5.229   6.331  0.3270 -1.8105 -1.8326
   78SLPC    HB 7101   2.390   5.091   6.405 -1.0074 -0.7378 -0.8358
   78SLPC    C2 7102   2.332   5.162   6.210  0.1129 -0.7831  0.8325
   78SLPC    HS 7103   2.361   5.247   6.146 -1.6069 -0.0004  1.0538
   78SLPC   O21 7104   2.188   5.134   6.202  0.1674  0.1294 -0.2900
   78SLPC   C21 7105   2.145   5.159   6.089  0.6398  0.1589  0.0355
   78SLPC   O22 7106   2.196   5.229   6.004 -0.3762  0.3013  0.3626
   78SLPC   C22 7107   2.004   5.096   6.066  0.2306  0.5212 -0.1524
   78SLPC   H2R 7108   2.005   4.998   6.120  0.9687  1.8311  2.3795
   78SLPC   H2S 7109   1.928   5.156   6.120  0.5347  0.6896  0.0958
   78SLPC    C3 7110   2.414   5.036   6.149  0.1354  0.2044 -0.0591
   78SLPC    HX 7111   2.365   4.948   6.196 -1.7305  0.9309 -0.5315
   78SLPC    HY 7112   2.520   5.042   6.181 -0.3170  1.7981  1.2500
   78SLPC   O31 7113   2.395   5.024   6.006 -0.2435  0.7257 -0.9415
   78SLPC   C31 7114   2.456   5.123   5.938  0.4164  0.1570 -0.2004
   78SLPC   O32 7115   2.544   5.194   5.981  0.0178  0.3944 -0.2788
   78SLPC   C32 7116   2.390   5.123   5.804 -0.4414 -0.1411  0.6922
   78SLPC   H2X 7117   2.326   5.212   5.785 -0.2399 -0.2887 -0.8394
   78SLPC   H2Y 7118   2.331   5.030   5.790 -1.9744  1.0443 -1.4337
   78SLPC   C23 7119   1.974   5.084   5.918  0.1501  0.3385 -0.3089
   78SLPC   H3R 7120   2.002   5.182   5.874  1.4434  1.4521  2.7520
   78SLPC   H3S 7121   1.866   5.057   5.922  0.6462 -1.7469  0.2867
   78SLPC   C24 7122   2.048   4.962   5.847 -0.6452  0.4187 -0.3555
   78SLPC   H4R 7123   2.030   4.874   5.913  0.9931  2.0131  2.4080
   78SLPC   H4S 7124   2.158   4.973   5.857 -0.2133 -3.3089  0.4054
   78SLPC   C25 7125   2.010   4.942   5.697  0.1527  0.9888  0.0653
   78SLPC   H5R 7126   1.902   4.962   5.680  0.1152  0.4980 -0.2984
   78SLPC   H5S 7127   2.013   4.833   5.675 -0.9478 -0.0369  4.1168
   78SLPC   C26 7128   2.096   5.018   5.607 -0.2447  0.0858 -0.8416
   78SLPC   H6R 7129   2.197   4.973   5.615 -0.0702  0.5488 -0.4279
   78SLPC   H6S 7130   2.095   5.125   5.637 -2.1930  0.0845 -0.7898
   78SLPC   C27 7131   2.044   5.002   5.466  0.1196 -0.2731  0.0542
   78SLPC   H7R 7132   1.938   5.033   5.452 -0.2660 -1.3039  0.5624
   78SLPC   H7S 7133   2.041   4.893   5.445  0.7597 -0.0851 -1.1173
   78SLPC   C28 7134   2.138   5.056   5.350 -0.5127  0.6655 -1.2554
   78SLPC   H8R 7135   2.216   4.977   5.347 -1.1061 -0.1509  1.6047
   78SLPC   H8S 7136   2.193   5.146   5.385  0.5130 -1.5361  3.6223
   78SLPC   C29 7137   2.059   5.068   5.223 -0.0966  0.2242 -0.1783
   78SLPC   H9R 7138   1.962   5.118   5.231 -0.3580  0.0831 -2.0090
   78SLPC  C210 7139   2.097   5.041   5.101  0.3274 -0.1469 -0.3189
   78SLPC  H10R 7140   2.025   5.048   5.019  0.7872 -0.8549 -0.7969
   78SLPC  C211 7141   2.223   4.983   5.053 -0.2399  0.4562  0.7711
   78SLPC  H11R 7142   2.295   4.964   5.136 -0.1483 -0.7400  0.4333
   78SLPC  H11S 7143   2.283   5.054   4.992 -0.6778  1.7061  1.7278
   78SLPC  C212 7144   2.210   4.846   4.987  0.5829 -0.5487 -0.6121
   78SLPC  H12R 7145   2.201   4.754   5.046  2.4634 -1.0902 -1.0802
   78SLPC  C213 7146   2.182   4.823   4.858 -0.3112  0.1453 -0.7305
   78SLPC  H13R 7147   2.168   4.720   4.825 -0.0941 -1.1356  2.7519
   78SLPC  C214 7148   2.175   4.930   4.755 -0.0369  0.4851  0.0183
   78SLPC  H14R 7149   2.238   4.900   4.668 -0.6295 -1.1888  0.1342
   78SLPC  H14S 7150   2.201   5.029   4.798 -1.5972  0.3872  1.2483
   78SLPC  C215 7151   2.034   4.931   4.696  0.0007 -0.5402  0.8363
   78SLPC  H15R 7152   2.026   5.017   4.625  1.3345  0.0406  1.3497
   78SLPC  H15S 7153   1.966   4.945   4.782 -1.0810  1.1852 -0.2497
   78SLPC  C216 7154   2.000   4.799   4.620  0.6270  0.0017  0.3107
   78SLPC  H16R 7155   2.003   4.718   4.696  2.1858 -0.6033 -0.3573
   78SLPC  H16S 7156   2.081   4.770   4.549 -0.5996  1.0230 -1.5797
   78SLPC  C217 7157   1.855   4.809   4.560  0.2142  0.9109 -0.1343
   78SLPC  H17R 7158   1.841   4.748   4.468 -0.9193  0.1962  0.5017
   78SLPC  H17S 7159   1.846   4.913   4.522  0.4654  0.5878 -1.1144
   78SLPC  C218 7160   1.744   4.784   4.663 -0.0828  0.6694 -0.3041
   78SLPC  H18R 7161   1.655   4.736   4.616  0.5153 -0.1347 -0.6373
   78SLPC  H18S 7162   1.718   4.878   4.715 -1.8290  0.3203 -0.4807
   78SLPC  H18T 7163   1.768   4.701   4.733  0.3439  0.0849 -1.1263
   78SLPC   C33 7164   2.500   5.120   5.694 -0.3874 -0.4947 -0.5083
   78SLPC   H3X 7165   2.586   5.057   5.725  0.5086  1.0784  0.3431
   78SLPC   H3Y 7166   2.543   5.222   5.680  1.4629 -0.9746  1.1614
   78SLPC   C34 7167   2.450   5.070   5.557  0.0741  1.1203  0.1043
   78SLPC   H4X 7168   2.353   5.117   5.530  0.3412  1.1318 -0.8633
   78SLPC   H4Y 7169   2.426   4.962   5.555  2.4692  0.5570 -0.6048
   78SLPC   C35 7170   2.556   5.096   5.442  0.1593  0.1638  0.1137
   78SLPC   H5X 7171   2.646   5.036   5.468 -1.1531 -2.1327 -0.4086
   78SLPC   H5Y 7172   2.586   5.203   5.439  2.4490 -0.4370 -0.7305
   78SLPC   C36 7173   2.525   5.041   5.300  0.4291 -0.9797 -0.0324
   78SLPC   H6X 7174   2.452   5.116   5.261  0.3315 -1.2353 -0.3510
   78SLPC   H6Y 7175   2.477   4.941   5.305 -0.2851 -0.7250 -1.2480
   78SLPC   C37 7176   2.639   5.041   5.204  0.3357  1.2165  0.4551
   78SLPC   H7X 7177   2.710   4.960   5.229  1.2228  2.1446  1.0571
   78SLPC   H7Y 7178   2.691   5.140   5.204  3.6755 -0.3919 -0.1869
   78SLPC   C38 7179   2.602   5.031   5.056 -0.2153 -0.1089  0.2686
   78SLPC   H8X 7180   2.535   5.117   5.033 -0.1772 -0.4548 -1.2589
   78SLPC   H8Y 7181   2.538   4.940   5.049 -0.2468 -0.1802  1.3887
   78SLPC   C39 7182   2.717   5.013   4.964 -0.1125 -0.5646  0.1472
   78SLPC   H9X 7183   2.782   4.928   4.993 -1.6056 -1.1035  2.1387
   78SLPC   H9Y 7184   2.780   5.104   4.956 -0.4416 -0.2611  0.8849
   78SLPC  C310 7185   2.686   4.987   4.815  0.0406 -0.7212  0.8837
   78SLPC  H10X 7186   2.603   4.914   4.824 -0.4710 -0.2729 -0.0366
   78SLPC  H10Y 7187   2.760   4.928   4.758  0.0805 -0.2652  0.4567
   78SLPC  C311 7188   2.613   5.107   4.738  0.3945 -0.8823  0.3154
   78SLPC  H11X 7189   2.687   5.186   4.709 -1.7644  0.5096 -1.7096
   78SLPC  H11Y 7190   2.541   5.152   4.809 -1.6976 -1.8250 -1.1316
   78SLPC  C312 7191   2.540   5.072   4.614  0.1323  0.7451 -0.0718
   78SLPC  H12X 7192   2.481   4.980   4.635 -0.5570  0.8166 -1.5326
   78SLPC  H12Y 7193   2.606   5.044   4.529 -0.4401  0.0153 -0.2890
   78SLPC  C313 7194   2.450   5.193   4.566  0.6941  0.0342 -0.6693
   78SLPC  H13X 7195   2.523   5.269   4.530 -0.0484  0.9940 -0.2119
   78SLPC  H13Y 7196   2.396   5.231   4.656 -2.7278 -4.1299 -0.6354
   78SLPC  C314 7197   2.346   5.156   4.461 -0.2388 -0.6606 -0.4702
   78SLPC  H14X 7198   2.291   5.067   4.498  1.1434 -1.1833  0.3745
   78SLPC  H14Y 7199   2.399   5.118   4.371 -0.5590  0.2329 -1.0540
   78SLPC  C315 7200   2.254   5.272   4.441 -0.9388 -0.7054 -0.5189
   78SLPC  H15X 7201   2.306   5.362   4.402 -2.9383  0.7950  0.1320
   78SLPC  H15Y 7202   2.212   5.294   4.542  2.2332  1.8001  0.4227
   78SLPC  C316 7203   2.150   5.259   4.333  0.8685 -0.0064  0.0167
   78SLPC  H16X 7204   2.184   5.214   4.238  0.9582  1.4741 -0.6826
   78SLPC  H16Y 7205   2.117   5.361   4.304  1.5091  0.9520  2.4133
   78SLPC  C317 7206   2.023   5.179   4.378  0.3616 -0.5175  1.1187
   78SLPC  H17X 7207   1.986   5.234   4.467 -1.6783 -1.3462  0.8393
   78SLPC  H17Y 7208   2.041   5.072   4.401 -1.7169 -1.1034  0.2809
   78SLPC  C318 7209   1.905   5.182   4.282  0.2661  0.2247  0.0253
   78SLPC  H18X 7210   1.887   5.287   4.250 -1.9081  0.0301  0.4719
   78SLPC  H18Y 7211   1.810   5.142   4.322 -0.5191 -0.4642 -2.3786
   78SLPC  H18Z 7212   1.934   5.125   4.191  0.4296  0.3301  0.0097
   79SLPC     N 7213   1.527   6.624   7.360 -0.0877  0.2848  0.1647
   79SLPC   C13 7214   1.638   6.708   7.416 -0.1397 -0.2460 -0.0056
   79SLPC  H13A 7215   1.674   6.777   7.341  0.4429 -1.0682 -0.5043
   79SLPC  H13B 7216   1.602   6.767   7.499 -1.4861 -1.1679  0.0897
   79SLPC  H13C 7217   1.716   6.637   7.442  0.0546  1.1795  3.8964
   79SLPC   C14 7218   1.419   6.718   7.308  0.2484  0.7322 -0.0801
   79SLPC  H14A 7219   1.322   6.675   7.291 -0.2418  1.7557  0.0686
   79SLPC  H14B 7220   1.392   6.803   7.368 -0.0243  2.1393 -2.0697
   79SLPC  H14C 7221   1.458   6.767   7.220 -0.1616 -3.1873 -2.7169
   79SLPC   C15 7222   1.469   6.545   7.462 -0.1073 -0.7745 -0.4356
   79SLPC  H15A 7223   1.534   6.478   7.516 -1.9750 -1.8505  0.5532
   79SLPC  H15B 7224   1.436   6.612   7.540  1.2979 -0.9772  0.3675
   79SLPC  H15C 7225   1.380   6.489   7.438 -0.8765  0.8514 -1.6134
   79SLPC   C12 7226   1.578   6.545   7.233 -0.2000  0.4361  0.0991
   79SLPC  H12A 7227   1.511   6.464   7.207 -2.0748  1.8553  0.2698
   79SLPC  H12B 7228   1.666   6.488   7.259 -1.2671 -1.6722 -0.6844
   79SLPC   C11 7229   1.610   6.630   7.105 -0.1864 -0.5325  0.5019
   79SLPC  H11A 7230   1.508   6.657   7.070  0.5537  1.8044 -0.0241
   79SLPC  H11B 7231   1.664   6.568   7.029  0.9542  1.4930 -0.4306
   79SLPC     P 7232   1.695   6.873   7.043 -0.2654 -0.5787  0.1518
   79SLPC   O13 7233   1.562   6.934   7.077 -1.0898 -0.1417  0.5456
   79SLPC   O14 7234   1.819   6.952   7.076  0.2373  0.3533 -0.3369
   79SLPC   O12 7235   1.700   6.742   7.120 -0.1945  0.0606  0.2211
   79SLPC   O11 7236   1.705   6.832   6.894 -0.0144  0.5550 -0.1315
   79SLPC    C1 7237   1.664   6.933   6.793  0.0214  0.8453  0.3745
   79SLPC    HA 7238   1.640   7.031   6.838  0.6485  2.0236 -1.7382
   79SLPC    HB 7239   1.743   6.963   6.721  1.2607 -0.4005  1.1578
   79SLPC    C2 7240   1.557   6.876   6.700  0.1644 -0.0050 -0.7019
   79SLPC    HS 7241   1.475   6.857   6.773 -0.0638  2.4483 -0.2239
   79SLPC   O21 7242   1.611   6.765   6.632 -0.8233  0.0163  0.2926
   79SLPC   C21 7243   1.530   6.671   6.585 -1.0769  0.6073 -0.4050
   79SLPC   O22 7244   1.419   6.649   6.622 -0.2259  0.9631 -0.1190
   79SLPC   C22 7245   1.602   6.588   6.468  0.0497  0.3767 -0.9230
   79SLPC   H2R 7246   1.691   6.545   6.518 -0.0338 -0.9471 -1.8696
   79SLPC   H2S 7247   1.531   6.506   6.442 -2.1680 -0.0165  4.7861
   79SLPC    C3 7248   1.509   6.984   6.597 -0.0748 -0.3841  0.2220
   79SLPC    HX 7249   1.599   7.011   6.538 -0.2922 -1.7265 -0.7912
   79SLPC    HY 7250   1.475   7.079   6.642  0.4902  0.6154 -1.4021
   79SLPC   O31 7251   1.403   6.930   6.515 -0.0786 -0.0025 -0.3069
   79SLPC   C31 7252   1.347   7.009   6.427  0.2133  0.5311 -0.7266
   79SLPC   O32 7253   1.371   7.128   6.415 -0.0993  0.5724 -0.1255
   79SLPC   C32 7254   1.227   6.932   6.363  0.1582  0.0700 -0.7315
   79SLPC   H2X 7255   1.150   6.911   6.440  1.0484 -2.1216 -0.3704
   79SLPC   H2Y 7256   1.267   6.841   6.314  2.0676  0.5516 -0.1530
   79SLPC   C23 7257   1.637   6.659   6.339  0.2531 -0.3193  0.2417
   79SLPC   H3R 7258   1.727   6.618   6.289  0.5321  1.5238 -0.8270
   79SLPC   H3S 7259   1.650   6.766   6.363  0.1608 -0.7163  2.2160
   79SLPC   C24 7260   1.526   6.632   6.238  0.3851 -0.3071 -0.5559
   79SLPC   H4R 7261   1.434   6.647   6.299  1.0575 -1.6930  0.8447
   79SLPC   H4S 7262   1.532   6.528   6.200  1.9816  0.9339 -4.0938
   79SLPC   C25 7263   1.529   6.725   6.120 -0.1629  0.2707  0.0462
   79SLPC   H5R 7264   1.627   6.736   6.069 -0.7732 -0.7270 -1.3911
   79SLPC   H5S 7265   1.506   6.828   6.155  1.5642  0.6134  0.2710
   79SLPC   C26 7266   1.418   6.693   6.019  0.3627  0.4460  0.8213
   79SLPC   H6R 7267   1.321   6.697   6.073  1.4601  2.3981  2.8340
   79SLPC   H6S 7268   1.421   6.593   5.971 -2.0350  0.4706  0.4796
   79SLPC   C27 7269   1.408   6.800   5.905 -0.5481 -0.4379 -0.6229
   79SLPC   H7R 7270   1.512   6.805   5.867 -0.1400 -1.1694  0.3571
   79SLPC   H7S 7271   1.381   6.895   5.956  2.1169  0.3325 -0.5243
   79SLPC   C28 7272   1.325   6.760   5.781 -0.9561 -0.1719  0.1042
   79SLPC   H8R 7273   1.300   6.846   5.715  3.1551  1.5366  0.5188
   79SLPC   H8S 7274   1.229   6.718   5.820  0.5346 -3.9294  0.1803
   79SLPC   C29 7275   1.386   6.646   5.695 -0.0528  0.7248  0.5755
   79SLPC   H9R 7276   1.407   6.553   5.749 -0.8349 -1.0825 -2.0457
   79SLPC  C210 7277   1.399   6.654   5.562  0.4315 -0.6626 -0.0654
   79SLPC  H10R 7278   1.432   6.567   5.505  0.7045 -0.0270 -0.9039
   79SLPC  C211 7279   1.376   6.780   5.474 -0.1255 -0.0725  0.5250
   79SLPC  H11R 7280   1.467   6.779   5.411  0.7363  0.4574  1.7142
   79SLPC  H11S 7281   1.384   6.872   5.536  2.1095 -1.0882  1.8834
   79SLPC  C212 7282   1.250   6.758   5.402  0.0768  0.4995  0.1578
   79SLPC  H12R 7283   1.161   6.801   5.450 -1.2227 -2.3001  0.4914
   79SLPC  C213 7284   1.220   6.684   5.292  0.2441 -0.2450  0.3849
   79SLPC  H13R 7285   1.117   6.688   5.253  0.0277 -0.1868  0.9544
   79SLPC  C214 7286   1.311   6.587   5.220 -0.1321 -0.7995 -0.2923
   79SLPC  H14R 7287   1.251   6.505   5.175 -1.0821 -0.1862 -0.1639
   79SLPC  H14S 7288   1.369   6.533   5.298 -1.0907 -1.3228  0.0760
   79SLPC  C215 7289   1.395   6.659   5.112 -0.2678 -0.0719  0.1858
   79SLPC  H15R 7290   1.474   6.712   5.169 -1.4182  0.9799  0.8555
   79SLPC  H15S 7291   1.337   6.743   5.068  0.1659  1.8425  2.9868
   79SLPC  C216 7292   1.455   6.567   5.003  0.2310 -0.1912  0.1154
   79SLPC  H16R 7293   1.509   6.480   5.046 -0.7374 -0.1890  1.3785
   79SLPC  H16S 7294   1.536   6.622   4.949 -0.3178 -1.8602 -2.6002
   79SLPC  C217 7295   1.353   6.521   4.902 -0.1527  1.1389  0.1561
   79SLPC  H17R 7296   1.287   6.602   4.864 -0.3472  0.5181 -0.8637
   79SLPC  H17S 7297   1.288   6.448   4.956 -0.9015  1.1263 -0.7384
   79SLPC  C218 7298   1.409   6.435   4.783  0.0557  0.2746 -0.3318
   79SLPC  H18R 7299   1.319   6.390   4.735 -1.4480  1.0475  1.6455
   79SLPC  H18S 7300   1.477   6.355   4.821 -0.3956 -0.3687 -0.8668
   79SLPC  H18T 7301   1.465   6.499   4.711 -1.4669  1.5855 -0.3919
   79SLPC   C33 7302   1.148   7.015   6.262  0.0475 -0.0390 -0.3159
   79SLPC   H3X 7303   1.136   7.113   6.313  0.5755 -0.2525  0.2427
   79SLPC   H3Y 7304   1.045   6.973   6.259  0.3030 -0.6224 -1.2041
   79SLPC   C34 7305   1.192   7.020   6.125  0.5404 -0.4725 -0.3213
   79SLPC   H4X 7306   1.178   6.915   6.089 -1.5501  0.3707 -2.2112
   79SLPC   H4Y 7307   1.297   7.056   6.127  0.3859  0.1746 -2.0919
   79SLPC   C35 7308   1.122   7.116   6.025 -0.3939  0.2674 -0.9047
   79SLPC   H5X 7309   1.167   7.215   6.052  0.6613 -0.0587 -1.4094
   79SLPC   H5Y 7310   1.012   7.111   6.041 -0.3064  1.1089  0.0842
   79SLPC   C36 7311   1.138   7.058   5.886 -0.2059 -0.1892  0.6501
   79SLPC   H6X 7312   1.114   6.950   5.899  0.0283 -0.2465  0.6204
   79SLPC   H6Y 7313   1.244   7.066   5.855 -0.3359 -1.5530 -0.2194
   79SLPC   C37 7314   1.043   7.124   5.777 -0.2181  0.2618  0.4184
   79SLPC   H7X 7315   1.051   7.235   5.785 -0.0202  0.2957 -0.2059
   79SLPC   H7Y 7316   0.937   7.097   5.795 -0.4908 -0.4016 -1.8652
   79SLPC   C38 7317   1.069   7.069   5.635 -0.2253  0.1276 -0.0710
   79SLPC   H8X 7318   1.044   6.962   5.615 -2.2979  0.7193 -0.8751
   79SLPC   H8Y 7319   1.178   7.088   5.624 -0.2195  0.7852  0.9656
   79SLPC   C39 7320   1.010   7.156   5.535  0.7518  0.0642  0.1003
   79SLPC   H9X 7321   1.036   7.263   5.550  1.1697 -0.0735  0.3830
   79SLPC   H9Y 7322   0.903   7.129   5.528  0.3393  1.6941 -0.4022
   79SLPC  C310 7323   1.061   7.112   5.401  0.1473 -0.6848 -0.0690
   79SLPC  H10X 7324   1.042   7.003   5.393  0.8155 -0.8990  0.9838
   79SLPC  H10Y 7325   1.170   7.133   5.396 -0.0906  0.9039  0.5261
   79SLPC  C311 7326   1.002   7.204   5.288  0.1890  0.2309  0.7567
   79SLPC  H11X 7327   1.074   7.197   5.204  1.2351  2.4274  1.4069
   79SLPC  H11Y 7328   1.007   7.311   5.318  2.9347  0.4333 -0.1916
   79SLPC  C312 7329   0.868   7.159   5.235 -0.1263 -0.5492 -1.1177
   79SLPC  H12X 7330   0.787   7.180   5.308  0.0668  2.4037 -1.6167
   79SLPC  H12Y 7331   0.868   7.050   5.218 -0.0350 -0.2259 -3.4779
   79SLPC  C313 7332   0.822   7.226   5.103  0.1242 -0.4065  0.4125
   79SLPC  H13X 7333   0.812   7.336   5.115 -0.5425 -0.4096 -0.1027
   79SLPC  H13Y 7334   0.724   7.190   5.066 -0.7586  0.6542  1.6215
   79SLPC  C314 7335   0.922   7.229   4.990  0.1490  0.0735 -0.0179
   79SLPC  H14X 7336   0.978   7.135   4.968  1.4516  0.8852 -0.2648
   79SLPC  H14Y 7337   1.004   7.303   4.999 -1.9060  2.3219  1.5290
   79SLPC  C315 7338   0.847   7.263   4.856 -0.2071 -0.6567  0.1505
   79SLPC  H15X 7339   0.758   7.197   4.851  0.5851 -1.7150 -3.9341
   79SLPC  H15Y 7340   0.923   7.244   4.777 -0.9563  0.0387 -0.7699
   79SLPC  C316 7341   0.804   7.413   4.847 -0.5192  0.5709  0.0642
   79SLPC  H16X 7342   0.880   7.477   4.897 -0.0451 -1.0811  1.5717
   79SLPC  H16Y 7343   0.707   7.418   4.901 -0.8074  2.4237 -0.5642
   79SLPC  C317 7344   0.767   7.454   4.702  0.2076  0.1365 -0.6447
   79SLPC  H17X 7345   0.864   7.472   4.651  0.7299 -0.6668  0.0461
   79SLPC  H17Y 7346   0.716   7.550   4.722  1.3725  1.1882 -2.4475
   79SLPC  C318 7347   0.686   7.363   4.617  0.9470  0.0057 -0.4166
   79SLPC  H18X 7348   0.653   7.415   4.524 -1.0934  0.1240  0.3283
   79SLPC  H18Y 7349   0.592   7.347   4.674 -0.5715  2.6186 -1.9556
   79SLPC  H18Z 7350   0.724   7.264   4.584 -1.9995 -0.6087 -2.3066
   80SLPC     N 7351   4.822   4.140   7.022 -0.0208 -0.1258 -0.3927
   80SLPC   C13 7352   4.794   4.000   7.041  0.0612 -0.4680  0.1126
   80SLPC  H13A 7353   4.688   3.986   7.025  0.2652 -1.4612 -0.4563
   80SLPC  H13B 7354   4.844   3.939   6.967  1.0178 -0.3219  0.6308
   80SLPC  H13C 7355   4.819   3.966   7.140 -0.8252  2.3454  1.3977
   80SLPC   C14 7356   4.954   4.160   7.089  0.0010  0.0206  0.0269
   80SLPC  H14A 7357   5.032   4.114   7.031 -0.6339 -1.0219 -0.0375
   80SLPC  H14B 7358   4.967   4.266   7.107 -2.0382  0.0424  1.7788
   80SLPC  H14C 7359   4.952   4.120   7.189 -2.6248 -0.0104  0.0331
   80SLPC   C15 7360   4.719   4.224   7.086 -0.2259 -0.6459 -0.5810
   80SLPC  H15A 7361   4.717   4.202   7.192  2.0603 -3.2008 -0.9767
   80SLPC  H15B 7362   4.733   4.329   7.068 -3.1847  0.1333  0.9551
   80SLPC  H15C 7363   4.617   4.214   7.051 -0.7707 -0.8998  0.9900
   80SLPC   C12 7364   4.829   4.175   6.870  0.3705  0.1866 -0.6458
   80SLPC  H12A 7365   4.839   4.282   6.875  4.5831 -0.0406 -0.6735
   80SLPC  H12B 7366   4.739   4.160   6.813  1.1834  0.0870 -1.9455
   80SLPC   C11 7367   4.951   4.129   6.786 -0.5869  0.0565 -0.0169
   80SLPC  H11A 7368   5.041   4.177   6.830 -1.7831 -0.3045  3.0850
   80SLPC  H11B 7369   4.937   4.157   6.679  0.3544 -0.8735 -0.3968
   80SLPC     P 7370   5.085   3.904   6.798  0.1527  0.4036 -0.2807
   80SLPC   O13 7371   5.200   3.994   6.838  0.5471 -0.0798 -0.2007
   80SLPC   O14 7372   5.067   3.777   6.868  0.3069  0.4743 -0.2622
   80SLPC   O12 7373   4.948   3.987   6.792 -0.1556  0.1163 -0.3462
   80SLPC   O11 7374   5.092   3.868   6.639 -0.6116 -0.2132 -0.6832
   80SLPC    C1 7375   4.969   3.833   6.576  0.4421  0.0214  0.3248
   80SLPC    HA 7376   4.917   3.749   6.626 -3.6807  1.8410 -0.4469
   80SLPC    HB 7377   4.899   3.919   6.570  0.4641 -0.0532 -3.4631
   80SLPC    C2 7378   4.999   3.804   6.424  1.4875 -0.4706 -0.1970
   80SLPC    HS 7379   5.035   3.899   6.379 -0.7306  0.0419 -1.0225
   80SLPC   O21 7380   4.878   3.747   6.366  0.1226 -0.3737  0.4219
   80SLPC   C21 7381   4.853   3.767   6.243 -0.1757 -0.2125  0.7010
   80SLPC   O22 7382   4.910   3.854   6.171 -0.3919  0.6210  0.4322
   80SLPC   C22 7383   4.750   3.670   6.196  0.2631  0.2497  0.2751
   80SLPC   H2R 7384   4.654   3.693   6.245  0.3421  0.6700  0.2372
   80SLPC   H2S 7385   4.735   3.674   6.086  2.3176  1.5254 -0.0343
   80SLPC    C3 7386   5.105   3.696   6.402  0.2940  0.1046  0.1125
   80SLPC    HX 7387   5.064   3.602   6.445 -1.3226  0.2627 -1.0242
   80SLPC    HY 7388   5.194   3.726   6.463  0.6410  0.6211 -0.6408
   80SLPC   O31 7389   5.138   3.674   6.266  0.4994 -0.4655  0.4927
   80SLPC   C31 7390   5.250   3.616   6.235  0.6366 -0.0344  0.6239
   80SLPC   O32 7391   5.331   3.577   6.316 -0.2467  0.1125 -0.0026
   80SLPC   C32 7392   5.249   3.603   6.080  0.3496 -0.2076  0.4960
   80SLPC   H2X 7393   5.315   3.682   6.036  2.7679 -1.9100  0.8820
   80SLPC   H2Y 7394   5.147   3.612   6.037 -0.4372  1.2986  2.4914
   80SLPC   C23 7395   4.786   3.525   6.221  0.4033  0.3763 -0.5498
   80SLPC   H3R 7396   4.697   3.471   6.260  1.3523 -1.8294 -1.2785
   80SLPC   H3S 7397   4.879   3.517   6.281  1.6734  0.6037 -2.3927
   80SLPC   C24 7398   4.833   3.455   6.096 -0.1957  0.4178  0.2148
   80SLPC   H4R 7399   4.915   3.507   6.040 -0.7013 -1.5766 -2.5920
   80SLPC   H4S 7400   4.756   3.449   6.016 -0.1508  0.6884  0.1508
   80SLPC   C25 7401   4.872   3.312   6.139  0.5404 -0.0009  0.6603
   80SLPC   H5R 7402   4.783   3.251   6.166  1.0325 -0.8057  0.4877
   80SLPC   H5S 7403   4.938   3.325   6.228  0.3005  0.5885  0.7589
   80SLPC   C26 7404   4.947   3.236   6.025  0.3573  0.9341  0.0444
   80SLPC   H6R 7405   5.019   3.301   5.970 -0.2047 -0.0244 -1.9440
   80SLPC   H6S 7406   4.880   3.207   5.941  3.3981  1.2373 -2.7127
   80SLPC   C27 7407   5.018   3.114   6.076  0.1387  0.0411 -0.7317
   80SLPC   H7R 7408   4.946   3.060   6.141  0.6001 -0.1578 -0.3731
   80SLPC   H7S 7409   5.101   3.138   6.146 -0.0450  1.1679 -0.8756
   80SLPC   C28 7410   5.059   3.015   5.959 -0.6576  0.2184 -0.5949
   80SLPC   H8R 7411   5.143   3.059   5.901 -0.1990  1.0472  0.6527
   80SLPC   H8S 7412   4.973   2.996   5.891 -1.6687  0.6754  0.5140
   80SLPC   C29 7413   5.103   2.887   6.029 -0.0204  0.3850 -0.1871
   80SLPC   H9R 7414   5.188   2.901   6.098  0.0445  0.2094 -0.2311
   80SLPC  C210 7415   5.034   2.767   6.027  0.6029 -0.2431  0.1150
   80SLPC  H10R 7416   5.081   2.679   6.073  2.7068  0.3613 -0.7354
   80SLPC  C211 7417   4.910   2.744   5.949 -0.7907  0.5911 -0.4653
   80SLPC  H11R 7418   4.839   2.826   5.971 -1.4002  0.1609 -0.7958
   80SLPC  H11S 7419   4.866   2.651   5.993 -0.4742  0.3108 -0.7317
   80SLPC  C212 7420   4.948   2.727   5.806  0.2624  0.1013  0.4222
   80SLPC  H12R 7421   5.023   2.647   5.794  2.1705  1.7908  0.6490
   80SLPC  C213 7422   4.892   2.798   5.702  0.6001  0.5933  0.1812
   80SLPC  H13R 7423   4.928   2.785   5.599 -0.9652  2.2672 -0.6376
   80SLPC  C214 7424   4.792   2.912   5.704  0.0827 -1.3161  0.6061
   80SLPC  H14R 7425   4.764   2.957   5.802 -1.8419  1.1910 -0.9586
   80SLPC  H14S 7426   4.697   2.904   5.648 -0.4809  1.6402  0.9591
   80SLPC  C215 7427   4.863   3.034   5.628 -0.0511  0.4964  0.4257
   80SLPC  H15R 7428   4.859   3.001   5.522 -1.4415 -2.6660  1.3263
   80SLPC  H15S 7429   4.964   3.055   5.670  1.0518  1.5325 -2.4943
   80SLPC  C216 7430   4.781   3.158   5.640 -0.6442  0.3463 -0.7705
   80SLPC  H16R 7431   4.795   3.187   5.747  1.9800  0.2462 -1.0085
   80SLPC  H16S 7432   4.673   3.141   5.622 -0.8477 -0.6101  1.1069
   80SLPC  C217 7433   4.830   3.276   5.560  0.4000 -0.4755  0.6723
   80SLPC  H17R 7434   4.817   3.261   5.451  2.2520  0.4417  0.2835
   80SLPC  H17S 7435   4.938   3.284   5.586  0.8534 -2.5356 -0.3195
   80SLPC  C218 7436   4.758   3.410   5.591 -0.6773  0.5261  0.3219
   80SLPC  H18R 7437   4.802   3.482   5.519 -2.5889  1.3662 -0.0711
   80SLPC  H18S 7438   4.760   3.446   5.696 -0.8923 -0.6377  0.7365
   80SLPC  H18T 7439   4.651   3.403   5.562 -0.9001  0.1954  1.1997
   80SLPC   C33 7440   5.308   3.465   6.041  0.3271 -0.0640  0.1090
   80SLPC   H3X 7441   5.255   3.382   6.094 -0.3488 -0.3884 -1.0472
   80SLPC   H3Y 7442   5.413   3.472   6.077  0.9119 -1.2834 -1.2219
   80SLPC   C34 7443   5.301   3.432   5.891 -0.2125  0.4993 -0.2474
   80SLPC   H4X 7444   5.201   3.465   5.857  0.0609  0.6796 -0.8964
   80SLPC   H4Y 7445   5.310   3.321   5.883  2.1921  0.5000  1.2808
   80SLPC   C35 7446   5.404   3.501   5.801  0.1497 -0.6213  0.1444
   80SLPC   H5X 7447   5.503   3.459   5.827  0.4249 -0.8191 -1.1742
   80SLPC   H5Y 7448   5.407   3.611   5.815  0.8986 -0.3102 -2.0976
   80SLPC   C36 7449   5.373   3.469   5.648  0.0678 -0.3703 -0.7896
   80SLPC   H6X 7450   5.358   3.359   5.644  2.8535 -0.7993 -1.8617
   80SLPC   H6Y 7451   5.464   3.470   5.585  0.3879 -2.4314 -0.4186
   80SLPC   C37 7452   5.267   3.560   5.583 -0.3864 -0.3721 -0.1281
   80SLPC   H7X 7453   5.310   3.657   5.549 -5.1231  1.1364 -2.7648
   80SLPC   H7Y 7454   5.187   3.586   5.657  1.2241  1.8539  0.9656
   80SLPC   C38 7455   5.220   3.486   5.460  0.0853  0.0002  0.5029
   80SLPC   H8X 7456   5.173   3.396   5.504 -1.4905 -0.5751 -2.1380
   80SLPC   H8Y 7457   5.301   3.441   5.399 -0.3014  0.6501 -0.5296
   80SLPC   C39 7458   5.110   3.552   5.383  0.0518  0.0531  0.3443
   80SLPC   H9X 7459   5.151   3.630   5.316 -1.9947  0.3323 -0.6769
   80SLPC   H9Y 7460   5.048   3.606   5.458  0.9822  0.7370  0.6374
   80SLPC  C310 7461   5.020   3.453   5.303  0.2982 -0.2367  0.2623
   80SLPC  H10X 7462   4.934   3.514   5.269 -1.2533 -1.0648  2.4032
   80SLPC  H10Y 7463   4.982   3.371   5.368  1.1789  1.0132  2.4582
   80SLPC  C311 7464   5.091   3.393   5.182  0.5581 -0.7686 -0.1433
   80SLPC  H11X 7465   5.178   3.332   5.217  0.1812 -0.1436  2.0137
   80SLPC  H11Y 7466   5.133   3.478   5.125  2.8561 -1.1237  0.8927
   80SLPC  C312 7467   5.009   3.313   5.088 -0.7825 -0.6056 -0.0879
   80SLPC  H12X 7468   4.928   3.381   5.053 -0.7227 -0.2525  0.4426
   80SLPC  H12Y 7469   4.953   3.229   5.134  0.0798  0.8016  3.9579
   80SLPC  C313 7470   5.092   3.262   4.971  0.4307 -0.1906 -0.0717
   80SLPC  H13X 7471   5.177   3.196   4.999  0.1744 -0.3644  0.3052
   80SLPC  H13Y 7472   5.135   3.355   4.927 -0.5482 -0.4645 -1.6842
   80SLPC  C314 7473   5.010   3.190   4.861 -0.0639  0.0382 -0.3997
   80SLPC  H14X 7474   4.924   3.249   4.822 -0.7275 -0.3444  0.4479
   80SLPC  H14Y 7475   4.962   3.099   4.903  0.6275  0.4109  1.2775
   80SLPC  C315 7476   5.095   3.141   4.739 -0.0169  1.0519 -0.7892
   80SLPC  H15X 7477   5.027   3.081   4.675 -1.7032  2.3180 -0.2609
   80SLPC  H15Y 7478   5.173   3.075   4.784 -1.2567 -0.3562 -0.6279
   80SLPC  C316 7479   5.154   3.255   4.659  0.8901 -0.2815 -0.4279
   80SLPC  H16X 7480   5.217   3.306   4.735  2.1348 -0.4306 -1.3235
   80SLPC  H16Y 7481   5.079   3.328   4.622  1.3795  1.2799  1.4781
   80SLPC  C317 7482   5.236   3.194   4.545 -0.2721 -0.8301 -0.2028
   80SLPC  H17X 7483   5.321   3.151   4.602  0.0547  1.5552  1.2686
   80SLPC  H17Y 7484   5.273   3.273   4.476  1.2131 -1.7588 -0.5283
   80SLPC  C318 7485   5.162   3.091   4.456 -0.7940  0.2982  0.5758
   80SLPC  H18X 7486   5.212   3.074   4.358  1.3771  0.1139  1.6539
   80SLPC  H18Y 7487   5.055   3.117   4.442 -1.2708 -0.5014  2.4143
   80SLPC  H18Z 7488   5.167   2.993   4.509 -1.0419 -0.5633 -0.9282
   81SLPC     N 7489   5.233   0.005   1.675 -0.3328  0.3823  0.2492
   81SLPC   C13 7490   5.112   0.036   1.594 -0.5573  0.0072 -0.1614
   81SLPC  H13A 7491   5.105   0.144   1.593 -0.1486  0.0440  0.5597
   81SLPC  H13B 7492   5.113  -0.007   1.495 -1.8086 -0.8774  0.2001
   81SLPC  H13C 7493   5.022   0.003   1.642  0.5550 -1.0549  1.2905
   81SLPC   C14 7494   5.352   0.067   1.610 -0.2282  0.3631  0.2602
   81SLPC  H14A 7495   5.368   0.005   1.523 -0.7405  0.9156 -0.2338
   81SLPC  H14B 7496   5.337   0.172   1.592  0.9071  0.9982  2.6000
   81SLPC  H14C 7497   5.441   0.056   1.670 -0.4781  1.6648  0.8999
   81SLPC   C15 7498   5.254  -0.140   1.678 -0.2461  0.4774 -0.5183
   81SLPC  H15A 7499   5.316  -0.157   1.764 -1.5474  0.1495  0.3830
   81SLPC  H15B 7500   5.169  -0.207   1.690 -0.3357  0.6606 -0.1365
   81SLPC  H15C 7501   5.306  -0.177   1.591 -0.2239 -1.1716  0.1567
   81SLPC   C12 7502   5.206   0.064   1.813  0.1257  0.4798  0.1619
   81SLPC  H12A 7503   5.200   0.171   1.804 -1.0865  0.3329 -1.1662
   81SLPC  H12B 7504   5.292   0.044   1.876  0.9462  1.3461 -0.6319
   81SLPC   C11 7505   5.088  -0.003   1.895 -0.0992 -0.0850  0.3025
   81SLPC  H11A 7506   5.078   0.038   1.998 -1.0861 -2.1495  1.0676
   81SLPC  H11B 7507   5.116  -0.109   1.910  0.5057  0.0246 -0.0538
   81SLPC     P 7508   4.865   0.119   1.829  0.4266 -0.4577 -0.1296
   81SLPC   O13 7509   4.935   0.253   1.835 -0.7835  0.0950 -0.3422
   81SLPC   O14 7510   4.770   0.102   1.722  0.1414 -0.3344  0.4124
   81SLPC   O12 7511   4.963  -0.005   1.819  0.3188  0.1145 -0.0584
   81SLPC   O11 7512   4.786   0.101   1.965 -0.2082  0.2793  0.2087
   81SLPC    C1 7513   4.728  -0.025   2.012 -0.1692 -0.7375  0.7427
   81SLPC    HA 7514   4.653  -0.053   1.936  1.1945 -1.4728 -0.3755
   81SLPC    HB 7515   4.809  -0.101   2.016 -0.6993 -1.3095  0.7647
   81SLPC    C2 7516   4.646  -0.020   2.139  0.0929 -0.0763  0.5457
   81SLPC    HS 7517   4.561   0.049   2.121  0.1543 -0.1130  0.0972
   81SLPC   O21 7518   4.728   0.013   2.247  0.0418 -0.4712  0.0737
   81SLPC   C21 7519   4.770   0.139   2.270 -0.0321 -0.7212  0.6266
   81SLPC   O22 7520   4.722   0.238   2.216  0.0199 -0.6374  0.3858
   81SLPC   C22 7521   4.885   0.134   2.370 -0.2465 -0.1179  0.2810
   81SLPC   H2R 7522   4.937   0.040   2.341 -0.7708  0.4798 -2.8686
   81SLPC   H2S 7523   4.963   0.211   2.354  0.9805 -1.1340  1.2030
   81SLPC    C3 7524   4.582  -0.159   2.156  0.3503 -0.1094 -0.1815
   81SLPC    HX 7525   4.656  -0.241   2.162  0.8440  0.2980 -0.6612
   81SLPC    HY 7526   4.527  -0.186   2.063  1.0719 -0.9110 -0.3918
   81SLPC   O31 7527   4.486  -0.153   2.265  0.2211  0.7474  0.5943
   81SLPC   C31 7528   4.482  -0.254   2.346  0.3011 -0.1725 -0.2628
   81SLPC   O32 7529   4.550  -0.357   2.342 -0.4336 -0.8551  0.9609
   81SLPC   C32 7530   4.396  -0.215   2.462 -0.3888  0.1169  0.1417
   81SLPC   H2X 7531   4.301  -0.173   2.423  0.9416 -0.2789 -4.0110
   81SLPC   H2Y 7532   4.451  -0.141   2.523 -0.3206  0.2095 -0.0327
   81SLPC   C23 7533   4.832   0.138   2.514  0.7813  0.4070 -0.4822
   81SLPC   H3R 7534   4.736   0.084   2.526  0.3968  0.9389 -1.0427
   81SLPC   H3S 7535   4.813   0.246   2.531 -1.3514  0.2192 -1.3764
   81SLPC   C24 7536   4.918   0.065   2.614  1.1467 -0.0077  1.0327
   81SLPC   H4R 7537   5.010   0.126   2.624  0.2786  1.4074  0.6272
   81SLPC   H4S 7538   4.946  -0.037   2.578 -0.2947  0.8193 -3.0154
   81SLPC   C25 7539   4.863   0.051   2.754  0.2598  0.4550 -0.3804
   81SLPC   H5R 7540   4.819  -0.048   2.775  2.8416 -0.7809 -0.3672
   81SLPC   H5S 7541   4.782   0.126   2.752 -1.6856 -1.5460 -2.4371
   81SLPC   C26 7542   4.960   0.097   2.864  0.6207  0.1349 -0.4394
   81SLPC   H6R 7543   4.904   0.100   2.960 -1.4240  0.8103 -1.5919
   81SLPC   H6S 7544   4.983   0.204   2.846 -1.4817  0.5626 -0.8235
   81SLPC   C27 7545   5.083   0.008   2.884  0.2557  0.4590  0.3296
   81SLPC   H7R 7546   5.151   0.047   2.962 -0.3895 -2.4372  2.5201
   81SLPC   H7S 7547   5.141   0.006   2.790  2.4335 -1.4931  1.6162
   81SLPC   C28 7548   5.066  -0.140   2.922  0.3012 -0.2741 -0.3497
   81SLPC   H8R 7549   5.171  -0.169   2.946  0.7907  1.2508 -0.5756
   81SLPC   H8S 7550   5.044  -0.206   2.835  0.0964 -0.9082  0.1755
   81SLPC   C29 7551   4.968  -0.150   3.035  0.0944 -0.4602  0.0105
   81SLPC   H9R 7552   4.868  -0.172   2.994  0.1856  0.4699 -0.7525
   81SLPC  C210 7553   4.991  -0.133   3.162 -0.5659  0.1158 -0.4171
   81SLPC  H10R 7554   4.907  -0.135   3.233  0.0099  2.3411  0.4299
   81SLPC  C211 7555   5.118  -0.098   3.232 -0.2461 -0.0192  0.3145
   81SLPC  H11R 7556   5.126   0.011   3.254 -3.1080  0.0839  1.3500
   81SLPC  H11S 7557   5.201  -0.120   3.162 -0.7947 -0.1793 -0.3036
   81SLPC  C212 7558   5.140  -0.164   3.360  0.0924  0.0764 -0.2895
   81SLPC  H12R 7559   5.043  -0.158   3.412 -0.0535 -1.8427 -0.2891
   81SLPC  C213 7560   5.238  -0.244   3.399  0.0529 -0.0967 -0.2284
   81SLPC  H13R 7561   5.228  -0.283   3.502  0.8439  0.5149  0.0948
   81SLPC  C214 7562   5.360  -0.282   3.317  0.1061  0.2934 -0.6891
   81SLPC  H14R 7563   5.441  -0.207   3.326  0.3720  0.1197 -1.4984
   81SLPC  H14S 7564   5.336  -0.283   3.208  1.1399  3.3144 -1.0278
   81SLPC  C215 7565   5.419  -0.418   3.362 -0.7500  0.5751  0.5546
   81SLPC  H15R 7566   5.460  -0.409   3.465 -0.9234  2.9611  0.4607
   81SLPC  H15S 7567   5.513  -0.441   3.306 -1.3809  0.8040 -0.6309
   81SLPC  C216 7568   5.322  -0.537   3.362  0.0621  0.2375  0.4229
   81SLPC  H16R 7569   5.274  -0.553   3.264 -1.5462 -0.7249  1.3166
   81SLPC  H16S 7570   5.244  -0.524   3.441  0.9219 -1.3766  1.6003
   81SLPC  C217 7571   5.407  -0.659   3.384  0.5648 -0.9801  0.6744
   81SLPC  H17R 7572   5.467  -0.649   3.477  1.0291  1.2175  0.2034
   81SLPC  H17S 7573   5.472  -0.665   3.295  0.1517  1.4497  0.1297
   81SLPC  C218 7574   5.340  -0.793   3.395  0.3434 -0.6483  0.2681
   81SLPC  H18R 7575   5.426  -0.861   3.415  0.7140 -0.2372  0.0787
   81SLPC  H18S 7576   5.286  -0.820   3.302 -0.1028 -1.7668  0.8274
   81SLPC  H18T 7577   5.265  -0.799   3.477 -0.2227 -2.5922 -0.3342
   81SLPC   C33 7578   4.370  -0.342   2.547  0.6969 -0.1661 -0.1982
   81SLPC   H3X 7579   4.451  -0.411   2.581 -0.9375 -0.8309  2.7634
   81SLPC   H3Y 7580   4.305  -0.407   2.486 -1.7091 -0.0742  2.0931
   81SLPC   C34 7581   4.291  -0.303   2.673 -0.5471 -0.5362 -0.0521
   81SLPC   H4X 7582   4.247  -0.397   2.715  1.7688 -1.9045 -0.4857
   81SLPC   H4Y 7583   4.208  -0.234   2.647  0.1084  0.1799 -0.2846
   81SLPC   C35 7584   4.375  -0.243   2.783 -0.9619  0.0673  0.1573
   81SLPC   H5X 7585   4.337  -0.143   2.813 -0.0403  0.7641 -0.9212
   81SLPC   H5Y 7586   4.475  -0.217   2.742 -1.2990  0.6156 -0.3347
   81SLPC   C36 7587   4.388  -0.337   2.902  0.2218  0.1375  0.1482
   81SLPC   H6X 7588   4.443  -0.432   2.886  1.9332  0.8380  1.4967
   81SLPC   H6Y 7589   4.287  -0.369   2.936  0.2865 -0.7260 -0.4585
   81SLPC   C37 7590   4.460  -0.264   3.018 -0.0830 -0.1182 -0.3951
   81SLPC   H7X 7591   4.397  -0.186   3.066  1.2337  0.4899  0.3895
   81SLPC   H7Y 7592   4.545  -0.200   2.986  0.7991 -0.6705  0.7847
   81SLPC   C38 7593   4.506  -0.360   3.128 -0.0164 -0.2730 -0.4479
   81SLPC   H8X 7594   4.424  -0.430   3.154  0.3272 -0.9140 -1.0461
   81SLPC   H8Y 7595   4.526  -0.297   3.217 -2.1622  0.3085 -0.3175
   81SLPC   C39 7596   4.643  -0.434   3.102  0.2099  0.0475 -0.1893
   81SLPC   H9X 7597   4.724  -0.367   3.068  0.6649  0.6315  1.9280
   81SLPC   H9Y 7598   4.634  -0.499   3.012  1.2146  2.9249 -2.5488
   81SLPC  C310 7599   4.682  -0.520   3.220  0.1259  0.0658  0.0523
   81SLPC  H10X 7600   4.751  -0.599   3.183  1.3756  2.3706 -2.9758
   81SLPC  H10Y 7601   4.593  -0.560   3.273 -1.4535  2.9665 -0.2108
   81SLPC  C311 7602   4.759  -0.434   3.324 -0.1691  0.3079 -0.0197
   81SLPC  H11X 7603   4.695  -0.359   3.375 -0.6010  0.7692 -1.2195
   81SLPC  H11Y 7604   4.843  -0.378   3.277  0.9628 -1.3277 -0.0411
   81SLPC  C312 7605   4.836  -0.528   3.421  0.2245  0.7911 -0.0699
   81SLPC  H12X 7606   4.920  -0.568   3.360  1.3121  4.3422 -1.1846
   81SLPC  H12Y 7607   4.780  -0.614   3.463  0.1549  0.4113 -0.9119
   81SLPC  C313 7608   4.902  -0.441   3.531  0.4657  0.5392 -0.2771
   81SLPC  H13X 7609   4.815  -0.392   3.580 -1.6151 -0.8341 -2.3868
   81SLPC  H13Y 7610   4.959  -0.366   3.472 -1.1369 -0.0240 -2.6607
   81SLPC  C314 7611   4.999  -0.514   3.619  0.7305  0.1270  0.3308
   81SLPC  H14X 7612   5.069  -0.581   3.565  1.8526 -0.8660  2.8862
   81SLPC  H14Y 7613   4.941  -0.590   3.675 -0.7512 -0.7371 -2.1804
   81SLPC  C315 7614   5.078  -0.432   3.717  0.8767 -0.2103  0.3197
   81SLPC  H15X 7615   5.004  -0.378   3.780 -0.3880 -2.2201  0.6230
   81SLPC  H15Y 7616   5.131  -0.345   3.671 -0.4233  0.2463 -0.3892
   81SLPC  C316 7617   5.164  -0.516   3.809 -0.5177  0.8144 -0.2073
   81SLPC  H16X 7618   5.220  -0.449   3.876 -0.3645 -0.8423  1.4055
   81SLPC  H16Y 7619   5.249  -0.559   3.751 -0.4814  1.2689 -0.4975
   81SLPC  C317 7620   5.096  -0.630   3.887  0.4490 -0.2228  0.4519
   81SLPC  H17X 7621   5.066  -0.704   3.811 -0.9239  3.1501 -2.5958
   81SLPC  H17Y 7622   5.000  -0.592   3.928  0.1027 -0.9467  0.3293
   81SLPC  C318 7623   5.181  -0.702   3.991 -0.2840  0.2799 -0.0002
   81SLPC  H18X 7624   5.124  -0.786   4.037 -1.5537  0.0642 -1.8560
   81SLPC  H18Y 7625   5.174  -0.623   4.069 -1.3941  0.7128 -0.5076
   81SLPC  H18Z 7626   5.287  -0.723   3.965  0.4205  0.3205  2.5387
   82SLPC     N 7627   2.051   2.691   2.194 -0.0019 -0.5256 -0.2742
   82SLPC   C13 7628   2.160   2.763   2.264 -1.0425 -0.0911 -0.5944
   82SLPC  H13A 7629   2.142   2.792   2.367 -1.4347  0.0770 -0.7111
   82SLPC  H13B 7630   2.241   2.692   2.274  0.1945  1.4801  1.4228
   82SLPC  H13C 7631   2.199   2.852   2.219 -0.8287  1.4268  2.3191
   82SLPC   C14 7632   2.087   2.654   2.047 -0.1812 -0.0665  0.7700
   82SLPC  H14A 7633   1.997   2.618   1.999  0.0055 -0.6164  0.8257
   82SLPC  H14B 7634   2.113   2.743   1.993 -0.6044 -0.0351  0.6130
   82SLPC  H14C 7635   2.175   2.591   2.047  1.4599  2.1085 -0.2243
   82SLPC   C15 7636   1.933   2.781   2.188  0.3567 -0.5659  0.1895
   82SLPC  H15A 7637   1.901   2.814   2.286 -0.5134  0.9350 -0.5650
   82SLPC  H15B 7638   1.958   2.860   2.118  1.6871 -0.4510  0.7604
   82SLPC  H15C 7639   1.852   2.729   2.140  0.7498 -1.5022  0.5149
   82SLPC   C12 7640   2.011   2.566   2.276  0.7996  0.3337 -0.4354
   82SLPC  H12A 7641   2.095   2.500   2.290 -1.3516 -2.2977  0.8554
   82SLPC  H12B 7642   1.940   2.508   2.218 -0.8551  0.0940  1.7082
   82SLPC   C11 7643   1.935   2.593   2.413 -0.0291  0.0414  0.5137
   82SLPC  H11A 7644   1.906   2.496   2.458 -2.1374 -0.3627 -1.5022
   82SLPC  H11B 7645   1.839   2.647   2.398 -0.4314 -0.3766  1.4854
   82SLPC     P 7646   1.959   2.777   2.596 -0.0105  0.2970 -0.9849
   82SLPC   O13 7647   2.075   2.855   2.650 -0.2631  0.4614  0.2969
   82SLPC   O14 7648   1.863   2.868   2.529 -0.2106  0.0334 -0.6502
   82SLPC   O12 7649   2.017   2.667   2.498 -0.0563 -0.3917 -0.2196
   82SLPC   O11 7650   1.883   2.690   2.704 -0.8458  0.1210  0.6529
   82SLPC    C1 7651   1.943   2.559   2.734 -0.4646  0.2183  0.3148
   82SLPC    HA 7652   1.883   2.481   2.682 -0.6170 -0.3455  1.3295
   82SLPC    HB 7653   2.048   2.548   2.700 -0.2698  0.7041  0.7428
   82SLPC    C2 7654   1.930   2.521   2.887  0.4032 -0.7865 -0.5307
   82SLPC    HS 7655   1.823   2.515   2.918  0.3829  1.6235  0.0836
   82SLPC   O21 7656   1.984   2.613   2.988  0.4331  0.5006  0.1744
   82SLPC   C21 7657   2.097   2.676   2.956 -0.9032  0.7843 -0.5192
   82SLPC   O22 7658   2.178   2.645   2.868 -0.6042  0.3091  0.7687
   82SLPC   C22 7659   2.123   2.782   3.056  1.2359 -0.3337 -0.6590
   82SLPC   H2R 7660   2.115   2.878   3.001  1.3482  1.7575  2.6861
   82SLPC   H2S 7661   2.042   2.779   3.132  0.6691  0.3541 -1.2282
   82SLPC    C3 7662   1.986   2.377   2.900 -0.1602 -0.1118  0.1166
   82SLPC    HX 7663   2.088   2.371   2.859 -0.8813 -1.5354 -1.6069
   82SLPC    HY 7664   1.930   2.304   2.837  1.0479 -2.6100  1.7466
   82SLPC   O31 7665   1.997   2.326   3.030  0.2869  0.1561 -0.3676
   82SLPC   C31 7666   1.889   2.277   3.083 -0.0612  0.4333  0.2782
   82SLPC   O32 7667   1.779   2.260   3.029 -0.5671 -0.1747  0.0480
   82SLPC   C32 7668   1.922   2.241   3.222  0.5059 -0.3901 -0.1746
   82SLPC   H2X 7669   1.928   2.334   3.283 -1.9281  0.5474 -1.2171
   82SLPC   H2Y 7670   2.017   2.183   3.225  1.5841  1.3208  1.2831
   82SLPC   C23 7671   2.256   2.773   3.119 -0.1506  0.5065  0.4173
   82SLPC   H3R 7672   2.276   2.873   3.164  2.2595  0.4509 -0.3658
   82SLPC   H3S 7673   2.332   2.751   3.041 -1.1830  2.5337 -1.2400
   82SLPC   C24 7674   2.272   2.652   3.221 -0.3419 -0.5070  0.4536
   82SLPC   H4R 7675   2.378   2.652   3.253  0.5581 -0.9385 -2.2907
   82SLPC   H4S 7676   2.267   2.560   3.160 -2.4208  0.8047 -1.5354
   82SLPC   C25 7677   2.173   2.649   3.340  0.2551  0.4094  0.1505
   82SLPC   H5R 7678   2.074   2.623   3.296  0.2593 -0.8683  0.8737
   82SLPC   H5S 7679   2.174   2.749   3.389 -0.4683  0.4083  0.1792
   82SLPC   C26 7680   2.221   2.545   3.439  0.2889  0.0704 -0.8863
   82SLPC   H6R 7681   2.316   2.566   3.493  0.9171 -2.2689 -0.9812
   82SLPC   H6S 7682   2.251   2.447   3.395  1.8327 -1.1397  2.5285
   82SLPC   C27 7683   2.110   2.514   3.548  0.7835 -0.1737  0.1960
   82SLPC   H7R 7684   2.010   2.509   3.499  0.6336 -1.8621  0.6043
   82SLPC   H7S 7685   2.119   2.593   3.625 -1.7685 -0.5734  0.9669
   82SLPC   C28 7686   2.131   2.380   3.620  0.7144  0.3947 -0.3492
   82SLPC   H8R 7687   2.139   2.298   3.546 -0.8633 -1.7405  1.6902
   82SLPC   H8S 7688   2.039   2.368   3.681  0.2521 -1.0296 -1.2754
   82SLPC   C29 7689   2.248   2.375   3.715 -0.4131  0.1440 -0.3331
   82SLPC   H9R 7690   2.340   2.344   3.663 -1.2303  0.9156 -2.3680
   82SLPC  C210 7691   2.245   2.408   3.849  0.0986 -0.2762  0.1608
   82SLPC  H10R 7692   2.348   2.401   3.885  0.7016  1.1726 -1.1230
   82SLPC  C211 7693   2.131   2.460   3.927  0.7505 -1.2706 -0.3928
   82SLPC  H11R 7694   2.086   2.366   3.966  1.9766 -1.5980  0.2779
   82SLPC  H11S 7695   2.056   2.521   3.872  2.8269  2.4414  0.5281
   82SLPC  C212 7696   2.179   2.547   4.042  0.2372  0.7235 -0.2808
   82SLPC  H12R 7697   2.232   2.638   4.010  2.9351 -0.1598  1.3851
   82SLPC  C213 7698   2.151   2.532   4.173 -0.5268 -0.2904  0.5417
   82SLPC  H13R 7699   2.176   2.616   4.238  0.0602  0.5735 -0.7580
   82SLPC  C214 7700   2.081   2.407   4.224 -0.7875 -0.0456 -0.0091
   82SLPC  H14R 7701   2.153   2.325   4.246 -1.4322 -0.9000 -1.0169
   82SLPC  H14S 7702   2.012   2.360   4.151 -1.2105 -0.6231  0.7407
   82SLPC  C215 7703   2.001   2.423   4.354  0.0142  0.0800 -0.6460
   82SLPC  H15R 7704   1.950   2.326   4.372  0.2701  0.2024  0.8982
   82SLPC  H15S 7705   1.931   2.505   4.330  1.9477  1.2144 -2.8339
   82SLPC  C216 7706   2.094   2.455   4.477  0.5415 -0.2764  0.3932
   82SLPC  H16R 7707   2.021   2.476   4.559  1.7219  0.6099  1.2636
   82SLPC  H16S 7708   2.165   2.537   4.452  1.8588 -1.8714 -1.4026
   82SLPC  C217 7709   2.167   2.328   4.517  0.2335  0.1653 -0.2005
   82SLPC  H17R 7710   2.242   2.291   4.444  0.0018 -1.1796  0.2066
   82SLPC  H17S 7711   2.092   2.246   4.518  0.9382 -0.5032 -0.7948
   82SLPC  C218 7712   2.233   2.346   4.655 -0.4719  0.4241  0.4931
   82SLPC  H18R 7713   2.159   2.386   4.728 -2.3698  1.9608 -2.0831
   82SLPC  H18S 7714   2.310   2.426   4.645  0.1793 -0.1744  0.6355
   82SLPC  H18T 7715   2.272   2.247   4.685 -1.0692 -1.0576 -3.0499
   82SLPC   C33 7716   1.808   2.147   3.286  0.0439  0.4132 -0.5662
   82SLPC   H3X 7717   1.807   2.054   3.225  0.7526 -0.9727  1.4152
   82SLPC   H3Y 7718   1.711   2.199   3.303  0.4530  0.6401  1.3835
   82SLPC   C34 7719   1.858   2.104   3.426 -0.0202 -0.1162 -0.0727
   82SLPC   H4X 7720   1.869   2.192   3.492  1.3015 -0.4385  0.1491
   82SLPC   H4Y 7721   1.959   2.058   3.424  0.0446 -0.0058  0.5994
   82SLPC   C35 7722   1.783   1.998   3.508  0.0171  0.6113  0.4414
   82SLPC   H5X 7723   1.754   1.910   3.446 -1.5686  2.0283 -0.9175
   82SLPC   H5Y 7724   1.691   2.048   3.544  1.5628  3.4759  0.6342
   82SLPC   C36 7725   1.851   1.946   3.630 -0.2806  0.0238 -0.5487
   82SLPC   H6X 7726   1.853   2.030   3.703 -1.2356  0.2856 -0.8100
   82SLPC   H6Y 7727   1.953   1.909   3.609 -0.2989 -0.9570  0.9155
   82SLPC   C37 7728   1.766   1.830   3.690  0.0876 -0.4717 -0.3196
   82SLPC   H7X 7729   1.755   1.751   3.613 -1.7015 -0.9100  0.3493
   82SLPC   H7Y 7730   1.671   1.878   3.722 -0.0636  1.5785 -3.4051
   82SLPC   C38 7731   1.836   1.769   3.813 -0.2150 -0.2247 -0.6922
   82SLPC   H8X 7732   1.825   1.849   3.890 -0.1113 -2.2242  1.5247
   82SLPC   H8Y 7733   1.945   1.751   3.801 -0.5574 -0.9906 -2.9554
   82SLPC   C39 7734   1.782   1.647   3.871 -0.0305  0.0976 -0.0999
   82SLPC   H9X 7735   1.779   1.575   3.786  2.6945  2.0044 -1.9777
   82SLPC   H9Y 7736   1.678   1.661   3.908  0.6546  1.1097  1.5564
   82SLPC  C310 7737   1.867   1.583   3.988 -0.2828 -0.2794  0.3967
   82SLPC  H10X 7738   1.837   1.638   4.080  0.0320  1.0194 -0.2616
   82SLPC  H10Y 7739   1.974   1.578   3.959 -0.1514 -3.3460  1.0686
   82SLPC  C311 7740   1.830   1.435   4.020 -0.2320  0.4189 -0.0364
   82SLPC  H11X 7741   1.801   1.387   3.924 -2.3896 -1.9066  1.6526
   82SLPC  H11Y 7742   1.733   1.432   4.073 -1.4251  1.1188 -2.0658
   82SLPC  C312 7743   1.939   1.354   4.093  0.3927 -0.3702 -0.1598
   82SLPC  H12X 7744   1.963   1.419   4.180 -0.0626  2.2095 -1.8489
   82SLPC  H12Y 7745   2.023   1.366   4.021 -0.2911 -0.0301 -0.9227
   82SLPC  C313 7746   1.898   1.208   4.101 -0.2142  0.7660 -0.4972
   82SLPC  H13X 7747   1.989   1.147   4.089 -1.7864 -1.1414 -4.3896
   82SLPC  H13Y 7748   1.828   1.186   4.017 -2.0353  2.9789  0.3240
   82SLPC  C314 7749   1.829   1.170   4.234 -0.0398 -0.1954  0.8768
   82SLPC  H14X 7750   1.721   1.195   4.232 -0.2364 -0.9790  1.4594
   82SLPC  H14Y 7751   1.871   1.234   4.314 -1.8712  0.6643  1.1984
   82SLPC  C315 7752   1.864   1.038   4.291 -0.0857  0.0254 -0.6031
   82SLPC  H15X 7753   1.974   1.026   4.294 -0.1781 -0.8264 -0.4205
   82SLPC  H15Y 7754   1.824   0.952   4.233  0.7158 -0.0790 -1.0147
   82SLPC  C316 7755   1.788   1.031   4.421 -0.2762  0.1950  0.2570
   82SLPC  H16X 7756   1.779   0.928   4.461  1.8079  0.2625  1.0189
   82SLPC  H16Y 7757   1.686   1.070   4.404  1.2534  3.8913 -1.7391
   82SLPC  C317 7758   1.852   1.102   4.535  0.1465  0.4091  0.5214
   82SLPC  H17X 7759   1.851   1.212   4.516  0.0544  0.1970 -0.7304
   82SLPC  H17Y 7760   1.960   1.078   4.541 -0.1320 -0.8169  0.9192
   82SLPC  C318 7761   1.783   1.094   4.674  0.1364  0.1689  0.1230
   82SLPC  H18X 7762   1.682   1.140   4.677  0.2252  0.4067 -0.4432
   82SLPC  H18Y 7763   1.843   1.148   4.750  0.6651 -2.5525  1.8004
   82SLPC  H18Z 7764   1.769   0.989   4.711 -3.1133  0.0746 -1.0277
   83SLPC     N 7765   4.535   2.146   1.776 -0.0248  0.1737  0.6881
   83SLPC   C13 7766   4.616   2.243   1.695 -0.1756 -0.3534 -0.2460
   83SLPC  H13A 7767   4.637   2.215   1.592  2.0334  1.6476 -0.4191
   83SLPC  H13B 7768   4.569   2.340   1.694 -0.5222 -0.5092 -1.3759
   83SLPC  H13C 7769   4.712   2.238   1.743  0.9490 -2.3294 -2.4521
   83SLPC   C14 7770   4.394   2.132   1.720 -0.9454  0.3330 -0.1442
   83SLPC  H14A 7771   4.349   2.051   1.777 -0.7583 -0.6076 -1.2913
   83SLPC  H14B 7772   4.327   2.216   1.736 -1.2080 -0.1297  1.3171
   83SLPC  H14C 7773   4.411   2.100   1.618  2.0266  0.7672  0.1383
   83SLPC   C15 7774   4.523   2.199   1.922 -0.2616 -0.0349 -0.0506
   83SLPC  H15A 7775   4.482   2.124   1.988 -0.1334 -0.6731 -0.6853
   83SLPC  H15B 7776   4.624   2.219   1.954 -0.5503 -0.4970  1.1894
   83SLPC  H15C 7777   4.462   2.288   1.920  1.2613  1.1041  1.2344
   83SLPC   C12 7778   4.597   2.003   1.773 -0.9039 -0.3250  0.4796
   83SLPC  H12A 7779   4.696   2.002   1.818 -0.1864 -0.2399 -1.0377
   83SLPC  H12B 7780   4.618   1.969   1.673  1.7022  0.9380  0.5006
   83SLPC   C11 7781   4.506   1.894   1.841 -0.7616 -0.4659  0.2880
   83SLPC  H11A 7782   4.549   1.792   1.833 -3.0693 -1.4740  0.0460
   83SLPC  H11B 7783   4.407   1.894   1.790 -2.4242  0.7000  3.2874
   83SLPC     P 7784   4.530   1.851   2.103  0.0975  0.1558 -0.2997
   83SLPC   O13 7785   4.472   1.716   2.113  0.5628 -0.4528 -0.3213
   83SLPC   O14 7786   4.679   1.859   2.107  0.4690  0.6795 -0.7173
   83SLPC   O12 7787   4.470   1.925   1.976  0.4125  0.2510 -0.4407
   83SLPC   O11 7788   4.481   1.943   2.221  0.0756  0.2190 -0.3092
   83SLPC    C1 7789   4.359   1.918   2.285 -0.0712  0.7092  0.2792
   83SLPC    HA 7790   4.281   1.989   2.249 -0.6606 -0.3018 -0.5074
   83SLPC    HB 7791   4.325   1.815   2.262 -1.9037  1.6330 -1.5130
   83SLPC    C2 7792   4.366   1.925   2.439  0.0280  0.2687 -0.0685
   83SLPC    HS 7793   4.393   2.027   2.475 -1.9854  0.4931  0.9843
   83SLPC   O21 7794   4.448   1.818   2.496 -0.4664  0.2341 -0.4517
   83SLPC   C21 7795   4.570   1.866   2.527  0.8579  0.8660  0.4204
   83SLPC   O22 7796   4.615   1.973   2.489 -0.2297  0.4443 -0.6470
   83SLPC   C22 7797   4.642   1.767   2.620  0.2074 -0.2295 -0.2434
   83SLPC   H2R 7798   4.668   1.672   2.568 -1.5097 -1.8304  1.6128
   83SLPC   H2S 7799   4.739   1.817   2.640  0.1867 -0.2647 -0.0510
   83SLPC    C3 7800   4.220   1.913   2.497 -0.1124  0.1050 -0.3658
   83SLPC    HX 7801   4.208   1.803   2.489  3.1793 -0.4488  0.7256
   83SLPC    HY 7802   4.152   1.971   2.431 -1.5753  1.1404  1.9130
   83SLPC   O31 7803   4.212   1.964   2.633  0.4433  0.0471 -0.0012
   83SLPC   C31 7804   4.088   1.968   2.687 -0.2683 -0.3457  0.5193
   83SLPC   O32 7805   3.990   1.956   2.623  0.1548 -0.0579  0.6019
   83SLPC   C32 7806   4.092   1.971   2.835  0.5258  0.8324  0.2044
   83SLPC   H2X 7807   4.138   2.070   2.857  1.7832  0.1293  0.8592
   83SLPC   H2Y 7808   4.167   1.898   2.871  2.4731  2.5461 -0.1730
   83SLPC   C23 7809   4.566   1.740   2.751  0.4150 -0.5917 -0.4357
   83SLPC   H3R 7810   4.598   1.640   2.787  1.5125  0.4221  1.5779
   83SLPC   H3S 7811   4.456   1.728   2.741  0.2455 -0.2907  0.9279
   83SLPC   C24 7812   4.591   1.853   2.862  0.7229 -0.3899  0.1686
   83SLPC   H4R 7813   4.603   1.954   2.818  1.8812 -1.4028 -1.9961
   83SLPC   H4S 7814   4.681   1.825   2.923  0.7319  2.9010  1.8970
   83SLPC   C25 7815   4.471   1.854   2.965  0.1589  0.1875  0.7462
   83SLPC   H5R 7816   4.482   1.757   3.019 -0.8411  0.7708  2.0568
   83SLPC   H5S 7817   4.373   1.862   2.914  0.0345  1.2290  1.1352
   83SLPC   C26 7818   4.469   1.972   3.064  0.5072  0.0030 -0.0359
   83SLPC   H6R 7819   4.460   2.071   3.014  0.2343  0.6748  1.2979
   83SLPC   H6S 7820   4.564   1.990   3.120 -0.7972  1.3964  1.8509
   83SLPC   C27 7821   4.361   1.957   3.175  0.1234 -1.1634 -0.1384
   83SLPC   H7R 7822   4.401   1.889   3.253 -0.2911 -1.4603 -0.1794
   83SLPC   H7S 7823   4.273   1.916   3.122 -0.7566  1.2538 -0.6788
   83SLPC   C28 7824   4.318   2.094   3.242 -0.4862  0.5395  0.8003
   83SLPC   H8R 7825   4.289   2.171   3.168 -2.3403  0.3596  1.2875
   83SLPC   H8S 7826   4.406   2.142   3.289 -0.7374 -0.2119  2.0786
   83SLPC   C29 7827   4.208   2.086   3.342  0.0499 -0.4074 -0.4979
   83SLPC   H9R 7828   4.104   2.087   3.308 -0.0671 -1.2248 -0.1953
   83SLPC  C210 7829   4.223   2.084   3.479  0.0494 -0.3099 -0.2228
   83SLPC  H10R 7830   4.134   2.081   3.544  0.8170 -0.7447  0.8578
   83SLPC  C211 7831   4.360   2.083   3.553  0.3206 -0.2205  0.2291
   83SLPC  H11R 7832   4.401   2.186   3.566 -0.0854  0.2480 -1.8088
   83SLPC  H11S 7833   4.441   2.035   3.494  0.6199  1.3881 -0.7345
   83SLPC  C212 7834   4.335   2.011   3.690  0.9983 -0.0687 -0.4704
   83SLPC  H12R 7835   4.262   2.059   3.757 -1.2117 -1.7606 -1.5662
   83SLPC  C213 7836   4.381   1.897   3.741  0.3133  1.2448 -0.1734
   83SLPC  H13R 7837   4.351   1.856   3.838  1.8508 -1.6866 -0.8272
   83SLPC  C214 7838   4.472   1.797   3.683  0.2507 -0.1784  0.1204
   83SLPC  H14R 7839   4.497   1.815   3.577  0.0646  0.3132  0.1562
   83SLPC  H14S 7840   4.426   1.696   3.676  2.8735 -1.4708  0.3254
   83SLPC  C215 7841   4.601   1.772   3.767  0.0608 -0.2653 -0.3033
   83SLPC  H15R 7842   4.625   1.869   3.816 -0.6054  0.2086 -0.8955
   83SLPC  H15S 7843   4.685   1.748   3.698  2.1027  1.4308  1.4304
   83SLPC  C216 7844   4.606   1.663   3.874 -0.0501 -0.0024 -0.1904
   83SLPC  H16R 7845   4.540   1.697   3.957  2.1665  0.5110  1.4560
   83SLPC  H16S 7846   4.713   1.667   3.904 -0.0231  1.1535 -0.4055
   83SLPC  C217 7847   4.563   1.527   3.838  0.6492  0.5436 -0.4973
   83SLPC  H17R 7848   4.636   1.472   3.776 -0.6841 -1.1587 -0.6396
   83SLPC  H17S 7849   4.466   1.526   3.784  0.8784 -2.0591 -1.0007
   83SLPC  C218 7850   4.526   1.431   3.963 -0.0652 -0.0907 -0.2032
   83SLPC  H18R 7851   4.617   1.422   4.026  0.7407  1.9492 -1.0055
   83SLPC  H18S 7852   4.508   1.324   3.939  1.7085 -0.5008  0.1990
   83SLPC  H18T 7853   4.446   1.463   4.034 -2.0036 -1.1373 -1.8197
   83SLPC   C33 7854   3.950   1.948   2.897  0.6237  0.8312  0.1735
   83SLPC   H3X 7855   3.884   1.883   2.836  2.0263 -0.7142  0.1981
   83SLPC   H3Y 7856   3.893   2.043   2.904 -1.2215 -0.1183 -1.0750
   83SLPC   C34 7857   3.958   1.867   3.029 -0.1252  0.3871  0.2906
   83SLPC   H4X 7858   4.040   1.918   3.085  0.8360 -0.3953 -0.3810
   83SLPC   H4Y 7859   3.999   1.765   3.012 -0.5689  0.0121  1.3510
   83SLPC   C35 7860   3.828   1.856   3.104 -1.1845  0.8376 -0.0493
   83SLPC   H5X 7861   3.761   1.792   3.042 -0.0304  0.4236 -0.9026
   83SLPC   H5Y 7862   3.782   1.956   3.116 -1.5822  0.6713 -0.1580
   83SLPC   C36 7863   3.845   1.792   3.248 -0.1236  0.1026 -0.2788
   83SLPC   H6X 7864   3.904   1.698   3.253 -0.5058 -0.0832  1.0794
   83SLPC   H6Y 7865   3.744   1.770   3.289 -0.9188  0.9215 -1.7186
   83SLPC   C37 7866   3.911   1.873   3.358 -0.3135 -0.0239  0.9634
   83SLPC   H7X 7867   3.874   1.977   3.350  0.7925  0.2955 -0.1965
   83SLPC   H7Y 7868   4.020   1.875   3.338 -0.3986 -2.1409  0.0183
   83SLPC   C38 7869   3.882   1.806   3.491 -0.3049  0.8088 -0.2078
   83SLPC   H8X 7870   3.912   1.699   3.493 -1.6378  0.3564 -2.0743
   83SLPC   H8Y 7871   3.773   1.804   3.513 -0.4775 -2.7416 -0.7689
   83SLPC   C39 7872   3.958   1.880   3.607 -0.1524 -0.6713 -0.4224
   83SLPC   H9X 7873   3.921   1.984   3.594 -1.5604 -1.1016 -0.0589
   83SLPC   H9Y 7874   4.069   1.873   3.597 -0.0735 -0.2103  0.0615
   83SLPC  C310 7875   3.909   1.842   3.744  0.4817  0.2609 -0.6170
   83SLPC  H10X 7876   3.798   1.842   3.746  0.3171 -3.5989 -1.8178
   83SLPC  H10Y 7877   3.956   1.913   3.815  0.9852  0.9818 -1.6482
   83SLPC  C311 7878   3.967   1.709   3.785  0.4337 -0.0988 -0.5159
   83SLPC  H11X 7879   4.068   1.711   3.739 -0.1190  1.0033 -1.7622
   83SLPC  H11Y 7880   3.904   1.625   3.746  1.1472 -0.0417 -1.8349
   83SLPC  C312 7881   3.978   1.690   3.939  0.3444  0.4954  0.1531
   83SLPC  H12X 7882   3.892   1.730   3.997 -0.0513 -0.6183  0.3700
   83SLPC  H12Y 7883   4.062   1.754   3.974  0.4794 -0.0570  0.8684
   83SLPC  C313 7884   4.009   1.547   3.989 -0.2821  0.0844  0.7029
   83SLPC  H13X 7885   3.924   1.483   3.958 -0.2625  0.4449 -0.1432
   83SLPC  H13Y 7886   4.029   1.549   4.098  2.6876 -1.3948  0.2844
   83SLPC  C314 7887   4.138   1.499   3.926 -1.0037 -0.3620  0.1370
   83SLPC  H14X 7888   4.217   1.561   3.972 -0.2133 -1.3414  0.1474
   83SLPC  H14Y 7889   4.144   1.514   3.816 -3.9874  0.7819  0.0360
   83SLPC  C315 7890   4.167   1.355   3.962 -0.6472  0.2415 -0.2861
   83SLPC  H15X 7891   4.270   1.321   3.940 -0.9899  0.2144 -2.0006
   83SLPC  H15Y 7892   4.089   1.284   3.929  0.2859 -0.9159 -0.0448
   83SLPC  C316 7893   4.171   1.342   4.115 -0.2535  0.1148 -0.5144
   83SLPC  H16X 7894   4.073   1.344   4.167  0.8962  1.9608  1.7582
   83SLPC  H16Y 7895   4.230   1.428   4.153  2.1632 -1.1966 -1.1014
   83SLPC  C317 7896   4.243   1.210   4.167  0.7300 -0.2683 -0.3740
   83SLPC  H17X 7897   4.236   1.220   4.278  0.8939  0.0230 -0.3876
   83SLPC  H17Y 7898   4.350   1.226   4.142  1.4637 -0.5686  2.2468
   83SLPC  C318 7899   4.190   1.076   4.122 -0.0307  0.2470  0.6004
   83SLPC  H18X 7900   4.249   0.992   4.164  2.4468  1.0093 -1.1783
   83SLPC  H18Y 7901   4.193   1.076   4.011  0.2063  0.1938  0.6069
   83SLPC  H18Z 7902   4.081   1.058   4.135 -0.3604  2.1766  0.8770
   84SLPC     N 7903   2.309   1.423   1.934 -0.5547 -0.6198 -0.2987
   84SLPC   C13 7904   2.276   1.280   1.899 -0.1887 -0.2149 -0.3044
   84SLPC  H13A 7905   2.288   1.252   1.795 -2.3956 -4.9005  0.4126
   84SLPC  H13B 7906   2.350   1.220   1.950  0.9436  0.0122 -1.6028
   84SLPC  H13C 7907   2.175   1.255   1.927 -0.1682  0.8681  0.8197
   84SLPC   C14 7908   2.208   1.506   1.861  0.3971 -0.7027  0.1874
   84SLPC  H14A 7909   2.112   1.493   1.908 -1.5377 -0.4426 -3.3283
   84SLPC  H14B 7910   2.233   1.610   1.877  2.5531 -1.5392  3.1452
   84SLPC  H14C 7911   2.190   1.485   1.756 -0.6815  0.7835  0.0532
   84SLPC   C15 7912   2.442   1.464   1.876  0.2096 -0.1081  0.2571
   84SLPC  H15A 7913   2.525   1.409   1.917  0.7291  0.3724 -0.1307
   84SLPC  H15B 7914   2.454   1.449   1.770 -0.5996 -0.4075  0.1968
   84SLPC  H15C 7915   2.467   1.566   1.899  1.2331  0.1943 -1.9550
   84SLPC   C12 7916   2.306   1.454   2.083 -0.2024 -0.4322 -0.0851
   84SLPC  H12A 7917   2.207   1.434   2.120  0.3313 -2.3083  0.4941
   84SLPC  H12B 7918   2.332   1.557   2.101 -1.3027 -0.5308  2.4822
   84SLPC   C11 7919   2.400   1.372   2.175 -0.1716  0.2113 -0.1050
   84SLPC  H11A 7920   2.372   1.402   2.279 -3.5322 -1.7242 -0.3023
   84SLPC  H11B 7921   2.504   1.402   2.154 -0.4247  1.4880  0.3480
   84SLPC     P 7922   2.280   1.146   2.230 -0.0032  0.4567 -0.2279
   84SLPC   O13 7923   2.173   1.236   2.268 -0.0689 -0.6624 -0.1009
   84SLPC   O14 7924   2.235   1.026   2.152 -0.0813 -0.3284 -0.5161
   84SLPC   O12 7925   2.399   1.233   2.156  0.2662 -0.1276 -0.0892
   84SLPC   O11 7926   2.346   1.099   2.364  0.2584  0.7064  0.3366
   84SLPC    C1 7927   2.486   1.055   2.351  0.2254 -1.0254 -0.1385
   84SLPC    HA 7928   2.542   1.118   2.278 -2.0652  1.4022  0.0233
   84SLPC    HB 7929   2.529   1.073   2.452  0.2900 -1.3831 -0.1023
   84SLPC    C2 7930   2.492   0.906   2.307 -0.0515  0.1585  0.0206
   84SLPC    HS 7931   2.457   0.907   2.202  2.1816 -1.3082 -0.8167
   84SLPC   O21 7932   2.407   0.837   2.394  0.2860  0.4381 -0.5143
   84SLPC   C21 7933   2.373   0.718   2.351 -0.1949  0.2172  0.3940
   84SLPC   O22 7934   2.403   0.663   2.247 -0.3951 -0.0515 -0.4359
   84SLPC   C22 7935   2.287   0.655   2.456  0.5755  0.7119 -0.9667
   84SLPC   H2R 7936   2.312   0.709   2.550  0.9374 -0.3668 -0.4237
   84SLPC   H2S 7937   2.182   0.671   2.424  0.6798 -1.3244 -2.4829
   84SLPC    C3 7938   2.640   0.853   2.297 -0.5426  0.0116  0.0850
   84SLPC    HX 7939   2.690   0.910   2.217 -0.1521  1.3539  1.2590
   84SLPC    HY 7940   2.637   0.750   2.254  3.3717 -0.9342  1.6823
   84SLPC   O31 7941   2.710   0.881   2.420 -0.2494 -0.0764  0.3933
   84SLPC   C31 7942   2.712   0.785   2.506  0.0186  0.0030  0.3665
   84SLPC   O32 7943   2.684   0.669   2.492  0.4044  0.7960 -0.0798
   84SLPC   C32 7944   2.748   0.841   2.647 -0.2392 -0.3109  0.4250
   84SLPC   H2X 7945   2.705   0.942   2.662  0.6850  0.3766 -1.2923
   84SLPC   H2Y 7946   2.859   0.844   2.651 -0.2704  1.2579  0.9006
   84SLPC   C23 7947   2.315   0.506   2.471 -0.1308 -0.0849  0.0457
   84SLPC   H3R 7948   2.347   0.456   2.377  2.9112  0.4503  0.6946
   84SLPC   H3S 7949   2.215   0.467   2.501 -0.9879 -0.0823 -2.5437
   84SLPC   C24 7950   2.405   0.468   2.579  0.0564  0.3755 -0.0146
   84SLPC   H4R 7951   2.364   0.501   2.676 -0.5161 -0.3017 -0.0186
   84SLPC   H4S 7952   2.504   0.517   2.572 -0.1060  0.9066  1.1751
   84SLPC   C25 7953   2.440   0.319   2.591  0.7715  0.2433  0.2182
   84SLPC   H5R 7954   2.497   0.271   2.508  0.2683 -1.9510  1.0652
   84SLPC   H5S 7955   2.343   0.266   2.604  0.5373  0.6396  0.0927
   84SLPC   C26 7956   2.513   0.295   2.727 -0.0000  0.3088 -0.3867
   84SLPC   H6R 7957   2.482   0.190   2.748  1.9270 -0.1495  0.3048
   84SLPC   H6S 7958   2.457   0.364   2.794 -0.9025 -0.5578 -0.2121
   84SLPC   C27 7959   2.668   0.314   2.734  0.4349  0.0316 -0.2773
   84SLPC   H7R 7960   2.698   0.405   2.678 -1.1213  0.8176  0.1277
   84SLPC   H7S 7961   2.722   0.233   2.679 -0.8635 -0.5842 -0.6978
   84SLPC   C28 7962   2.726   0.311   2.871 -0.1156 -0.7539 -0.3726
   84SLPC   H8R 7963   2.682   0.399   2.923  1.5510  0.8643 -1.5483
   84SLPC   H8S 7964   2.837   0.318   2.876 -0.0019 -2.6229  1.3243
   84SLPC   C29 7965   2.675   0.193   2.948 -0.9082  0.4492 -0.3989
   84SLPC   H9R 7966   2.640   0.117   2.877 -0.6492  0.0120 -0.0587
   84SLPC  C210 7967   2.677   0.175   3.082  0.1223  0.2980 -0.2957
   84SLPC  H10R 7968   2.630   0.085   3.123 -0.5387  2.1448  3.3962
   84SLPC  C211 7969   2.753   0.261   3.181  0.4366  0.1934 -0.4595
   84SLPC  H11R 7970   2.789   0.357   3.140  0.7993  0.6681  0.8999
   84SLPC  H11S 7971   2.852   0.215   3.204  0.2054 -0.3023 -0.4508
   84SLPC  C212 7972   2.679   0.277   3.310 -0.3685  0.7381 -0.0433
   84SLPC  H12R 7973   2.618   0.191   3.343  1.3436 -0.6430 -0.3363
   84SLPC  C213 7974   2.685   0.390   3.386  0.5026 -0.3580  0.0377
   84SLPC  H13R 7975   2.631   0.394   3.482 -4.1694  0.9772 -2.3825
   84SLPC  C214 7976   2.785   0.500   3.363  0.9529 -0.3958  0.6101
   84SLPC  H14R 7977   2.881   0.477   3.314  0.9308  0.0077  0.3740
   84SLPC  H14S 7978   2.806   0.554   3.458  0.6169  2.2455 -0.7260
   84SLPC  C215 7979   2.722   0.615   3.282  0.6403  0.2601 -0.2461
   84SLPC  H15R 7980   2.627   0.653   3.325 -0.2304  0.2034 -2.0101
   84SLPC  H15S 7981   2.692   0.594   3.177 -1.7052  2.2846 -0.0878
   84SLPC  C216 7982   2.812   0.735   3.269 -0.1889 -0.6055 -0.1640
   84SLPC  H16R 7983   2.903   0.700   3.214 -0.2938  0.6280 -1.1511
   84SLPC  H16S 7984   2.858   0.785   3.357 -1.7620 -0.4434  0.5841
   84SLPC  C217 7985   2.749   0.859   3.209 -0.1785 -0.4192  0.0261
   84SLPC  H17R 7986   2.707   0.827   3.111 -1.9715 -3.1394  1.5417
   84SLPC  H17S 7987   2.841   0.919   3.195  0.2212 -0.9543  0.3614
   84SLPC  C218 7988   2.641   0.929   3.291 -0.3951  0.3928  0.5230
   84SLPC  H18R 7989   2.548   0.942   3.230  1.9182  1.7374 -3.0354
   84SLPC  H18S 7990   2.663   1.037   3.305 -2.0444  0.5766  2.0031
   84SLPC  H18T 7991   2.632   0.868   3.383  0.4646 -0.1264  0.2749
   84SLPC   C33 7992   2.697   0.754   2.762 -0.1378  0.1504 -0.8051
   84SLPC   H3X 7993   2.748   0.777   2.858  0.7251 -0.6212 -1.0664
   84SLPC   H3Y 7994   2.715   0.645   2.746 -2.4008 -0.2259 -1.1452
   84SLPC   C34 7995   2.547   0.760   2.797 -0.6002  0.1109  0.4077
   84SLPC   H4X 7996   2.498   0.708   2.711  0.4494 -1.0948  0.5044
   84SLPC   H4Y 7997   2.506   0.863   2.800 -1.9639 -0.4351  1.7009
   84SLPC   C35 7998   2.512   0.702   2.928 -0.0349  0.4338  0.7426
   84SLPC   H5X 7999   2.542   0.775   3.006 -1.5617 -0.6397  2.4284
   84SLPC   H5Y 8000   2.556   0.600   2.935  2.0322  0.7959 -3.7052
   84SLPC   C36 8001   2.362   0.671   2.944  0.0181 -0.1793  0.3164
   84SLPC   H6X 8002   2.325   0.616   2.855  0.6927 -0.3723  0.1496
   84SLPC   H6Y 8003   2.304   0.766   2.943 -0.3636 -0.3620  1.8333
   84SLPC   C37 8004   2.324   0.576   3.061 -0.0400 -0.3303 -0.1434
   84SLPC   H7X 8005   2.409   0.504   3.062 -0.2811 -0.6447  1.7669
   84SLPC   H7Y 8006   2.241   0.507   3.036  0.5971 -0.7572 -1.1197
   84SLPC   C38 8007   2.316   0.655   3.195  0.0110  0.1782  0.1426
   84SLPC   H8X 8008   2.223   0.715   3.201 -1.0739 -1.5543  2.0636
   84SLPC   H8Y 8009   2.399   0.728   3.194 -1.0816  1.4805 -1.6887
   84SLPC   C39 8010   2.328   0.563   3.322 -0.5841 -0.1610 -0.6804
   84SLPC   H9X 8011   2.425   0.511   3.309 -0.6593 -0.1002 -1.6184
   84SLPC   H9Y 8012   2.253   0.481   3.326  0.6143 -1.2510  2.8044
   84SLPC  C310 8013   2.324   0.644   3.451 -0.0228  0.3370  0.4438
   84SLPC  H10X 8014   2.216   0.650   3.477  0.0113  1.0075  0.4596
   84SLPC  H10Y 8015   2.360   0.747   3.431 -0.2511  0.6814  1.7248
   84SLPC  C311 8016   2.418   0.581   3.558 -0.4216  0.0737  0.3617
   84SLPC  H11X 8017   2.521   0.612   3.532 -1.1788  2.4395 -0.1261
   84SLPC  H11Y 8018   2.410   0.470   3.552 -0.9534  0.0928  0.5874
   84SLPC  C312 8019   2.385   0.621   3.702  0.7719 -0.5492  0.8502
   84SLPC  H12X 8020   2.277   0.605   3.720  0.0083  0.2072 -2.5056
   84SLPC  H12Y 8021   2.405   0.730   3.709 -2.7652  0.3846 -1.4183
   84SLPC  C313 8022   2.471   0.559   3.806  0.6709 -0.5663 -0.4005
   84SLPC  H13X 8023   2.456   0.608   3.905 -0.6738  0.8965 -1.2835
   84SLPC  H13Y 8024   2.578   0.573   3.777  0.5585  0.7637 -0.2352
   84SLPC  C314 8025   2.448   0.400   3.821  0.8211 -0.1810  0.0338
   84SLPC  H14X 8026   2.453   0.354   3.720  2.4199 -0.2308  0.1021
   84SLPC  H14Y 8027   2.345   0.391   3.862  0.7213 -0.1934 -0.2174
   84SLPC  C315 8028   2.551   0.321   3.912  0.5164 -0.5343  0.9238
   84SLPC  H15X 8029   2.653   0.322   3.869 -0.9271 -0.7142 -2.8632
   84SLPC  H15Y 8030   2.507   0.219   3.914  0.4919 -0.5155  1.7533
   84SLPC  C316 8031   2.532   0.358   4.061  0.3417  0.5476  0.4479
   84SLPC  H16X 8032   2.428   0.329   4.087  0.7213 -0.3417  1.0484
   84SLPC  H16Y 8033   2.536   0.467   4.080 -0.7670  0.6301  0.2431
   84SLPC  C317 8034   2.636   0.284   4.147  0.1513  0.1095  0.1162
   84SLPC  H17X 8035   2.734   0.314   4.105  0.4513  0.5756  1.1216
   84SLPC  H17Y 8036   2.621   0.177   4.123  1.5970  0.1402 -1.0562
   84SLPC  C318 8037   2.622   0.329   4.288 -0.1753 -0.4388 -0.3523
   84SLPC  H18X 8038   2.514   0.323   4.312 -0.7040  2.2464 -1.5945
   84SLPC  H18Y 8039   2.656   0.434   4.301  0.2088 -0.2215 -2.6350
   84SLPC  H18Z 8040   2.676   0.255   4.351 -0.7541 -0.3965  0.1958
   85SLPC     N 8041   0.694   1.695   2.367 -0.0310  0.2137 -0.6658
   85SLPC   C13 8042   0.799   1.629   2.285 -0.2530  0.4229 -0.0872
   85SLPC  H13A 8043   0.887   1.688   2.265  1.9683 -2.3231  0.8913
   85SLPC  H13B 8044   0.836   1.541   2.336  0.7885  0.0082 -1.5001
   85SLPC  H13C 8045   0.757   1.585   2.196 -0.4392 -1.6932  0.9814
   85SLPC   C14 8046   0.600   1.590   2.399  0.0077 -0.2770 -0.4329
   85SLPC  H14A 8047   0.534   1.630   2.474 -1.7899 -1.1404 -1.5038
   85SLPC  H14B 8048   0.537   1.567   2.315 -2.3104 -1.1924  1.4563
   85SLPC  H14C 8049   0.653   1.510   2.450  0.7035 -0.0117 -0.7326
   85SLPC   C15 8050   0.641   1.798   2.275  0.0478 -0.6509 -0.0794
   85SLPC  H15A 8051   0.624   1.752   2.178 -0.5301  0.2044 -0.4003
   85SLPC  H15B 8052   0.554   1.848   2.316 -0.3271 -1.3402 -0.0106
   85SLPC  H15C 8053   0.704   1.884   2.259 -0.2704 -0.8064 -2.6352
   85SLPC   C12 8054   0.755   1.769   2.489  0.0678  0.2381  0.7270
   85SLPC  H12A 8055   0.677   1.823   2.540  0.3258  0.3687  0.9900
   85SLPC  H12B 8056   0.824   1.837   2.441  0.4690 -0.1317  0.7726
   85SLPC   C11 8057   0.837   1.676   2.586  0.1448  0.1612  0.1769
   85SLPC  H11A 8058   0.780   1.599   2.642 -1.7279  1.6502  0.4264
   85SLPC  H11B 8059   0.884   1.738   2.665  0.4205  1.1094 -0.7005
   85SLPC     P 8060   1.085   1.686   2.487  0.8270  0.1086  0.6197
   85SLPC   O13 8061   1.145   1.618   2.372 -0.1804  0.6177  0.7006
   85SLPC   O14 8062   1.075   1.833   2.469 -0.1635 -0.7968  0.2350
   85SLPC   O12 8063   0.948   1.613   2.515  0.3944 -0.1659 -0.1380
   85SLPC   O11 8064   1.170   1.656   2.612  0.2927 -0.4723  0.2706
   85SLPC    C1 8065   1.316   1.693   2.612  0.8020  0.2986 -0.2133
   85SLPC    HA 8066   1.352   1.731   2.514 -2.4651  1.1429 -1.2044
   85SLPC    HB 8067   1.333   1.780   2.679  0.5860  0.1734  0.0055
   85SLPC    C2 8068   1.401   1.578   2.665  0.2763 -0.2475  0.3523
   85SLPC    HS 8069   1.405   1.495   2.592  2.1071  1.3449 -1.4974
   85SLPC   O21 8070   1.368   1.552   2.803 -0.2688  0.1536 -0.4917
   85SLPC   C21 8071   1.324   1.436   2.833  0.1848 -0.1706  0.0359
   85SLPC   O22 8072   1.304   1.341   2.761  0.6367  0.2313 -0.5098
   85SLPC   C22 8073   1.287   1.440   2.986  0.2867  0.1003 -0.1367
   85SLPC   H2R 8074   1.387   1.454   3.035  0.1170 -0.0848  0.2637
   85SLPC   H2S 8075   1.219   1.526   3.003 -0.9792 -0.9695  0.3489
   85SLPC    C3 8076   1.549   1.624   2.664 -0.2772  0.1203  0.0096
   85SLPC    HX 8077   1.548   1.710   2.733  0.6097  0.8415 -0.8389
   85SLPC    HY 8078   1.594   1.650   2.565  1.2051 -0.0105  0.6285
   85SLPC   O31 8079   1.638   1.524   2.732 -0.5807 -0.4008  0.2963
   85SLPC   C31 8080   1.650   1.404   2.669  0.2170  0.7159  0.2385
   85SLPC   O32 8081   1.605   1.372   2.565  0.6431 -0.2604  0.0101
   85SLPC   C32 8082   1.742   1.311   2.746  0.4071  0.0661 -0.7665
   85SLPC   H2X 8083   1.845   1.314   2.704  0.3332 -1.0983 -1.0601
   85SLPC   H2Y 8084   1.716   1.208   2.713  1.2719 -0.0755 -1.0207
   85SLPC   C23 8085   1.223   1.307   3.034  0.1072 -0.6392  0.3102
   85SLPC   H3R 8086   1.274   1.226   2.978  0.8941  0.9711 -1.3973
   85SLPC   H3S 8087   1.121   1.302   2.991  0.6608 -4.5197 -0.9243
   85SLPC   C24 8088   1.232   1.304   3.193  0.1698 -0.2176  0.2947
   85SLPC   H4R 8089   1.221   1.405   3.238  3.7013 -0.6086  2.4932
   85SLPC   H4S 8090   1.340   1.283   3.213  0.0055 -2.0622 -0.5109
   85SLPC   C25 8091   1.141   1.196   3.245 -0.0255  0.0913 -0.1554
   85SLPC   H5R 8092   1.038   1.232   3.222 -0.6636 -0.2221  2.0191
   85SLPC   H5S 8093   1.140   1.099   3.191 -2.3049  0.2558 -0.5163
   85SLPC   C26 8094   1.144   1.164   3.393  0.8495  0.3849 -0.4290
   85SLPC   H6R 8095   1.177   1.248   3.457  1.3346  0.6086 -0.9688
   85SLPC   H6S 8096   1.207   1.074   3.410 -1.6004 -1.6388 -1.3260
   85SLPC   C27 8097   0.997   1.124   3.439 -0.6620 -0.9442  0.0466
   85SLPC   H7R 8098   0.960   1.054   3.361  0.5221 -1.7639  0.1891
   85SLPC   H7S 8099   0.934   1.212   3.466  2.2737  1.4887 -0.5376
   85SLPC   C28 8100   0.994   1.041   3.563  0.2839 -0.0323 -0.0782
   85SLPC   H8R 8101   1.070   0.960   3.562  1.7682  1.2292  1.9184
   85SLPC   H8S 8102   0.894   0.994   3.569  0.5314 -0.4397  1.1757
   85SLPC   C29 8103   1.026   1.136   3.682  0.1066 -0.1538 -0.3627
   85SLPC   H9R 8104   1.029   1.242   3.654 -1.2160 -0.0209 -0.0683
   85SLPC  C210 8105   1.077   1.091   3.801  0.0001 -0.2430 -0.0617
   85SLPC  H10R 8106   1.110   1.159   3.881  1.6920  0.2058 -1.0872
   85SLPC  C211 8107   1.099   0.941   3.842 -0.1424 -0.1210  0.2461
   85SLPC  H11R 8108   1.201   0.923   3.882 -1.2731 -1.4092  2.7850
   85SLPC  H11S 8109   1.094   0.885   3.746 -4.3065  0.6299 -0.1830
   85SLPC  C212 8110   1.007   0.879   3.931 -0.1736 -0.0054 -0.2803
   85SLPC  H12R 8111   0.932   0.822   3.874 -1.3299  1.9290 -0.7620
   85SLPC  C213 8112   0.994   0.889   4.062  0.7668  0.6633  0.2108
   85SLPC  H13R 8113   0.910   0.840   4.112  1.4501 -0.0227  0.7194
   85SLPC  C214 8114   1.082   0.960   4.167  0.4893 -0.4135  0.0761
   85SLPC  H14R 8115   1.052   1.067   4.167  1.6799  0.1480 -4.2811
   85SLPC  H14S 8116   1.187   0.971   4.132 -0.3574  0.0034 -2.6127
   85SLPC  C215 8117   1.057   0.893   4.303  0.0285 -0.3925  0.3776
   85SLPC  H15R 8118   1.088   0.787   4.292  0.9803 -0.0240 -0.5801
   85SLPC  H15S 8119   0.950   0.886   4.332 -0.0659 -1.1806 -0.1338
   85SLPC  C216 8120   1.137   0.961   4.415  0.5453  0.0697 -0.2113
   85SLPC  H16R 8121   1.097   1.063   4.435 -1.3005 -0.6322 -0.1528
   85SLPC  H16S 8122   1.245   0.962   4.388  0.3288  0.9455 -1.0947
   85SLPC  C217 8123   1.124   0.881   4.549  0.0312  0.1125  0.2254
   85SLPC  H17R 8124   1.193   0.924   4.624  2.1121 -0.6755 -1.1528
   85SLPC  H17S 8125   1.151   0.776   4.528 -0.3547  0.2135 -0.8643
   85SLPC  C218 8126   0.983   0.892   4.603 -0.1970  0.0127 -0.1365
   85SLPC  H18R 8127   0.907   0.844   4.538 -0.0957  3.2663 -2.9682
   85SLPC  H18S 8128   0.960   1.001   4.606  3.0667  0.7963  0.0183
   85SLPC  H18T 8129   0.974   0.845   4.703  0.4963  0.4749  0.1508
   85SLPC   C33 8130   1.749   1.317   2.902  0.6488 -0.5429 -0.5690
   85SLPC   H3X 8131   1.729   1.423   2.929  1.0251 -0.8384  0.9975
   85SLPC   H3Y 8132   1.853   1.294   2.935  2.2210  0.7916 -4.0623
   85SLPC   C34 8133   1.650   1.226   2.971 -0.7662  0.0025 -0.2498
   85SLPC   H4X 8134   1.643   1.135   2.907 -0.0569  0.4541 -1.0004
   85SLPC   H4Y 8135   1.548   1.270   2.966 -0.1386  1.4346 -1.7306
   85SLPC   C35 8136   1.678   1.182   3.118 -0.0283  0.2052 -0.6373
   85SLPC   H5X 8137   1.685   1.262   3.195  0.9891 -2.2568  1.9660
   85SLPC   H5Y 8138   1.774   1.129   3.130 -1.7045 -2.8229  0.4413
   85SLPC   C36 8139   1.567   1.083   3.169  0.2141 -0.2085 -0.2652
   85SLPC   H6X 8140   1.555   0.995   3.103 -1.8943 -0.1562 -0.0055
   85SLPC   H6Y 8141   1.470   1.135   3.184 -0.2398 -1.2960  0.7944
   85SLPC   C37 8142   1.609   1.024   3.309  0.8017  0.0620 -0.0695
   85SLPC   H7X 8143   1.645   1.100   3.382 -2.4925 -0.3359  2.2019
   85SLPC   H7Y 8144   1.693   0.954   3.292 -0.9887 -1.9205 -1.1470
   85SLPC   C38 8145   1.483   0.951   3.367 -0.3924 -0.7825 -0.2571
   85SLPC   H8X 8146   1.458   0.879   3.287  0.5689  0.9274 -2.1867
   85SLPC   H8Y 8147   1.404   1.028   3.380  0.3322 -0.0386 -0.1718
   85SLPC   C39 8148   1.509   0.881   3.499 -0.1479 -0.6749  0.0413
   85SLPC   H9X 8149   1.535   0.955   3.578 -1.6730 -0.7496  0.6487
   85SLPC   H9Y 8150   1.596   0.813   3.492 -0.5040 -1.1003 -0.3468
   85SLPC  C310 8151   1.395   0.804   3.549  0.7771  0.1558  0.0565
   85SLPC  H10X 8152   1.386   0.718   3.479  1.5372 -1.2355  1.5815
   85SLPC  H10Y 8153   1.300   0.859   3.531 -0.3651 -2.0138 -1.0758
   85SLPC  C311 8154   1.410   0.762   3.699  0.6062  0.1892  0.6853
   85SLPC  H11X 8155   1.314   0.714   3.729 -2.0486  4.0055 -0.8250
   85SLPC  H11Y 8156   1.426   0.853   3.762  0.0966 -0.3202  1.5811
   85SLPC  C312 8157   1.526   0.667   3.741 -0.1681 -0.0689 -0.5396
   85SLPC  H12X 8158   1.618   0.714   3.703  0.2153  0.7534  1.2735
   85SLPC  H12Y 8159   1.495   0.577   3.685  0.1469  1.4301 -3.2651
   85SLPC  C313 8160   1.534   0.648   3.893  0.1271  0.1521  0.4446
   85SLPC  H13X 8161   1.604   0.565   3.914 -0.3744 -0.5300 -0.5091
   85SLPC  H13Y 8162   1.432   0.618   3.927  0.0058  1.2409  1.0899
   85SLPC  C314 8163   1.586   0.765   3.977 -0.2165 -0.1599  0.2568
   85SLPC  H14X 8164   1.542   0.861   3.944  0.7615  0.0620 -0.4816
   85SLPC  H14Y 8165   1.695   0.773   3.956 -0.5256  0.1793 -1.4014
   85SLPC  C315 8166   1.555   0.749   4.128  0.3348  0.0648  0.1798
   85SLPC  H15X 8167   1.445   0.755   4.138  0.2109 -1.9909  0.5735
   85SLPC  H15Y 8168   1.586   0.837   4.188  1.8980  0.3218 -0.9360
   85SLPC  C316 8169   1.596   0.621   4.197  0.7224  0.8046  0.6801
   85SLPC  H16X 8170   1.578   0.530   4.135 -1.2583  0.2087  2.0212
   85SLPC  H16Y 8171   1.526   0.603   4.281  0.5831  1.6184  0.7527
   85SLPC  C317 8172   1.744   0.611   4.228 -0.3473 -0.3936 -0.2588
   85SLPC  H17X 8173   1.766   0.696   4.297 -1.0793  0.4871 -1.0757
   85SLPC  H17Y 8174   1.809   0.602   4.139  2.5359 -2.2680  1.8758
   85SLPC  C318 8175   1.758   0.473   4.311 -0.5642 -0.9841  0.2208
   85SLPC  H18X 8176   1.843   0.481   4.383  0.6454  3.2164 -1.3968
   85SLPC  H18Y 8177   1.772   0.388   4.240  2.0223  0.6206 -1.3530
   85SLPC  H18Z 8178   1.667   0.471   4.374 -1.6511  2.4386 -1.0184
   86SLPC     N 8179   6.645   6.342   2.058 -0.2329  0.0085  0.3620
   86SLPC   C13 8180   6.656   6.397   2.200 -0.3913  0.1040 -0.2900
   86SLPC  H13A 8181   6.665   6.504   2.192  2.0799  0.4195  3.7907
   86SLPC  H13B 8182   6.567   6.388   2.262 -2.2181  1.6785 -2.5086
   86SLPC  H13C 8183   6.741   6.349   2.246 -1.7750  0.6551  3.1057
   86SLPC   C14 8184   6.676   6.198   2.073 -0.3170  0.7222  0.1539
   86SLPC  H14A 8185   6.669   6.142   1.982  1.7661 -1.3619  1.1590
   86SLPC  H14B 8186   6.775   6.176   2.111 -0.3756  1.0615  0.5174
   86SLPC  H14C 8187   6.608   6.156   2.146  1.4861  1.4540  2.3989
   86SLPC   C15 8188   6.732   6.405   1.960 -0.5186 -0.0120 -0.1738
   86SLPC  H15A 8189   6.726   6.513   1.973 -0.6034 -0.2574  2.3264
   86SLPC  H15B 8190   6.835   6.374   1.971 -0.4005  0.7849  1.2468
   86SLPC  H15C 8191   6.701   6.372   1.862  1.2976 -4.0813  0.4327
   86SLPC   C12 8192   6.501   6.370   2.010 -0.3840  0.8788  0.4421
   86SLPC  H12A 8193   6.489   6.318   1.916  1.0342  1.2603  0.0258
   86SLPC  H12B 8194   6.489   6.477   2.001 -0.7608  0.7897 -0.2067
   86SLPC   C11 8195   6.392   6.318   2.106 -0.1351  0.4839  0.0237
   86SLPC  H11A 8196   6.410   6.212   2.134 -1.3112  0.7598  2.0460
   86SLPC  H11B 8197   6.299   6.325   2.046  0.6399  1.6225 -1.0849
   86SLPC     P 8198   6.267   6.477   2.284  0.2891 -0.1406  0.0890
   86SLPC   O13 8199   6.290   6.625   2.282 -0.0086 -0.1240 -0.5487
   86SLPC   O14 8200   6.143   6.428   2.224  0.0445  0.6184  0.0751
   86SLPC   O12 8201   6.386   6.402   2.219  0.0629  0.2419  0.1268
   86SLPC   O11 8202   6.277   6.420   2.431 -0.3467  0.0708 -0.1043
   86SLPC    C1 8203   6.402   6.422   2.501  0.9197  0.2119  0.1804
   86SLPC    HA 8204   6.455   6.325   2.499  0.1511 -0.2523  1.4021
   86SLPC    HB 8205   6.472   6.499   2.461  0.8346 -0.5196 -1.4602
   86SLPC    C2 8206   6.385   6.453   2.651 -0.6350  0.3556 -0.7109
   86SLPC    HS 8207   6.489   6.471   2.684 -0.9039 -0.8353  0.9236
   86SLPC   O21 8208   6.339   6.338   2.730  0.0817 -0.0652  0.2651
   86SLPC   C21 8209   6.423   6.237   2.741  0.9402  0.4186 -0.2682
   86SLPC   O22 8210   6.531   6.233   2.690  0.1666 -0.1206  0.1790
   86SLPC   C22 8211   6.372   6.134   2.839  0.1650  0.6958  0.3561
   86SLPC   H2R 8212   6.266   6.153   2.865 -0.1795  0.0152 -0.5051
   86SLPC   H2S 8213   6.394   6.037   2.790  2.5970  1.3379  0.0261
   86SLPC    C3 8214   6.305   6.575   2.688  0.3109  0.4432  0.6367
   86SLPC    HX 8215   6.198   6.552   2.667  0.8799 -2.2886  0.4225
   86SLPC    HY 8216   6.342   6.663   2.633  1.1253 -0.2446  0.0653
   86SLPC   O31 8217   6.315   6.603   2.831  0.1358  0.4914  0.3432
   86SLPC   C31 8218   6.243   6.706   2.871  0.0841  0.5463 -0.3811
   86SLPC   O32 8219   6.183   6.779   2.796  0.1051  0.1265  0.4764
   86SLPC   C32 8220   6.248   6.715   3.026  0.1109 -0.0665 -0.2826
   86SLPC   H2X 8221   6.350   6.736   3.064 -0.1113 -0.4309  0.5544
   86SLPC   H2Y 8222   6.225   6.611   3.059  0.4950  0.2323  0.9893
   86SLPC   C23 8223   6.457   6.132   2.967 -0.2130  0.7989  0.1825
   86SLPC   H3R 8224   6.463   6.237   3.002  1.8219  0.9990 -0.5736
   86SLPC   H3S 8225   6.565   6.118   2.943  0.1841  3.0068  0.4066
   86SLPC   C24 8226   6.411   6.025   3.072 -0.3466 -0.2021 -0.4420
   86SLPC   H4R 8227   6.442   5.923   3.040  0.2597 -1.1284  2.7718
   86SLPC   H4S 8228   6.301   6.027   3.089 -0.3403  0.0006 -0.4240
   86SLPC   C25 8229   6.471   6.062   3.215 -0.4697  0.2711  0.1563
   86SLPC   H5R 8230   6.452   6.172   3.218  0.1731  0.3732  0.6480
   86SLPC   H5S 8231   6.576   6.030   3.201 -1.4372 -3.1429 -0.1781
   86SLPC   C26 8232   6.399   5.982   3.327 -0.2253 -0.1777  0.1323
   86SLPC   H6R 8233   6.447   5.991   3.427  1.2470 -2.3064 -0.3016
   86SLPC   H6S 8234   6.416   5.877   3.296 -1.3237 -0.5395  0.7218
   86SLPC   C27 8235   6.247   5.995   3.342  0.0875 -0.8291  0.8244
   86SLPC   H7R 8236   6.196   5.967   3.248  1.3141  0.0326 -0.1326
   86SLPC   H7S 8237   6.215   6.101   3.351 -1.1869 -1.2791  2.0802
   86SLPC   C28 8238   6.182   5.918   3.452 -0.4899 -0.2433 -0.0452
   86SLPC   H8R 8239   6.212   5.811   3.457 -0.0385 -0.0727  1.9795
   86SLPC   H8S 8240   6.072   5.911   3.436 -0.3874 -3.5323 -0.0589
   86SLPC   C29 8241   6.202   5.971   3.589  0.0474 -0.2235 -0.4619
   86SLPC   H9R 8242   6.132   6.047   3.626 -0.9812 -0.5375 -1.6901
   86SLPC  C210 8243   6.273   5.919   3.691 -0.0749 -0.9543  0.0519
   86SLPC  H10R 8244   6.268   5.962   3.792  0.4713  1.5728 -0.9192
   86SLPC  C211 8245   6.369   5.804   3.692 -0.2335 -0.5366  0.3567
   86SLPC  H11R 8246   6.406   5.786   3.589  1.5600 -1.6160  1.1274
   86SLPC  H11S 8247   6.318   5.707   3.711  0.2751 -1.1223 -1.1755
   86SLPC  C212 8248   6.493   5.816   3.778  0.2699 -0.4358  0.2794
   86SLPC  H12R 8249   6.559   5.902   3.759  0.9449 -0.9415  0.2906
   86SLPC  C213 8250   6.523   5.745   3.890  0.0473 -0.2045  0.2635
   86SLPC  H13R 8251   6.610   5.774   3.951 -0.0999 -0.1689  0.4603
   86SLPC  C214 8252   6.442   5.631   3.954  0.5183  0.0960 -0.3153
   86SLPC  H14R 8253   6.512   5.549   3.981 -1.1248 -1.6144 -1.0254
   86SLPC  H14S 8254   6.355   5.588   3.900 -1.7533  1.9395  1.6567
   86SLPC  C215 8255   6.370   5.671   4.099  0.1248  0.0953 -0.0222
   86SLPC  H15R 8256   6.445   5.707   4.172  0.5118 -0.7444 -0.0055
   86SLPC  H15S 8257   6.327   5.584   4.152 -1.6996  1.1379  0.2953
   86SLPC  C216 8258   6.257   5.773   4.074 -1.0284  0.2325 -0.3519
   86SLPC  H16R 8259   6.191   5.736   3.992 -0.7486  0.0840 -0.5110
   86SLPC  H16S 8260   6.312   5.859   4.029  0.7301 -0.9392 -0.5605
   86SLPC  C217 8261   6.173   5.824   4.193 -0.7743  0.0530  0.0606
   86SLPC  H17R 8262   6.149   5.741   4.262 -0.3079 -0.0851  0.0583
   86SLPC  H17S 8263   6.083   5.883   4.163  0.5394  3.1522  1.6925
   86SLPC  C218 8264   6.262   5.916   4.277  0.6067  0.3485  0.5843
   86SLPC  H18R 8265   6.329   5.849   4.335 -2.9438 -1.4422  3.0156
   86SLPC  H18S 8266   6.199   5.971   4.351 -1.6773 -2.4807  0.9086
   86SLPC  H18T 8267   6.316   5.993   4.217 -1.1952  0.4819 -0.9580
   86SLPC   C33 8268   6.136   6.797   3.096 -0.1411  0.6991 -0.3584
   86SLPC   H3X 8269   6.036   6.776   3.054  0.2941 -0.2821 -0.9513
   86SLPC   H3Y 8270   6.156   6.904   3.072  2.5485 -0.0220 -1.7948
   86SLPC   C34 8271   6.145   6.795   3.254  0.7515 -1.0225  0.4271
   86SLPC   H4X 8272   6.250   6.792   3.290  0.2853 -1.7983  1.7523
   86SLPC   H4Y 8273   6.101   6.699   3.286  1.2798 -1.3672  0.1414
   86SLPC   C35 8274   6.063   6.908   3.309  0.1310 -0.0858 -0.5503
   86SLPC   H5X 8275   5.962   6.877   3.276  0.7645 -0.2587 -2.4348
   86SLPC   H5Y 8276   6.073   7.006   3.258 -1.5614  1.3379  1.6446
   86SLPC   C36 8277   6.068   6.921   3.458  0.5604  0.1536 -0.6043
   86SLPC   H6X 8278   6.016   6.831   3.498  0.7314  0.5089  0.4610
   86SLPC   H6Y 8279   6.008   7.007   3.495 -0.7277 -0.3817 -1.3488
   86SLPC   C37 8280   6.195   6.935   3.531 -0.5009  0.2373  0.0044
   86SLPC   H7X 8281   6.264   7.017   3.502 -0.3230  0.5611  1.2586
   86SLPC   H7Y 8282   6.245   6.836   3.518 -0.4365  0.4068 -1.1224
   86SLPC   C38 8283   6.177   6.945   3.687 -1.0637 -0.4104  0.5099
   86SLPC   H8X 8284   6.127   6.852   3.720 -0.5659 -1.8586 -2.4988
   86SLPC   H8Y 8285   6.130   7.037   3.728  1.9504  0.4340  2.4637
   86SLPC   C39 8286   6.319   6.955   3.759  0.7521  0.7369 -0.0471
   86SLPC   H9X 8287   6.371   7.050   3.734  0.2641  0.4927 -2.1665
   86SLPC   H9Y 8288   6.391   6.879   3.721 -0.1045  0.2723 -0.7782
   86SLPC  C310 8289   6.311   6.936   3.911 -0.1881 -0.8849  0.2671
   86SLPC  H10X 8290   6.244   7.016   3.949 -0.0335 -0.4407 -0.3679
   86SLPC  H10Y 8291   6.410   6.936   3.960 -0.6863  0.9103  1.3488
   86SLPC  C311 8292   6.260   6.796   3.951  0.5572 -0.2290  0.1646
   86SLPC  H11X 8293   6.334   6.722   3.914  0.7558  0.8615 -1.7685
   86SLPC  H11Y 8294   6.162   6.775   3.905 -0.8259  1.8582  1.9547
   86SLPC  C312 8295   6.244   6.786   4.105  0.0057 -0.4578 -0.1696
   86SLPC  H12X 8296   6.190   6.874   4.145  0.3975 -0.6162  0.7308
   86SLPC  H12Y 8297   6.347   6.797   4.143  0.4451 -0.8996 -1.1976
   86SLPC  C313 8298   6.172   6.662   4.158 -0.1609 -0.0226 -1.1423
   86SLPC  H13X 8299   6.214   6.630   4.256  1.3783  0.1814 -1.7167
   86SLPC  H13Y 8300   6.180   6.579   4.085 -2.6651 -0.6606 -0.7815
   86SLPC  C314 8301   6.016   6.687   4.176 -0.5058  0.0310 -0.5775
   86SLPC  H14X 8302   5.970   6.729   4.085 -2.1234 -1.0649 -0.3059
   86SLPC  H14Y 8303   6.017   6.774   4.246 -0.1549 -0.6967  0.3372
   86SLPC  C315 8304   5.951   6.567   4.238 -0.0122 -0.1699 -0.9770
   86SLPC  H15X 8305   5.842   6.583   4.256  0.1870  0.5830 -0.3593
   86SLPC  H15Y 8306   5.990   6.548   4.341 -3.3636 -0.4346  0.3859
   86SLPC  C316 8307   5.969   6.434   4.166  0.4993 -0.2099  0.5721
   86SLPC  H16X 8308   6.075   6.418   4.134  0.3480  1.9351 -1.2679
   86SLPC  H16Y 8309   5.912   6.434   4.070 -1.0601 -0.4994  1.4786
   86SLPC  C317 8310   5.914   6.328   4.266 -0.2373  0.3736  0.0204
   86SLPC  H17X 8311   5.806   6.354   4.278  0.0512  1.7235 -0.1545
   86SLPC  H17Y 8312   5.958   6.340   4.367 -0.1702 -1.0743  0.1811
   86SLPC  C318 8313   5.922   6.187   4.205  0.8045 -0.4140  0.2796
   86SLPC  H18X 8314   5.871   6.180   4.106  0.4583 -3.1175  0.5772
   86SLPC  H18Y 8315   5.873   6.115   4.274 -0.7040 -1.0797 -1.4152
   86SLPC  H18Z 8316   6.028   6.157   4.197  0.5398 -0.9388 -2.1715
   87SLPC     N 8317   6.347   5.048   1.925 -0.3811 -0.1683 -0.0608
   87SLPC   C13 8318   6.353   4.915   1.986 -0.4854  0.0772  0.1507
   87SLPC  H13A 8319   6.336   4.930   2.092 -0.0083 -1.0119  0.3946
   87SLPC  H13B 8320   6.273   4.853   1.949  2.2733 -2.7714 -1.5259
   87SLPC  H13C 8321   6.446   4.862   1.972 -1.7769 -2.3348  0.2217
   87SLPC   C14 8322   6.289   5.035   1.783 -0.0664  0.7754 -0.0183
   87SLPC  H14A 8323   6.266   5.129   1.736 -0.1148  0.6932 -0.1601
   87SLPC  H14B 8324   6.353   4.971   1.723  0.1299 -0.0111  0.9973
   87SLPC  H14C 8325   6.197   4.978   1.778  1.3627 -1.7819  0.6033
   87SLPC   C15 8326   6.486   5.107   1.910  0.5753  0.8969 -0.1190
   87SLPC  H15A 8327   6.552   5.057   1.841  1.7443  0.5903  1.1703
   87SLPC  H15B 8328   6.465   5.205   1.868 -0.6166  2.0401  2.8665
   87SLPC  H15C 8329   6.539   5.122   2.003  1.0411  1.2106 -0.4273
   87SLPC   C12 8330   6.256   5.146   2.001 -0.4001 -0.9828 -0.3561
   87SLPC  H12A 8331   6.168   5.088   2.026  0.0191 -0.8606  1.5048
   87SLPC  H12B 8332   6.217   5.216   1.928 -1.3465  0.4947  1.4934
   87SLPC   C11 8333   6.294   5.215   2.132  0.0767 -0.2084  0.1579
   87SLPC  H11A 8334   6.339   5.141   2.201  0.3140  0.2183  0.4574
   87SLPC  H11B 8335   6.200   5.251   2.178  0.0140  1.7645 -1.3668
   87SLPC     P 8336   6.330   5.464   2.066 -0.2173  0.1783 -0.0890
   87SLPC   O13 8337   6.452   5.547   2.035  0.0413 -0.0823  0.0311
   87SLPC   O14 8338   6.233   5.445   1.961 -0.0111 -0.1993 -0.1886
   87SLPC   O12 8339   6.389   5.319   2.103  0.4332  0.2845  0.1978
   87SLPC   O11 8340   6.259   5.520   2.196  0.5690  0.1281 -0.0438
   87SLPC    C1 8341   6.342   5.539   2.310  0.0946 -0.1365  0.2810
   87SLPC    HA 8342   6.450   5.530   2.287  0.1743 -1.3465  1.0684
   87SLPC    HB 8343   6.334   5.648   2.334 -1.5798 -0.1090 -0.2697
   87SLPC    C2 8344   6.299   5.445   2.429  0.1403  0.1477 -0.1177
   87SLPC    HS 8345   6.285   5.340   2.394  0.8967 -0.5546  1.5570
   87SLPC   O21 8346   6.175   5.494   2.489  0.6769  0.1121  0.0259
   87SLPC   C21 8347   6.067   5.454   2.436 -0.2421  0.1925 -0.0177
   87SLPC   O22 8348   6.056   5.369   2.348  0.2051  0.3333  0.0183
   87SLPC   C22 8349   5.954   5.538   2.490  0.5388  0.4559 -1.6974
   87SLPC   H2R 8350   5.991   5.630   2.539 -0.4152  0.2978 -0.6552
   87SLPC   H2S 8351   5.879   5.558   2.409 -1.9400  0.6757  0.5238
   87SLPC    C3 8352   6.404   5.449   2.548  0.7523  0.6617  0.1812
   87SLPC    HX 8353   6.401   5.549   2.597 -1.3682 -0.1825  1.9385
   87SLPC    HY 8354   6.500   5.425   2.497  1.2931  2.5491  0.2490
   87SLPC   O31 8355   6.375   5.345   2.643 -0.7276 -0.1364  0.2408
   87SLPC   C31 8356   6.473   5.324   2.723  0.2433 -0.0678 -1.3060
   87SLPC   O32 8357   6.582   5.387   2.723 -0.1034  1.0416 -0.6140
   87SLPC   C32 8358   6.449   5.201   2.813  1.1111  0.6585 -0.0500
   87SLPC   H2X 8359   6.533   5.177   2.881  0.2026 -2.4161  0.1163
   87SLPC   H2Y 8360   6.435   5.117   2.742 -0.2076  1.0091 -0.2341
   87SLPC   C23 8361   5.885   5.456   2.605 -0.5574 -0.0414 -0.1812
   87SLPC   H3R 8362   5.960   5.443   2.685 -0.5616 -0.4867 -0.2430
   87SLPC   H3S 8363   5.873   5.353   2.564 -2.2458  0.3723 -0.8356
   87SLPC   C24 8364   5.759   5.515   2.661 -0.3754  0.5230 -0.3435
   87SLPC   H4R 8365   5.681   5.551   2.591 -0.6398  1.7448  0.5413
   87SLPC   H4S 8366   5.787   5.602   2.726  1.8833 -0.0315 -0.4920
   87SLPC   C25 8367   5.676   5.406   2.744 -0.1531 -0.5055  0.4030
   87SLPC   H5R 8368   5.653   5.314   2.687 -2.1823  0.9240 -1.2263
   87SLPC   H5S 8369   5.570   5.433   2.760 -0.2852 -1.9757  2.4663
   87SLPC   C26 8370   5.746   5.373   2.878  0.0196 -0.5995 -1.2366
   87SLPC   H6R 8371   5.769   5.463   2.939 -3.3762 -1.9671  2.5125
   87SLPC   H6S 8372   5.842   5.323   2.851  2.4970  2.1613  1.6505
   87SLPC   C27 8373   5.664   5.283   2.975  0.5515  0.4169 -0.3553
   87SLPC   H7R 8374   5.620   5.207   2.907  0.5316 -1.1231  1.3059
   87SLPC   H7S 8375   5.577   5.338   3.018 -1.3775 -2.2136 -0.6330
   87SLPC   C28 8376   5.749   5.212   3.076  0.6480  0.1810 -0.8483
   87SLPC   H8R 8377   5.829   5.156   3.023  0.2991 -0.9912 -0.1656
   87SLPC   H8S 8378   5.688   5.140   3.135 -0.9831  1.6055 -0.6972
   87SLPC   C29 8379   5.807   5.310   3.164 -0.5898 -0.5530  0.3315
   87SLPC   H9R 8380   5.889   5.365   3.115 -0.7188 -1.5634 -1.0803
   87SLPC  C210 8381   5.787   5.336   3.290  0.1259 -0.5286 -0.5993
   87SLPC  H10R 8382   5.849   5.420   3.325 -1.4882  0.3659  0.1996
   87SLPC  C211 8383   5.688   5.273   3.384  0.5060 -0.0149 -0.8330
   87SLPC  H11R 8384   5.605   5.222   3.330  1.0733 -0.3404 -1.4112
   87SLPC  H11S 8385   5.650   5.358   3.445  1.8239 -0.0103  0.0256
   87SLPC  C212 8386   5.768   5.174   3.469  0.7868 -0.1298 -0.2439
   87SLPC  H12R 8387   5.767   5.073   3.425 -0.3360  0.2972 -1.2292
   87SLPC  C213 8388   5.796   5.186   3.596  0.4142 -0.0707  0.0250
   87SLPC  H13R 8389   5.845   5.099   3.642  1.9713  0.3586 -0.7563
   87SLPC  C214 8390   5.770   5.300   3.689  0.1595 -0.3326 -0.9372
   87SLPC  H14R 8391   5.735   5.391   3.635 -0.9658 -0.4273 -0.3804
   87SLPC  H14S 8392   5.861   5.333   3.744 -1.3204 -0.1285  1.5598
   87SLPC  C215 8393   5.666   5.251   3.795  0.1393  0.0391  0.4590
   87SLPC  H15R 8394   5.716   5.174   3.858  0.3224 -0.0476  0.2066
   87SLPC  H15S 8395   5.582   5.200   3.744  1.6494 -2.1936  0.0675
   87SLPC  C216 8396   5.614   5.363   3.884 -0.5497 -0.4932  0.0513
   87SLPC  H16R 8397   5.565   5.444   3.824  0.9299  1.2170  1.0433
   87SLPC  H16S 8398   5.698   5.423   3.925  0.9611 -2.1293 -0.5505
   87SLPC  C217 8399   5.527   5.302   3.997 -0.7816 -0.5990 -0.0347
   87SLPC  H17R 8400   5.593   5.227   4.047  1.6041 -0.3253 -2.5163
   87SLPC  H17S 8401   5.440   5.256   3.946 -0.3304  0.3069 -1.6732
   87SLPC  C218 8402   5.482   5.407   4.100 -0.5283 -0.6021 -0.5156
   87SLPC  H18R 8403   5.411   5.483   4.060  0.4917  0.2497 -0.7545
   87SLPC  H18S 8404   5.565   5.472   4.134 -1.3312 -0.0272  0.3905
   87SLPC  H18T 8405   5.432   5.365   4.189  0.5206  1.0483  0.9114
   87SLPC   C33 8406   6.307   5.196   2.887  0.8100 -0.4998 -0.0760
   87SLPC   H3X 8407   6.218   5.196   2.821  0.5989 -0.4054  0.2075
   87SLPC   H3Y 8408   6.297   5.284   2.954 -0.7791  0.5008 -1.5411
   87SLPC   C34 8409   6.296   5.071   2.972 -0.0195 -0.4157  1.0817
   87SLPC   H4X 8410   6.374   5.076   3.051  0.2620 -2.5852  0.9920
   87SLPC   H4Y 8411   6.316   4.982   2.909  1.1729  1.8743 -2.0571
   87SLPC   C35 8412   6.156   5.052   3.034  0.1399 -0.3859 -0.3537
   87SLPC   H5X 8413   6.105   4.962   2.995 -2.2450 -0.3259  2.2792
   87SLPC   H5Y 8414   6.098   5.137   2.993 -0.4519 -1.3481 -1.5475
   87SLPC   C36 8415   6.147   5.031   3.187  0.3471  0.0459 -0.5410
   87SLPC   H6X 8416   6.211   4.947   3.220 -0.4949 -0.6803 -0.7178
   87SLPC   H6Y 8417   6.043   5.004   3.215  0.2345  1.9414  1.0766
   87SLPC   C37 8418   6.183   5.152   3.270  0.1544 -0.3656 -0.1501
   87SLPC   H7X 8419   6.093   5.218   3.270  0.4198  0.0027 -0.4772
   87SLPC   H7Y 8420   6.266   5.211   3.225  1.4197 -1.9833 -0.0492
   87SLPC   C38 8421   6.229   5.113   3.412 -0.4172 -0.5247 -0.5821
   87SLPC   H8X 8422   6.317   5.048   3.391 -1.2314 -2.4296  1.5408
   87SLPC   H8Y 8423   6.141   5.060   3.454 -0.4113  1.4604  2.2263
   87SLPC   C39 8424   6.276   5.213   3.508 -0.0041  0.0908  0.7959
   87SLPC   H9X 8425   6.314   5.306   3.459 -0.5062 -0.0951  0.0411
   87SLPC   H9Y 8426   6.363   5.172   3.564  3.0227  1.9069 -2.1865
   87SLPC  C310 8427   6.167   5.264   3.611 -0.0736 -0.4185  0.3398
   87SLPC  H10X 8428   6.143   5.182   3.681 -0.6651 -0.6313 -0.0984
   87SLPC  H10Y 8429   6.084   5.298   3.545  0.6763  0.1993 -0.3016
   87SLPC  C311 8430   6.230   5.380   3.690 -0.3387 -0.5731  0.2336
   87SLPC  H11X 8431   6.269   5.460   3.623 -1.0294  0.7802  1.4072
   87SLPC  H11Y 8432   6.317   5.344   3.749 -0.7832 -2.2856 -0.0918
   87SLPC  C312 8433   6.133   5.457   3.781  0.3092  0.3094  0.0347
   87SLPC  H12X 8434   6.040   5.474   3.721  0.7236 -0.3636 -0.8152
   87SLPC  H12Y 8435   6.169   5.562   3.790  0.2901  0.3594 -0.4343
   87SLPC  C313 8436   6.103   5.395   3.914  0.7129  0.0366 -0.0943
   87SLPC  H13X 8437   6.200   5.401   3.968  1.7870  0.8006 -2.0074
   87SLPC  H13Y 8438   6.079   5.287   3.901  1.1670 -0.0274 -0.4236
   87SLPC  C314 8439   5.989   5.468   3.989 -0.0278 -0.0010  0.2303
   87SLPC  H14X 8440   5.904   5.478   3.918 -0.1657  0.3406  0.4386
   87SLPC  H14Y 8441   6.029   5.567   4.020  1.3395 -0.2824 -0.5487
   87SLPC  C315 8442   5.935   5.395   4.115  0.1545 -0.4643 -0.0045
   87SLPC  H15X 8443   5.996   5.306   4.136  0.8852  0.1955  0.7272
   87SLPC  H15Y 8444   5.828   5.367   4.108 -0.4591  1.2876  1.5799
   87SLPC  C316 8445   5.945   5.483   4.245  0.2748  0.7786 -0.3941
   87SLPC  H16X 8446   6.034   5.549   4.259 -1.7673  3.2145  2.2564
   87SLPC  H16Y 8447   5.948   5.423   4.339  2.3622  1.4876  0.0502
   87SLPC  C317 8448   5.832   5.577   4.249 -0.0348 -0.8783  0.3036
   87SLPC  H17X 8449   5.739   5.519   4.235  0.8931 -1.7540 -3.4266
   87SLPC  H17Y 8450   5.837   5.632   4.152  1.8865 -1.1237  0.2148
   87SLPC  C318 8451   5.829   5.671   4.370 -0.3581 -0.1017  0.4764
   87SLPC  H18X 8452   5.737   5.733   4.360  0.0954  0.4638 -0.2590
   87SLPC  H18Y 8453   5.920   5.734   4.367 -1.8851  2.2131  0.2001
   87SLPC  H18Z 8454   5.818   5.619   4.467  0.7339  1.9775  1.7978
   88SLPC     N 8455   0.933   6.744   2.338 -0.6038  0.0472 -0.1653
   88SLPC   C13 8456   0.792   6.795   2.361  0.0324 -0.5626 -0.4424
   88SLPC  H13A 8457   0.798   6.874   2.435  0.0764 -0.6672 -0.3347
   88SLPC  H13B 8458   0.743   6.834   2.273  0.1594 -0.0345 -0.2830
   88SLPC  H13C 8459   0.737   6.719   2.414  0.1051 -0.1991  0.1660
   88SLPC   C14 8460   0.925   6.617   2.259  0.2087  0.1135 -0.1546
   88SLPC  H14A 8461   0.873   6.547   2.322 -2.3022  2.3240  0.4137
   88SLPC  H14B 8462   0.857   6.637   2.178  0.1150  0.8708  0.1025
   88SLPC  H14C 8463   1.015   6.578   2.214 -0.8614 -1.4502 -1.0368
   88SLPC   C15 8464   0.996   6.704   2.465  0.0143 -0.6795 -0.0979
   88SLPC  H15A 8465   0.945   6.619   2.508 -1.8338  0.4402  0.0274
   88SLPC  H15B 8466   1.097   6.669   2.450  0.5441  1.0499 -0.7449
   88SLPC  H15C 8467   0.985   6.781   2.541 -1.8297 -2.1890  1.2682
   88SLPC   C12 8468   1.019   6.843   2.267 -0.3172  0.3454  0.7320
   88SLPC  H12A 8469   1.030   6.943   2.306  4.3221 -0.1171  1.2259
   88SLPC  H12B 8470   0.983   6.854   2.166  0.0348 -1.9375  0.3062
   88SLPC   C11 8471   1.173   6.802   2.258  0.5029  0.1751  0.4935
   88SLPC  H11A 8472   1.226   6.821   2.354  3.0329 -0.8492 -0.6282
   88SLPC  H11B 8473   1.219   6.873   2.187  0.4287 -1.3374 -1.1215
   88SLPC     P 8474   1.314   6.573   2.240 -0.1796 -0.2981 -0.1070
   88SLPC   O13 8475   1.252   6.460   2.313 -0.4688  0.1925 -0.1625
   88SLPC   O14 8476   1.384   6.550   2.114  0.0663 -0.0390 -0.2423
   88SLPC   O12 8477   1.199   6.673   2.210 -0.5722 -0.2768 -0.0942
   88SLPC   O11 8478   1.399   6.658   2.341  0.8140  0.0163 -0.3342
   88SLPC    C1 8479   1.522   6.720   2.293 -0.5963  0.0559 -0.3563
   88SLPC    HA 8480   1.584   6.657   2.225 -0.9012  1.7047 -2.2771
   88SLPC    HB 8481   1.496   6.810   2.233 -1.0912 -1.0862 -1.9387
   88SLPC    C2 8482   1.614   6.768   2.415  0.1030  0.2648  0.4791
   88SLPC    HS 8483   1.715   6.789   2.376 -0.4308  0.2779 -0.9637
   88SLPC   O21 8484   1.621   6.664   2.522  0.0144 -0.5957 -0.4872
   88SLPC   C21 8485   1.666   6.548   2.480 -0.1398 -0.3621 -0.3690
   88SLPC   O22 8486   1.718   6.530   2.371  0.2164  0.5685 -0.6286
   88SLPC   C22 8487   1.653   6.442   2.596  0.2255  0.7205  0.5511
   88SLPC   H2R 8488   1.556   6.389   2.583  0.5277 -0.0837  1.4648
   88SLPC   H2S 8489   1.738   6.371   2.583 -1.0834 -1.2033  1.9712
   88SLPC    C3 8490   1.562   6.905   2.472  0.0695  0.0937 -0.7293
   88SLPC    HX 8491   1.453   6.910   2.491  0.1253 -0.6029 -0.1930
   88SLPC    HY 8492   1.574   6.977   2.388 -2.5338  2.3956  0.6719
   88SLPC   O31 8493   1.639   6.943   2.585 -0.0106 -0.3822 -0.1893
   88SLPC   C31 8494   1.594   6.900   2.706 -0.9600 -0.0041 -0.1563
   88SLPC   O32 8495   1.482   6.860   2.726 -0.3049  0.2119  0.2034
   88SLPC   C32 8496   1.710   6.885   2.807 -0.4109 -0.1838 -0.2960
   88SLPC   H2X 8497   1.782   6.963   2.774 -0.8739  0.2663 -0.2458
   88SLPC   H2Y 8498   1.754   6.783   2.801 -0.1558 -0.0387 -1.0121
   88SLPC   C23 8499   1.680   6.504   2.730  0.3601  0.2553  0.3174
   88SLPC   H3R 8500   1.604   6.575   2.769  1.0965  0.3332  1.6658
   88SLPC   H3S 8501   1.771   6.567   2.722  0.5747  0.0691  1.1558
   88SLPC   C24 8502   1.707   6.394   2.832 -0.0040 -0.3372 -0.7145
   88SLPC   H4R 8503   1.777   6.313   2.801 -0.8704 -2.0932  1.6684
   88SLPC   H4S 8504   1.614   6.340   2.860  0.0772 -0.8829 -1.4579
   88SLPC   C25 8505   1.761   6.453   2.965  0.5555  0.5500 -1.0603
   88SLPC   H5R 8506   1.685   6.528   2.993 -0.0052 -0.8066  1.3426
   88SLPC   H5S 8507   1.853   6.514   2.949  0.3817  0.4989 -2.3808
   88SLPC   C26 8508   1.781   6.355   3.072  0.1431  0.2770  0.3441
   88SLPC   H6R 8509   1.874   6.296   3.057  0.5453  0.7598  0.8969
   88SLPC   H6S 8510   1.689   6.293   3.078  0.6895 -0.4161  2.6879
   88SLPC   C27 8511   1.796   6.423   3.215 -0.2784  0.2891  0.4012
   88SLPC   H7R 8512   1.708   6.486   3.238  0.4270  1.6933 -0.5421
   88SLPC   H7S 8513   1.882   6.493   3.209 -0.4018  0.4622  0.6616
   88SLPC   C28 8514   1.820   6.313   3.323  0.0275 -0.6360  0.4197
   88SLPC   H8R 8515   1.914   6.269   3.284  1.9761  1.0002  2.9511
   88SLPC   H8S 8516   1.747   6.230   3.337 -2.3561  1.3024  0.1478
   88SLPC   C29 8517   1.856   6.373   3.459  0.2229 -0.1944  0.4473
   88SLPC   H9R 8518   1.762   6.416   3.496 -0.3064 -2.0103  1.3523
   88SLPC  C210 8519   1.971   6.397   3.522  0.4085 -0.1899 -0.1437
   88SLPC  H10R 8520   1.958   6.454   3.615 -1.9336 -1.7253  0.5752
   88SLPC  C211 8521   2.109   6.355   3.489 -0.1294 -0.2680  0.4859
   88SLPC  H11R 8522   2.165   6.446   3.457 -0.2074 -0.0363  0.9881
   88SLPC  H11S 8523   2.114   6.291   3.399  0.4133  0.4432 -0.0103
   88SLPC  C212 8524   2.174   6.270   3.594  0.2134  0.4414 -0.0365
   88SLPC  H12R 8525   2.184   6.166   3.559  2.1858  0.7438 -0.4566
   88SLPC  C213 8526   2.218   6.301   3.717  0.3824  0.6767 -0.1260
   88SLPC  H13R 8527   2.248   6.210   3.771 -0.9219 -1.3482 -2.6206
   88SLPC  C214 8528   2.223   6.430   3.785 -0.8526  0.0474  0.0163
   88SLPC  H14R 8529   2.136   6.440   3.854  1.1512  0.1400  2.6986
   88SLPC  H14S 8530   2.213   6.509   3.708  0.9730 -1.1365 -1.4993
   88SLPC  C215 8531   2.362   6.446   3.853 -0.0917  0.5949  0.0320
   88SLPC  H15R 8532   2.363   6.360   3.922  0.3612  0.3994 -0.2187
   88SLPC  H15S 8533   2.369   6.540   3.912  0.1804 -0.0815  1.0860
   88SLPC  C216 8534   2.499   6.434   3.782  0.5309  0.2290 -0.1724
   88SLPC  H16R 8535   2.511   6.511   3.703 -0.1694 -0.7195 -1.2397
   88SLPC  H16S 8536   2.522   6.336   3.735 -1.8892 -0.3034 -0.3449
   88SLPC  C217 8537   2.617   6.456   3.873 -0.8107 -0.0031 -0.1206
   88SLPC  H17R 8538   2.711   6.434   3.819  0.0605  2.2361  0.3539
   88SLPC  H17S 8539   2.612   6.376   3.950 -2.5175 -0.7317 -0.9240
   88SLPC  C218 8540   2.630   6.596   3.940 -0.3031 -0.1665 -0.0295
   88SLPC  H18R 8541   2.536   6.626   3.991  0.6627  1.9902  0.6300
   88SLPC  H18S 8542   2.650   6.668   3.858  2.0808 -1.8713 -1.0555
   88SLPC  H18T 8543   2.713   6.598   4.014 -0.5205 -0.5458  0.2234
   88SLPC   C33 8544   1.661   6.915   2.949 -0.0035 -0.2520  0.7361
   88SLPC   H3X 8545   1.563   6.865   2.964  0.6309 -1.0324  2.6767
   88SLPC   H3Y 8546   1.655   7.025   2.962  0.8076  0.0020 -0.8937
   88SLPC   C34 8547   1.761   6.863   3.054  0.3409  0.3556 -0.5001
   88SLPC   H4X 8548   1.844   6.936   3.066 -1.2999  2.5342 -1.5339
   88SLPC   H4Y 8549   1.816   6.771   3.028  2.8472  0.7019  2.9601
   88SLPC   C35 8550   1.685   6.818   3.180  0.1229 -0.3150 -0.4893
   88SLPC   H5X 8551   1.617   6.731   3.167  0.9403 -0.9914 -0.3152
   88SLPC   H5Y 8552   1.625   6.904   3.215 -1.2566 -3.0619  4.9611
   88SLPC   C36 8553   1.784   6.800   3.298 -0.2535 -0.1945  0.9447
   88SLPC   H6X 8554   1.840   6.896   3.300 -0.2180  0.0259 -2.8371
   88SLPC   H6Y 8555   1.861   6.722   3.278 -1.0566 -0.8686  0.4444
   88SLPC   C37 8556   1.716   6.768   3.431  0.7449  0.2659  0.0029
   88SLPC   H7X 8557   1.663   6.671   3.425 -0.0480  0.5554  1.8479
   88SLPC   H7Y 8558   1.636   6.843   3.448  2.8069  2.9233 -1.2154
   88SLPC   C38 8559   1.811   6.775   3.548 -0.1578 -0.2211  0.1429
   88SLPC   H8X 8560   1.837   6.881   3.568 -0.7575 -0.0159 -0.1500
   88SLPC   H8Y 8561   1.903   6.721   3.517 -0.1915 -0.2016  0.0083
   88SLPC   C39 8562   1.750   6.708   3.672  0.8118 -0.7607  0.1988
   88SLPC   H9X 8563   1.689   6.618   3.650 -3.5361  1.5482  1.5847
   88SLPC   H9Y 8564   1.680   6.784   3.713  0.8238  0.3863 -1.7703
   88SLPC  C310 8565   1.865   6.694   3.776 -0.2302  0.0445  0.1313
   88SLPC  H10X 8566   1.905   6.795   3.797  2.0610 -0.8460  0.3860
   88SLPC  H10Y 8567   1.944   6.637   3.722 -0.4888 -0.9834  0.8110
   88SLPC  C311 8568   1.835   6.613   3.903  0.6212 -0.5494  0.1304
   88SLPC  H11X 8569   1.770   6.678   3.965 -0.1016  0.4223 -1.5739
   88SLPC  H11Y 8570   1.933   6.598   3.952 -0.4767 -0.6707  2.4369
   88SLPC  C312 8571   1.779   6.475   3.887 -0.1150 -0.2049  0.0322
   88SLPC  H12X 8572   1.817   6.412   3.804 -3.3679 -1.9293 -0.3326
   88SLPC  H12Y 8573   1.671   6.490   3.866  0.1031  1.0574 -0.2805
   88SLPC  C313 8574   1.787   6.389   4.015 -0.4691  0.3844 -0.4195
   88SLPC  H13X 8575   1.731   6.294   3.996  1.1044 -0.1115 -3.0968
   88SLPC  H13Y 8576   1.722   6.441   4.088  0.4025  0.2116  0.5086
   88SLPC  C314 8577   1.921   6.353   4.079  0.3735 -0.2457  0.1871
   88SLPC  H14X 8578   1.975   6.445   4.109 -1.3530  0.7637  0.3102
   88SLPC  H14Y 8579   1.987   6.312   3.999  2.1424  0.7216  1.0673
   88SLPC  C315 8580   1.915   6.254   4.192 -0.5543  0.1659 -0.5136
   88SLPC  H15X 8581   1.868   6.161   4.155 -1.3601  0.8421 -1.2449
   88SLPC  H15Y 8582   1.849   6.300   4.269  0.5171  0.9069 -0.0205
   88SLPC  C316 8583   2.062   6.232   4.238 -0.4705 -0.2611 -0.1620
   88SLPC  H16X 8584   2.105   6.323   4.287  2.1977 -0.4900 -1.9038
   88SLPC  H16Y 8585   2.127   6.208   4.152  0.7758  4.3612 -0.7937
   88SLPC  C317 8586   2.073   6.116   4.329 -0.3528 -0.5854  0.4232
   88SLPC  H17X 8587   2.050   6.023   4.273 -1.8718  0.1744 -0.2643
   88SLPC  H17Y 8588   2.000   6.123   4.413  0.1624  1.5161  0.7508
   88SLPC  C318 8589   2.218   6.107   4.393 -0.8410  0.1375  0.3876
   88SLPC  H18X 8590   2.232   6.010   4.446  0.1480  0.5826  0.9559
   88SLPC  H18Y 8591   2.243   6.192   4.460  0.4616  0.3403 -0.3218
   88SLPC  H18Z 8592   2.279   6.111   4.300 -1.1103  0.1095  0.2081
   89SAPE     N 8593   4.029   6.187   6.210 -0.3422  0.0834  0.2216
   89SAPE   HN1 8594   3.985   6.222   6.123 -1.7235 -1.7760  0.1064
   89SAPE   HN2 8595   3.951   6.212   6.274 -0.6084 -0.2464  0.0316
   89SAPE   HN3 8596   4.111   6.242   6.242  1.2486 -0.5177 -2.4649
   89SAPE   C12 8597   4.070   6.047   6.201  0.6971  1.0671 -0.2975
   89SAPE  H12A 8598   4.144   6.034   6.118 -0.0449  0.1502 -0.8410
   89SAPE  H12B 8599   3.980   5.983   6.185  0.8902  0.5672  0.5352
   89SAPE   C11 8600   4.151   6.006   6.327 -0.0222 -0.0898 -0.4314
   89SAPE  H11A 8601   4.241   6.071   6.337  0.1525 -0.1636 -1.3972
   89SAPE  H11B 8602   4.200   5.909   6.304  0.3597  0.2490 -1.1023
   89SAPE     P 8603   4.035   5.887   6.535  0.0932 -0.2227  0.0584
   89SAPE   O13 8604   4.153   5.839   6.612 -0.3315 -0.0268 -0.3875
   89SAPE   O14 8605   3.919   5.920   6.622  0.3759 -0.0803  0.5189
   89SAPE   O12 8606   4.076   6.005   6.443  0.5326 -0.3101 -0.0190
   89SAPE   O11 8607   3.997   5.769   6.428 -0.1352  0.0613  0.4592
   89SAPE    C1 8608   3.923   5.661   6.485 -0.0789  0.4817 -0.1056
   89SAPE    HA 8609   3.976   5.613   6.570  1.4511 -0.9882 -1.7793
   89SAPE    HB 8610   3.825   5.684   6.531  0.6726 -0.0733  1.8668
   89SAPE    C2 8611   3.890   5.566   6.365  0.1395 -0.6255 -0.5137
   89SAPE    HS 8612   3.841   5.485   6.424 -0.5034  1.8416  2.5911
   89SAPE   O21 8613   4.003   5.528   6.292 -0.3653  0.0846  0.3732
   89SAPE   C21 8614   4.070   5.430   6.343 -0.2273 -0.0168  0.3125
   89SAPE   O22 8615   4.046   5.376   6.449  0.1657  0.5856 -0.0132
   89SAPE   C22 8616   4.200   5.394   6.258 -0.4332 -0.8559 -0.2303
   89SAPE   H2R 8617   4.264   5.485   6.257 -0.7871 -0.5636  1.0284
   89SAPE   H2S 8618   4.253   5.328   6.330 -0.2300 -0.1035  0.3305
   89SAPE    C3 8619   3.796   5.631   6.266 -0.5589 -0.3159 -0.0287
   89SAPE    HX 8620   3.833   5.726   6.223 -0.7486  0.7188  1.9829
   89SAPE    HY 8621   3.709   5.654   6.331  0.3095  0.4133  0.9128
   89SAPE   O31 8622   3.758   5.540   6.165  0.3796  0.7987  0.3175
   89SAPE   C31 8623   3.811   5.547   6.043  0.3264 -0.3892 -0.6615
   89SAPE   O32 8624   3.893   5.634   6.009 -0.0701  0.2185 -0.0272
   89SAPE   C32 8625   3.746   5.438   5.970 -0.2497  0.0702  0.2405
   89SAPE   H2X 8626   3.635   5.447   5.971 -0.4226 -1.6027  0.0425
   89SAPE   H2Y 8627   3.782   5.344   6.017  1.3057  1.1582  1.3090
   89SAPE   C23 8628   4.182   5.336   6.121  0.9771 -0.1957  0.2217
   89SAPE   H3R 8629   4.132   5.412   6.058  1.3983  0.4847  0.6967
   89SAPE   H3S 8630   4.116   5.247   6.133 -0.4792  0.9813  1.3511
   89SAPE   C24 8631   4.310   5.288   6.061  0.1195  1.1647  0.1129
   89SAPE   H4R 8632   4.276   5.241   5.966 -1.2678  1.2294  0.5506
   89SAPE   H4S 8633   4.361   5.211   6.122  0.2442  1.2234  0.0835
   89SAPE   C25 8634   4.414   5.395   6.031  0.5193 -0.0132  0.2499
   89SAPE   H5R 8635   4.465   5.436   6.119 -0.8700  2.5122 -0.0194
   89SAPE   C26 8636   4.445   5.442   5.900 -0.0971  0.0186  0.1539
   89SAPE   H6R 8637   4.521   5.519   5.881  0.3984 -0.3762  0.5080
   89SAPE   C27 8638   4.380   5.406   5.774  0.0057  0.2003  0.2993
   89SAPE   H7R 8639   4.292   5.340   5.791  0.9495 -1.0015  0.7031
   89SAPE   H7S 8640   4.443   5.336   5.715 -0.5599 -0.2297  0.1928
   89SAPE   C28 8641   4.334   5.515   5.681  0.0676  0.5288 -0.2968
   89SAPE   H8R 8642   4.296   5.604   5.731  2.4236  3.7801 -3.7243
   89SAPE   C29 8643   4.324   5.516   5.548 -0.1767  0.1647 -0.0030
   89SAPE   H9R 8644   4.283   5.608   5.503 -0.5627  0.7627  1.4901
   89SAPE  C210 8645   4.357   5.413   5.448 -0.3281 -0.4642  0.1103
   89SAPE  H10R 8646   4.452   5.364   5.480 -0.3333  0.1039  0.9933
   89SAPE  H10S 8647   4.384   5.460   5.351 -0.9979  1.4348  0.8150
   89SAPE  C211 8648   4.247   5.315   5.435 -0.3271 -0.4531 -0.1349
   89SAPE  H11R 8649   4.217   5.269   5.531 -0.6733 -0.2388 -0.1367
   89SAPE  C212 8650   4.176   5.297   5.320  0.7484 -0.3114 -0.0885
   89SAPE  H12R 8651   4.093   5.225   5.323  1.7922 -1.5238  0.2208
   89SAPE  C213 8652   4.189   5.348   5.176 -0.6296 -0.3027 -0.1096
   89SAPE  H13R 8653   4.279   5.295   5.140  1.3932  3.3663 -0.9554
   89SAPE  H13S 8654   4.219   5.455   5.169  2.3811 -1.1789 -3.1140
   89SAPE  C214 8655   4.060   5.331   5.103 -0.0489  0.3283  0.2818
   89SAPE  H14R 8656   3.964   5.363   5.147 -1.2012 -0.8016 -1.3044
   89SAPE  C215 8657   4.048   5.275   4.983 -0.3673 -0.5419  0.1453
   89SAPE  H15R 8658   3.948   5.256   4.942 -0.9432 -1.4184  1.8656
   89SAPE  C216 8659   4.162   5.230   4.893 -0.2268  0.9223 -0.4261
   89SAPE  H16R 8660   4.132   5.166   4.808 -2.5123  2.4404 -0.8429
   89SAPE  H16S 8661   4.232   5.162   4.946  0.5238  1.6692 -0.4261
   89SAPE  C217 8662   4.249   5.339   4.827  0.4073  0.3179 -0.0709
   89SAPE  H17R 8663   4.324   5.285   4.765 -0.3308 -2.9825  1.6810
   89SAPE  H17S 8664   4.307   5.389   4.908  1.2372 -0.5491 -0.1131
   89SAPE  C218 8665   4.167   5.454   4.755  0.1367 -0.2409 -0.2700
   89SAPE  H18R 8666   4.219   5.552   4.750  0.4315 -0.4592 -2.6090
   89SAPE  H18S 8667   4.072   5.470   4.810  0.1299 -0.8278 -0.1053
   89SAPE  C219 8668   4.118   5.421   4.607 -0.7026 -0.3279 -0.1772
   89SAPE  H19R 8669   4.037   5.345   4.610 -1.8204  0.7362 -1.8805
   89SAPE  H19S 8670   4.206   5.374   4.556  0.7829 -0.8849  2.6960
   89SAPE  C220 8671   4.056   5.535   4.525 -0.3830 -0.2963  0.4554
   89SAPE  H20R 8672   3.988   5.513   4.440  0.8420  0.7052 -0.8204
   89SAPE  H20S 8673   4.142   5.598   4.494 -1.6099  1.1247 -0.1771
   89SAPE  H20T 8674   3.991   5.598   4.590 -0.6578  0.2080 -0.2937
   89SAPE   C33 8675   3.785   5.448   5.816  0.7229 -0.1120  1.1209
   89SAPE   H3X 8676   3.755   5.551   5.788  2.0801  0.1946  0.7738
   89SAPE   H3Y 8677   3.712   5.386   5.759  0.4062  2.8122 -1.9080
   89SAPE   C34 8678   3.923   5.406   5.764 -0.4761  0.1738  0.5357
   89SAPE   H4X 8679   4.004   5.473   5.800  1.6896 -2.4464  0.8097
   89SAPE   H4Y 8680   3.908   5.437   5.658 -1.0291 -1.1609  0.2035
   89SAPE   C35 8681   3.959   5.259   5.796  0.0414  0.3437  0.6468
   89SAPE   H5X 8682   3.959   5.239   5.906  0.8539  1.4649  0.8652
   89SAPE   H5Y 8683   4.061   5.238   5.757 -0.5711 -1.6578 -0.0192
   89SAPE   C36 8684   3.886   5.152   5.713  0.1791  0.2818  0.4432
   89SAPE   H6X 8685   3.785   5.137   5.756 -0.0894 -1.4057 -0.6878
   89SAPE   H6Y 8686   3.945   5.058   5.725  0.7061  0.6649  0.8826
   89SAPE   C37 8687   3.881   5.189   5.559  0.0858  0.2411  0.1334
   89SAPE   H7X 8688   3.980   5.224   5.521  0.8912 -2.1224 -0.0663
   89SAPE   H7Y 8689   3.817   5.280   5.560 -0.4206 -0.1067  1.6515
   89SAPE   C38 8690   3.822   5.077   5.469  0.3476 -0.7357  0.1641
   89SAPE   H8X 8691   3.783   5.127   5.378  2.4807 -2.1275 -1.6334
   89SAPE   H8Y 8692   3.741   5.029   5.528  1.8084 -1.9645  1.2355
   89SAPE   C39 8693   3.932   4.982   5.410  0.6567  0.1443  0.3151
   89SAPE   H9X 8694   3.984   4.923   5.488  1.5578  0.9147  0.3119
   89SAPE   H9Y 8695   4.018   5.044   5.377  0.6936  0.7626  1.5109
   89SAPE  C310 8696   3.891   4.886   5.297 -0.3013 -0.3841 -0.2638
   89SAPE  H10X 8697   3.834   4.800   5.338  0.5075 -0.1344  1.4473
   89SAPE  H10Y 8698   3.980   4.842   5.248 -0.6543 -2.2633  0.7254
   89SAPE  C311 8699   3.805   4.959   5.192 -0.3049 -0.1005 -0.3347
   89SAPE  H11X 8700   3.861   5.054   5.178 -1.9177  1.1294  1.0942
   89SAPE  H11Y 8701   3.701   4.990   5.214 -0.7025  2.3147 -4.5833
   89SAPE  C312 8702   3.804   4.881   5.060 -0.1383  0.3743  0.5469
   89SAPE  H12X 8703   3.702   4.838   5.047 -0.6453  0.9170  2.4848
   89SAPE  H12Y 8704   3.869   4.791   5.055  0.6492  0.8913  1.3937
   89SAPE  C313 8705   3.849   4.979   4.949  0.1161 -0.1994  0.9928
   89SAPE  H13X 8706   3.958   5.002   4.951  0.3671 -0.9393 -1.3921
   89SAPE  H13Y 8707   3.791   5.074   4.959 -0.1972 -0.0637 -1.4837
   89SAPE  C314 8708   3.799   4.914   4.819 -0.5741  0.5744  0.2669
   89SAPE  H14X 8709   3.793   4.981   4.730 -2.4540 -1.5156 -1.2925
   89SAPE  H14Y 8710   3.701   4.863   4.833  0.7129 -2.5556 -1.0940
   89SAPE  C315 8711   3.899   4.798   4.767  0.1143  0.2056  0.2048
   89SAPE  H15X 8712   3.948   4.750   4.855 -1.2061 -1.0011  0.3260
   89SAPE  H15Y 8713   3.976   4.849   4.705  0.6358  2.0193  2.2155
   89SAPE  C316 8714   3.823   4.687   4.694 -0.3379 -0.4858  0.0750
   89SAPE  H16X 8715   3.736   4.652   4.754 -2.2648  1.0951 -1.6765
   89SAPE  H16Y 8716   3.894   4.604   4.671 -1.2177 -0.4121 -3.5218
   89SAPE  C317 8717   3.764   4.728   4.558  0.3011 -0.6682 -0.4073
   89SAPE  H17X 8718   3.844   4.780   4.502 -0.5580  0.6990 -0.4161
   89SAPE  H17Y 8719   3.683   4.800   4.580 -0.1851 -1.1891 -0.4669
   89SAPE  C318 8720   3.694   4.612   4.480  0.0371 -0.4295 -0.1789
   89SAPE  H18X 8721   3.762   4.529   4.450 -1.3834 -1.6651 -0.0720
   89SAPE  H18Y 8722   3.640   4.645   4.389 -0.0275  0.3272  0.1290
   89SAPE  H18Z 8723   3.615   4.577   4.550  0.3418  0.6029  0.7130
   90SAPE     N 8724   6.291   3.780   7.072  0.2806 -0.3573 -0.1319
   90SAPE   HN1 8725   6.300   3.862   7.135  1.5510 -0.7036  0.1685
   90SAPE   HN2 8726   6.279   3.694   7.129 -1.1546  0.4842  0.9154
   90SAPE   HN3 8727   6.378   3.778   7.016  0.6329  0.1541  0.3881
   90SAPE   C12 8728   6.167   3.777   6.980 -0.8699 -0.4472 -0.0334
   90SAPE  H12A 8729   6.181   3.858   6.905 -0.5483  0.7969  1.3217
   90SAPE  H12B 8730   6.076   3.790   7.043 -1.6849  0.8863 -1.4388
   90SAPE   C11 8731   6.171   3.638   6.904  0.2972  0.4118  0.7771
   90SAPE  H11A 8732   6.273   3.644   6.860  0.2230 -0.1244  0.5222
   90SAPE  H11B 8733   6.100   3.628   6.820  1.7049 -1.3255 -0.2818
   90SAPE     P 8734   6.025   3.474   7.050  0.3793 -0.3595  0.1148
   90SAPE   O13 8735   6.038   3.331   7.084 -0.1950 -0.4734  0.0138
   90SAPE   O14 8736   5.978   3.564   7.156 -0.0051  0.5177 -0.5762
   90SAPE   O12 8737   6.159   3.530   6.992  0.2720 -0.1787 -0.5381
   90SAPE   O11 8738   5.919   3.484   6.935 -0.2323 -0.7673  0.4153
   90SAPE    C1 8739   5.831   3.388   6.888  0.2770  0.2637  1.0240
   90SAPE    HA 8740   5.798   3.315   6.965 -0.4244  0.0956  0.5690
   90SAPE    HB 8741   5.739   3.433   6.846  0.9401 -1.8511 -3.2909
   90SAPE    C2 8742   5.882   3.307   6.759 -0.8240  0.3758  0.0208
   90SAPE    HS 8743   5.962   3.238   6.792 -1.7084 -0.3713  0.6707
   90SAPE   O21 8744   5.927   3.394   6.653  0.1937 -0.3486 -0.0684
   90SAPE   C21 8745   6.053   3.398   6.625  0.3710 -0.2521  0.2557
   90SAPE   O22 8746   6.138   3.323   6.670  0.2180 -0.0917 -0.5183
   90SAPE   C22 8747   6.077   3.504   6.518  0.1940  0.4437  0.0513
   90SAPE   H2R 8748   5.989   3.510   6.450 -0.9680 -0.9658  1.3464
   90SAPE   H2S 8749   6.094   3.603   6.566 -0.1125 -0.0387  1.1941
   90SAPE    C3 8750   5.769   3.214   6.694 -0.5006 -0.3335  0.2321
   90SAPE    HX 8751   5.718   3.295   6.638 -1.7359 -1.0716  0.2436
   90SAPE    HY 8752   5.700   3.172   6.771  1.5055 -1.9992  1.2269
   90SAPE   O31 8753   5.822   3.103   6.624 -0.0878  0.3452  0.0556
   90SAPE   C31 8754   5.743   3.060   6.522  0.1376  0.3369 -0.2655
   90SAPE   O32 8755   5.628   3.095   6.507  0.5527  0.7265 -0.2858
   90SAPE   C32 8756   5.823   2.975   6.429 -0.6840  0.7226  0.8153
   90SAPE   H2X 8757   5.778   2.878   6.399  0.1058  0.6040  0.0008
   90SAPE   H2Y 8758   5.927   2.955   6.461 -0.2454 -1.7645 -1.7313
   90SAPE   C23 8759   6.194   3.467   6.426 -0.0461 -0.1080  0.1040
   90SAPE   H3R 8760   6.170   3.374   6.369  2.0836 -0.2221 -0.6823
   90SAPE   H3S 8761   6.283   3.448   6.489  1.2835  1.2560 -1.3037
   90SAPE   C24 8762   6.237   3.579   6.335 -0.0333  0.7028 -0.4241
   90SAPE   H4R 8763   6.339   3.550   6.302 -0.2957  0.6135 -1.1852
   90SAPE   H4S 8764   6.241   3.681   6.379 -0.2063  0.9372 -0.9483
   90SAPE   C25 8765   6.139   3.588   6.223  0.3170  0.7636  0.1000
   90SAPE   H5R 8766   6.051   3.650   6.245 -0.9112  0.0226 -2.3280
   90SAPE   C26 8767   6.153   3.558   6.095  0.3151  0.2222 -0.1068
   90SAPE   H6R 8768   6.079   3.595   6.023  2.0704  1.5963 -1.2880
   90SAPE   C27 8769   6.270   3.496   6.020 -0.0103 -0.6055 -0.1226
   90SAPE   H7R 8770   6.314   3.418   6.086 -1.6627 -2.2300 -0.8393
   90SAPE   H7S 8771   6.335   3.586   6.017 -1.1905  0.5384  3.1692
   90SAPE   C28 8772   6.234   3.432   5.888 -0.0335  1.0497 -0.7210
   90SAPE   H8R 8773   6.153   3.361   5.911 -1.3493  2.8829  0.5706
   90SAPE   C29 8774   6.262   3.469   5.765 -0.0576 -0.3506  0.4034
   90SAPE   H9R 8775   6.227   3.410   5.679 -2.3633  0.0152  1.0206
   90SAPE  C210 8776   6.356   3.590   5.732 -0.1134 -0.0209  0.2233
   90SAPE  H10R 8777   6.360   3.666   5.813 -2.0595  0.0050  0.3493
   90SAPE  H10S 8778   6.312   3.641   5.643 -0.1254  2.4203  1.5196
   90SAPE  C211 8779   6.498   3.544   5.704 -0.0105 -0.3430  1.1005
   90SAPE  H11R 8780   6.565   3.582   5.783  1.0172  0.8254 -0.2899
   90SAPE  C212 8781   6.551   3.487   5.592 -0.3553 -0.1661 -0.3514
   90SAPE  H12R 8782   6.659   3.467   5.591  0.2771  2.4857 -3.3766
   90SAPE  C213 8783   6.478   3.421   5.483 -0.4236  0.2299  0.0760
   90SAPE  H13R 8784   6.407   3.346   5.526  0.7562 -0.9147  0.0757
   90SAPE  H13S 8785   6.546   3.353   5.428 -1.0196  0.1593 -0.5945
   90SAPE  C214 8786   6.406   3.511   5.384  0.4273 -0.2714  0.1429
   90SAPE  H14R 8787   6.441   3.614   5.376 -0.9293  0.2133  0.2050
   90SAPE  C215 8788   6.292   3.487   5.318 -0.2589 -1.0261  0.4720
   90SAPE  H15R 8789   6.266   3.559   5.239  2.1403 -0.0729  0.4708
   90SAPE  C216 8790   6.224   3.351   5.312 -0.0840 -0.1904 -0.4347
   90SAPE  H16R 8791   6.123   3.365   5.356  0.1234  1.3730 -0.3901
   90SAPE  H16S 8792   6.273   3.274   5.375  1.6105  1.5250  0.4735
   90SAPE  C217 8793   6.205   3.299   5.167 -0.9005 -1.3822 -0.3309
   90SAPE  H17R 8794   6.178   3.192   5.165 -0.6702 -1.4263 -1.4312
   90SAPE  H17S 8795   6.295   3.315   5.104  0.4630  1.6782  2.0721
   90SAPE  C218 8796   6.090   3.369   5.090 -0.3708 -0.7755  0.3011
   90SAPE  H18R 8797   6.125   3.470   5.061 -0.0373 -1.1449 -0.6066
   90SAPE  H18S 8798   5.999   3.402   5.145  1.0163 -0.8907  2.8032
   90SAPE  C219 8799   6.058   3.291   4.963  0.2559  0.7241 -0.4722
   90SAPE  H19R 8800   6.009   3.192   4.977  1.7275  0.0585  0.1806
   90SAPE  H19S 8801   6.159   3.271   4.920  0.2740 -1.0985  0.3487
   90SAPE  C220 8802   5.989   3.383   4.863  0.7693 -0.2803  0.3191
   90SAPE  H20R 8803   5.963   3.334   4.767 -0.3034 -0.7108  0.8063
   90SAPE  H20S 8804   6.051   3.472   4.841  0.3169  0.4258  1.8074
   90SAPE  H20T 8805   5.895   3.422   4.908  0.5388 -0.4431 -0.0195
   90SAPE   C33 8806   5.834   3.042   6.284  0.7370 -0.1781  0.2800
   90SAPE   H3X 8807   5.731   3.058   6.246  1.1586 -0.3115 -0.9888
   90SAPE   H3Y 8808   5.886   2.966   6.221 -0.4603 -0.4902 -0.3670
   90SAPE   C34 8809   5.909   3.174   6.299  0.2581  0.4354  0.5711
   90SAPE   H4X 8810   6.001   3.169   6.360 -0.4813  0.2892  1.7002
   90SAPE   H4Y 8811   5.846   3.245   6.357 -0.1929 -0.7659  1.6019
   90SAPE   C35 8812   5.941   3.241   6.168  0.6006  0.0005  0.6344
   90SAPE   H5X 8813   5.998   3.180   6.095  1.5095  2.5202 -0.8723
   90SAPE   H5Y 8814   6.001   3.334   6.178  0.4779  0.6592 -3.2330
   90SAPE   C36 8815   5.813   3.292   6.099  0.8169 -0.0404  0.1579
   90SAPE   H6X 8816   5.749   3.334   6.179 -2.0699 -3.7680  0.1088
   90SAPE   H6Y 8817   5.755   3.207   6.058 -0.3076  1.3223 -1.1736
   90SAPE   C37 8818   5.818   3.391   5.983 -0.0063  0.1446  0.2582
   90SAPE   H7X 8819   5.908   3.456   5.987  0.4950 -0.3299 -1.9000
   90SAPE   H7Y 8820   5.734   3.464   5.979  0.6934  0.9423 -3.2429
   90SAPE   C38 8821   5.816   3.322   5.847  0.1079 -0.1191  0.0204
   90SAPE   H8X 8822   5.713   3.290   5.820 -0.4803  0.6403  1.2714
   90SAPE   H8Y 8823   5.859   3.220   5.852 -1.2288 -0.6185  2.3519
   90SAPE   C39 8824   5.878   3.389   5.719  0.1915 -1.1270  0.0167
   90SAPE   H9X 8825   5.989   3.385   5.726  0.5874  0.8251 -3.1253
   90SAPE   H9Y 8826   5.852   3.496   5.704  1.5979 -0.7105  0.4263
   90SAPE  C310 8827   5.854   3.300   5.596 -0.5329 -0.0039 -0.0206
   90SAPE  H10X 8828   5.867   3.194   5.626 -0.7250 -0.0364 -0.0469
   90SAPE  H10Y 8829   5.942   3.316   5.531  0.3956  1.2447  1.4748
   90SAPE  C311 8830   5.730   3.345   5.515  0.3436  0.0590 -0.0972
   90SAPE  H11X 8831   5.766   3.443   5.479  0.2624 -0.4001 -1.4855
   90SAPE  H11Y 8832   5.643   3.362   5.582  0.3696  0.0966 -0.0726
   90SAPE  C312 8833   5.700   3.246   5.405 -0.9730  0.6605  0.5344
   90SAPE  H12X 8834   5.674   3.144   5.441  1.3105 -0.4040 -0.6239
   90SAPE  H12Y 8835   5.789   3.225   5.343 -0.8745 -0.7439  1.1240
   90SAPE  C313 8836   5.592   3.301   5.315 -0.0838 -0.3662  0.0157
   90SAPE  H13X 8837   5.646   3.392   5.282 -0.8039  0.7460  1.7281
   90SAPE  H13Y 8838   5.498   3.331   5.366  0.4807 -0.4541  1.1427
   90SAPE  C314 8839   5.567   3.209   5.194  0.1450 -0.5967  0.2225
   90SAPE  H14X 8840   5.509   3.125   5.238  0.4209 -0.5889  0.6131
   90SAPE  H14Y 8841   5.666   3.171   5.160  0.6861  0.6578  0.3253
   90SAPE  C315 8842   5.484   3.280   5.093 -0.1944  0.9820  0.0094
   90SAPE  H15X 8843   5.513   3.383   5.065 -1.3323  0.4573 -3.6779
   90SAPE  H15Y 8844   5.381   3.288   5.135  0.5377  1.9772  1.7338
   90SAPE  C316 8845   5.469   3.195   4.967  0.2485 -0.0354 -0.4416
   90SAPE  H16X 8846   5.381   3.236   4.912 -1.6393 -2.3751  0.6520
   90SAPE  H16Y 8847   5.444   3.090   4.992 -1.6659  0.3899 -0.4292
   90SAPE  C317 8848   5.586   3.196   4.881 -0.3015 -1.2764  0.3779
   90SAPE  H17X 8849   5.662   3.118   4.903 -1.4240 -2.0423  1.6926
   90SAPE  H17Y 8850   5.636   3.294   4.894 -0.5509 -0.8162 -1.6671
   90SAPE  C318 8851   5.559   3.197   4.730  0.5646 -0.3667 -0.2417
   90SAPE  H18X 8852   5.647   3.214   4.665 -0.6357  1.6974 -1.4504
   90SAPE  H18Y 8853   5.485   3.277   4.705  1.8037  0.7432 -0.4567
   90SAPE  H18Z 8854   5.502   3.105   4.706  0.3965 -0.0224 -1.1929
   91SAPE     N 8855   4.461   0.464   6.840  0.4327 -0.1136 -0.2532
   91SAPE   HN1 8856   4.527   0.494   6.914 -0.8907  1.4672  0.3351
   91SAPE   HN2 8857   4.467   0.362   6.818  1.3533  0.2279 -1.7784
   91SAPE   HN3 8858   4.502   0.495   6.750 -1.4826 -0.4217 -1.2907
   91SAPE   C12 8859   4.326   0.523   6.878  0.5376  0.2359  0.0451
   91SAPE  H12A 8860   4.330   0.633   6.859  3.5827 -0.1838 -2.6466
   91SAPE  H12B 8861   4.317   0.513   6.988  0.5517  2.7450  0.3322
   91SAPE   C11 8862   4.209   0.457   6.808 -0.4174 -0.2657 -0.1667
   91SAPE  H11A 8863   4.118   0.466   6.873 -1.0822 -0.5000 -1.0474
   91SAPE  H11B 8864   4.232   0.349   6.806  1.5014  0.0422  1.7002
   91SAPE     P 8865   4.221   0.445   6.551 -0.4409 -0.1348  0.1744
   91SAPE   O13 8866   4.357   0.386   6.562 -0.3864  1.0121 -0.7080
   91SAPE   O14 8867   4.109   0.352   6.515 -0.0631 -0.2188 -0.1843
   91SAPE   O12 8868   4.177   0.513   6.682  0.4974 -0.0613  0.1990
   91SAPE   O11 8869   4.227   0.561   6.447 -0.3951 -0.2767 -0.2364
   91SAPE    C1 8870   4.110   0.624   6.390 -0.1674 -0.1000 -0.5234
   91SAPE    HA 8871   4.019   0.607   6.453 -0.0254 -1.9523 -0.7587
   91SAPE    HB 8872   4.127   0.733   6.390 -1.4151  0.1443  0.8939
   91SAPE    C2 8873   4.073   0.577   6.252 -0.3033 -0.8072  1.2897
   91SAPE    HS 8874   4.051   0.469   6.271 -1.5346 -0.6157  1.0614
   91SAPE   O21 8875   4.189   0.600   6.175 -0.1177  0.0120  0.0462
   91SAPE   C21 8876   4.201   0.505   6.085  0.3139  0.4117 -0.3641
   91SAPE   O22 8877   4.131   0.402   6.084 -0.3030  0.0921  0.2528
   91SAPE   C22 8878   4.312   0.533   5.987 -0.5449  0.5847  0.4597
   91SAPE   H2R 8879   4.364   0.629   6.006  0.7744  0.8133 -3.2699
   91SAPE   H2S 8880   4.384   0.450   6.001  1.0786  1.9884  0.8260
   91SAPE    C3 8881   3.953   0.655   6.195 -0.0312  0.1016 -0.0747
   91SAPE    HX 8882   3.970   0.764   6.206 -0.0255  0.0593  0.3363
   91SAPE    HY 8883   3.869   0.621   6.259 -0.7180 -0.2724 -1.1354
   91SAPE   O31 8884   3.924   0.619   6.056 -0.8654  0.3273  0.4030
   91SAPE   C31 8885   3.804   0.586   6.033  0.9518 -0.8011 -0.1077
   91SAPE   O32 8886   3.710   0.591   6.111 -0.3909 -0.1274 -0.2301
   91SAPE   C32 8887   3.785   0.561   5.885 -0.9912 -0.2837  0.1810
   91SAPE   H2X 8888   3.749   0.457   5.876 -2.4778  0.2716 -0.5943
   91SAPE   H2Y 8889   3.884   0.558   5.833 -0.1774  0.2636  1.6245
   91SAPE   C23 8890   4.267   0.539   5.837  0.0961  0.4609 -0.5430
   91SAPE   H3R 8891   4.190   0.462   5.816 -1.6664  2.1936 -0.6883
   91SAPE   H3S 8892   4.359   0.519   5.778  0.3993 -0.2687  0.1597
   91SAPE   C24 8893   4.215   0.678   5.805 -0.4093  0.3050 -0.2399
   91SAPE   H4R 8894   4.290   0.760   5.811  2.6546 -2.2510 -0.9504
   91SAPE   H4S 8895   4.138   0.701   5.882  1.5699  1.1021  1.6278
   91SAPE   C25 8896   4.148   0.679   5.674 -0.0073  1.0110  0.4113
   91SAPE   H5R 8897   4.042   0.648   5.673  0.1578  0.0469 -3.3050
   91SAPE   C26 8898   4.202   0.724   5.557  0.0019 -1.2910 -0.1770
   91SAPE   H6R 8899   4.142   0.731   5.465  0.8698  0.0235 -0.6635
   91SAPE   C27 8900   4.342   0.784   5.538 -0.1075  0.0042  0.1851
   91SAPE   H7R 8901   4.419   0.721   5.488  0.2617  1.0352 -0.5562
   91SAPE   H7S 8902   4.398   0.807   5.632  0.9323  1.8872 -0.8416
   91SAPE   C28 8903   4.333   0.920   5.465  0.8826 -0.0156 -0.0174
   91SAPE   H8R 8904   4.349   1.010   5.526 -0.3008  0.4737 -0.3956
   91SAPE   C29 8905   4.327   0.943   5.333 -0.0886 -0.3983 -0.1561
   91SAPE   H9R 8906   4.324   1.047   5.298 -2.4842 -0.4524 -0.3100
   91SAPE  C210 8907   4.324   0.843   5.213 -0.0351 -0.1777 -0.5778
   91SAPE  H10R 8908   4.223   0.843   5.166 -0.7134 -1.1321  0.8366
   91SAPE  H10S 8909   4.329   0.739   5.252  2.1328 -0.1596 -0.6680
   91SAPE  C211 8910   4.414   0.861   5.090  0.8386 -0.0265 -0.1253
   91SAPE  H11R 8911   4.521   0.848   5.109  0.7325 -1.5550 -0.4207
   91SAPE  C212 8912   4.382   0.896   4.965  0.1759  0.2203 -0.3440
   91SAPE  H12R 8913   4.465   0.906   4.894 -1.0867 -1.9755 -2.2912
   91SAPE  C213 8914   4.248   0.934   4.903 -0.1166 -0.2773  0.2870
   91SAPE  H13R 8915   4.158   0.910   4.963  0.4438 -0.5422  1.0315
   91SAPE  H13S 8916   4.246   0.882   4.805  0.4929  1.4595 -0.6943
   91SAPE  C214 8917   4.239   1.085   4.883 -0.3311 -0.3163 -0.4532
   91SAPE  H14R 8918   4.233   1.140   4.978  1.3613  0.0746 -0.5317
   91SAPE  C215 8919   4.272   1.160   4.769  0.3133 -0.7067  0.3002
   91SAPE  H15R 8920   4.283   1.269   4.779  1.3858 -0.6876 -0.8884
   91SAPE  C216 8921   4.290   1.101   4.628  0.2660  0.2130 -0.4362
   91SAPE  H16R 8922   4.249   1.173   4.553  1.2914  1.0842 -0.1867
   91SAPE  H16S 8923   4.237   1.003   4.623  3.0091 -1.4438  0.4428
   91SAPE  C217 8924   4.442   1.087   4.593 -0.0224  0.7738  0.1165
   91SAPE  H17R 8925   4.495   1.035   4.676 -0.7139  1.9135  1.3098
   91SAPE  H17S 8926   4.482   1.191   4.591  0.0820  0.7245 -0.6272
   91SAPE  C218 8927   4.461   1.020   4.460  0.4848  0.6966 -0.4888
   91SAPE  H18R 8928   4.401   1.068   4.380 -1.1385 -1.0290 -0.3809
   91SAPE  H18S 8929   4.422   0.918   4.480  3.5216  0.1602  4.4364
   91SAPE  C219 8930   4.607   1.002   4.414 -0.2415  0.1715 -0.2624
   91SAPE  H19R 8931   4.604   0.944   4.319 -0.7027 -0.4526  0.1308
   91SAPE  H19S 8932   4.660   0.944   4.492  0.1211 -1.1580 -1.4514
   91SAPE  C220 8933   4.685   1.128   4.395 -0.8432  0.1285  0.7530
   91SAPE  H20R 8934   4.789   1.091   4.381 -0.1775  1.5854  1.5852
   91SAPE  H20S 8935   4.700   1.192   4.485  1.0244 -0.9753  1.2826
   91SAPE  H20T 8936   4.637   1.192   4.318  1.2037  0.2789 -0.4760
   91SAPE   C33 8937   3.685   0.659   5.813  0.7238 -0.1858 -0.2742
   91SAPE   H3X 8938   3.708   0.764   5.840 -1.7706 -0.4714  3.9780
   91SAPE   H3Y 8939   3.587   0.631   5.856  0.7732 -2.3228 -1.4325
   91SAPE   C34 8940   3.691   0.633   5.668  0.3972 -0.0111 -0.0147
   91SAPE   H4X 8941   3.668   0.528   5.638 -3.5251  1.2606 -2.1632
   91SAPE   H4Y 8942   3.784   0.675   5.625 -0.2495  2.7143  1.0720
   91SAPE   C35 8943   3.582   0.701   5.583 -0.4362  0.3650  0.0969
   91SAPE   H5X 8944   3.594   0.812   5.591  0.6762  0.4424 -1.8816
   91SAPE   H5Y 8945   3.484   0.674   5.626 -0.0118  0.0708  0.9109
   91SAPE   C36 8946   3.582   0.667   5.436 -0.3184  0.1652 -0.1369
   91SAPE   H6X 8947   3.546   0.563   5.423 -0.6468  0.2122  0.3496
   91SAPE   H6Y 8948   3.684   0.675   5.394 -0.6550  1.8764 -0.7244
   91SAPE   C37 8949   3.484   0.759   5.357 -0.0324 -0.5005  0.3618
   91SAPE   H7X 8950   3.511   0.866   5.375 -1.0852  0.1103 -1.4528
   91SAPE   H7Y 8951   3.375   0.760   5.375  0.3287 -1.0561  2.8923
   91SAPE   C38 8952   3.501   0.756   5.201 -0.0305  0.4021 -0.6961
   91SAPE   H8X 8953   3.603   0.784   5.170 -0.2003  1.0290 -0.6953
   91SAPE   H8Y 8954   3.429   0.830   5.162 -1.8775  0.0890  1.8322
   91SAPE   C39 8955   3.480   0.617   5.136  0.4218  0.8975 -0.2834
   91SAPE   H9X 8956   3.383   0.574   5.168  1.1293 -1.2588 -0.8481
   91SAPE   H9Y 8957   3.571   0.557   5.158 -0.2475 -0.1353 -0.2751
   91SAPE  C310 8958   3.465   0.618   4.981 -0.3625  0.2432  0.1849
   91SAPE  H10X 8959   3.385   0.694   4.969 -2.7598 -2.1255  0.0841
   91SAPE  H10Y 8960   3.425   0.518   4.951  1.3894 -0.2962 -0.4765
   91SAPE  C311 8961   3.585   0.661   4.904 -0.2159 -0.4610  0.0905
   91SAPE  H11X 8962   3.670   0.608   4.953  0.0855  0.3442  0.4650
   91SAPE  H11Y 8963   3.605   0.767   4.930  1.6815 -0.2556 -1.9439
   91SAPE  C312 8964   3.562   0.632   4.757  0.3271 -0.1652 -0.1886
   91SAPE  H12X 8965   3.523   0.529   4.743  0.6953 -0.2064 -0.9541
   91SAPE  H12Y 8966   3.661   0.633   4.708 -0.0955  1.6254 -1.0912
   91SAPE  C313 8967   3.461   0.715   4.683 -0.1635  0.1263  0.0040
   91SAPE  H13X 8968   3.489   0.823   4.690  0.6687 -0.0923  0.2808
   91SAPE  H13Y 8969   3.360   0.709   4.729 -0.5864  0.9657 -0.7900
   91SAPE  C314 8970   3.462   0.683   4.534 -0.2667 -0.4452  0.1281
   91SAPE  H14X 8971   3.559   0.715   4.490 -0.6683  0.6199 -0.0214
   91SAPE  H14Y 8972   3.379   0.736   4.482 -0.7789 -0.4873  0.8880
   91SAPE  C315 8973   3.435   0.534   4.509 -0.2177 -0.4220 -0.4446
   91SAPE  H15X 8974   3.348   0.510   4.574  0.1726  0.3218  0.3813
   91SAPE  H15Y 8975   3.518   0.472   4.550  1.9189 -0.0856 -3.8643
   91SAPE  C316 8976   3.424   0.484   4.364  0.0269  0.1199  0.4817
   91SAPE  H16X 8977   3.514   0.509   4.303  0.8069 -2.2319  0.5989
   91SAPE  H16Y 8978   3.332   0.526   4.317  0.1001 -1.6655 -1.3859
   91SAPE  C317 8979   3.402   0.325   4.355  0.0797 -0.5573 -0.0685
   91SAPE  H17X 8980   3.357   0.317   4.254 -1.0692 -1.0782  0.4671
   91SAPE  H17Y 8981   3.329   0.296   4.433 -0.1760 -0.7905 -0.3942
   91SAPE  C318 8982   3.538   0.250   4.362  0.6657  0.1635 -0.1864
   91SAPE  H18X 8983   3.527   0.141   4.344 -1.3433  0.3951 -0.5931
   91SAPE  H18Y 8984   3.571   0.260   4.467 -0.4422  0.0482  0.1838
   91SAPE  H18Z 8985   3.612   0.291   4.290 -0.5616  1.0936 -0.9499
   92SAPE     N 8986   3.935   1.046   6.616  0.0632  0.2179 -0.9066
   92SAPE   HN1 8987   3.852   1.108   6.607 -0.8557 -0.7225  0.6691
   92SAPE   HN2 8988   3.923   1.008   6.712 -1.9627  0.6694 -0.9348
   92SAPE   HN3 8989   4.022   1.102   6.619  1.2437 -1.5756  1.4309
   92SAPE   C12 8990   3.926   0.961   6.499  0.0584 -0.4897  0.4007
   92SAPE  H12A 8991   3.823   0.923   6.482 -0.9135  2.3015 -0.3620
   92SAPE  H12B 8992   4.000   0.878   6.507 -2.4893 -2.7802  1.6861
   92SAPE   C11 8993   3.956   1.045   6.373 -0.1781  0.6908 -0.2319
   92SAPE  H11A 8994   3.881   1.125   6.357 -0.5233 -0.0307 -2.5607
   92SAPE  H11B 8995   3.938   0.975   6.288 -1.3239  0.9249 -0.2022
   92SAPE     P 8996   4.129   1.173   6.233  0.3771 -0.0030 -0.0081
   92SAPE   O13 8997   4.017   1.264   6.205 -0.1007  0.0198  0.2110
   92SAPE   O14 8998   4.259   1.239   6.240  0.0899  0.1331  0.2295
   92SAPE   O12 8999   4.088   1.099   6.370  0.4279 -1.3208 -0.3328
   92SAPE   O11 9000   4.127   1.062   6.117 -0.0792 -0.4713 -0.8815
   92SAPE    C1 9001   4.179   0.932   6.134 -0.6521 -0.2364 -0.1089
   92SAPE    HA 9002   4.185   0.898   6.239 -0.2806 -0.1863 -0.1135
   92SAPE    HB 9003   4.125   0.861   6.068 -1.3887  0.1835  0.0302
   92SAPE    C2 9004   4.322   0.945   6.075 -0.0221  0.2791 -0.1188
   92SAPE    HS 9005   4.358   0.845   6.044 -0.4409  0.0324  0.1806
   92SAPE   O21 9006   4.412   0.994   6.175 -0.2795 -0.0547  0.6721
   92SAPE   C21 9007   4.536   0.967   6.171  0.0274 -0.2463  0.3842
   92SAPE   O22 9008   4.592   0.890   6.091 -0.4244 -0.2240 -0.2611
   92SAPE   C22 9009   4.609   1.036   6.289 -0.2146 -0.4460 -0.1514
   92SAPE   H2R 9010   4.581   1.144   6.298  1.9309  0.1370  0.0399
   92SAPE   H2S 9011   4.569   1.000   6.386  0.6922 -0.8286  0.0846
   92SAPE    C3 9012   4.323   1.024   5.940 -0.2643 -0.6469 -0.1193
   92SAPE    HX 9013   4.306   1.131   5.964  0.1064 -1.0129  2.0087
   92SAPE    HY 9014   4.233   0.983   5.889 -0.4502 -2.5264  1.5600
   92SAPE   O31 9015   4.432   1.000   5.855  0.3698  0.7138 -0.0223
   92SAPE   C31 9016   4.525   1.097   5.842  0.3098  0.4656 -0.3379
   92SAPE   O32 9017   4.516   1.204   5.897  0.1749  0.0145 -0.3516
   92SAPE   C32 9018   4.642   1.047   5.751  0.1311  0.4503  0.6012
   92SAPE   H2X 9019   4.614   0.950   5.704 -1.3070  0.8343  0.6360
   92SAPE   H2Y 9020   4.721   1.009   5.820 -0.9209 -1.1805  0.9809
   92SAPE   C23 9021   4.761   1.023   6.288  0.2344  0.3694  0.0845
   92SAPE   H3R 9022   4.772   0.913   6.287  0.6014  0.3756  1.3993
   92SAPE   H3S 9023   4.799   1.063   6.385  2.0462 -1.0652  0.0117
   92SAPE   C24 9024   4.840   1.082   6.170  0.8500 -1.5025 -0.0570
   92SAPE   H4R 9025   4.786   1.176   6.146  1.8548 -0.8190  0.2659
   92SAPE   H4S 9026   4.827   1.012   6.085  1.5974  0.3004 -1.7404
   92SAPE   C25 9027   4.983   1.110   6.204 -0.5157 -0.7914 -0.8890
   92SAPE   H5R 9028   5.008   1.060   6.298  1.6544 -0.2316 -1.1042
   92SAPE   C26 9029   5.078   1.201   6.146 -0.2420  0.4831 -0.0138
   92SAPE   H6R 9030   5.178   1.188   6.190  0.2311 -0.7261 -1.3679
   92SAPE   C27 9031   5.078   1.286   6.022 -0.1303 -0.5405  0.1158
   92SAPE   H7R 9032   5.121   1.387   6.039 -2.6811  0.4936  1.0348
   92SAPE   H7S 9033   4.975   1.317   5.994  1.0055  2.9321 -0.7168
   92SAPE   C28 9034   5.144   1.209   5.915  0.1206  0.4426 -0.4930
   92SAPE   H8R 9035   5.166   1.103   5.932  0.8651  0.9126  1.7626
   92SAPE   C29 9036   5.175   1.251   5.794 -0.8470 -0.3528  0.1396
   92SAPE   H9R 9037   5.225   1.184   5.723 -0.6067  0.4940 -0.5144
   92SAPE  C210 9038   5.158   1.391   5.734 -0.4610 -0.4330  0.6346
   92SAPE  H10R 9039   5.220   1.403   5.643 -2.1951  1.5300 -0.3770
   92SAPE  H10S 9040   5.192   1.468   5.806 -0.5798  0.7562 -0.5452
   92SAPE  C211 9041   5.011   1.416   5.697 -0.2378 -0.1793  0.0658
   92SAPE  H11R 9042   4.946   1.416   5.786 -0.1881  0.3239  0.1042
   92SAPE  C212 9043   4.964   1.436   5.573 -0.0033 -0.2074 -0.4138
   92SAPE  H12R 9044   4.857   1.456   5.559  0.0996  2.2830  1.8306
   92SAPE  C213 9045   5.055   1.458   5.455 -0.2344  0.2429  1.6093
   92SAPE  H13R 9046   5.084   1.356   5.423 -3.1706  0.1482 -1.1740
   92SAPE  H13S 9047   5.142   1.519   5.490  0.4331 -0.9581  2.0955
   92SAPE  C214 9048   4.989   1.521   5.336 -0.3765  0.1426  0.5281
   92SAPE  H14R 9049   4.952   1.620   5.366 -0.3077 -0.1081  1.4535
   92SAPE  C215 9050   4.989   1.477   5.206  0.5259  0.1136 -0.2681
   92SAPE  H15R 9051   4.921   1.537   5.144 -0.1869 -1.0237 -0.6297
   92SAPE  C216 9052   5.045   1.344   5.151 -0.0191 -0.0178 -1.0140
   92SAPE  H16R 9053   4.966   1.297   5.090 -2.6444 -0.0659  2.1407
   92SAPE  H16S 9054   5.070   1.271   5.232  1.4487  1.3021 -0.2101
   92SAPE  C217 9055   5.164   1.368   5.054  0.5646  0.1987  0.0264
   92SAPE  H17R 9056   5.204   1.281   4.998  2.5422  2.0253 -1.5811
   92SAPE  H17S 9057   5.251   1.409   5.111 -0.8872  2.3340  0.8546
   92SAPE  C218 9058   5.126   1.466   4.941  0.1075  0.8361 -0.9868
   92SAPE  H18R 9059   5.101   1.568   4.977 -1.5032  0.0891  0.1200
   92SAPE  H18S 9060   5.036   1.430   4.887  0.1878  0.0303 -0.5960
   92SAPE  C219 9061   5.243   1.471   4.835 -0.0973 -0.2025  0.9316
   92SAPE  H19R 9062   5.323   1.397   4.855  0.2437  0.3646  1.7543
   92SAPE  H19S 9063   5.288   1.573   4.844 -0.1349 -0.1858  0.9311
   92SAPE  C220 9064   5.196   1.469   4.687  0.1062 -0.2069  0.4787
   92SAPE  H20R 9065   5.263   1.475   4.598 -1.3888 -4.0673 -1.1116
   92SAPE  H20S 9066   5.130   1.558   4.680  1.1693  0.5444 -0.3443
   92SAPE  H20T 9067   5.127   1.383   4.675  0.4404 -0.8169  2.5658
   92SAPE   C33 9068   4.687   1.162   5.650  0.0488  0.3299  0.1039
   92SAPE   H3X 9069   4.792   1.147   5.618  0.3762  1.9747  0.3391
   92SAPE   H3Y 9070   4.695   1.258   5.705  1.6107  0.0562  0.3892
   92SAPE   C34 9071   4.602   1.156   5.531 -1.2292  0.5194 -0.5829
   92SAPE   H4X 9072   4.506   1.200   5.565 -0.2786  1.9966  0.3127
   92SAPE   H4Y 9073   4.588   1.053   5.493  1.7710 -0.1908 -0.0397
   92SAPE   C35 9074   4.652   1.236   5.410 -0.3660  0.1054  0.4405
   92SAPE   H5X 9075   4.753   1.199   5.381  0.0816 -0.7756  2.9379
   92SAPE   H5Y 9076   4.661   1.337   5.454  0.2356  0.0687  0.4153
   92SAPE   C36 9077   4.555   1.227   5.289  0.2139 -0.8106 -0.4775
   92SAPE   H6X 9078   4.454   1.254   5.326  1.3796 -0.2781  2.7433
   92SAPE   H6Y 9079   4.551   1.120   5.259 -0.4512 -0.7588 -0.5817
   92SAPE   C37 9080   4.604   1.317   5.170  0.3359  0.1996 -0.5225
   92SAPE   H7X 9081   4.704   1.279   5.138  0.9098  0.4262  0.9240
   92SAPE   H7Y 9082   4.616   1.421   5.207  2.5759  0.0866 -0.7711
   92SAPE   C38 9083   4.504   1.324   5.051 -0.1937 -1.0412  0.2392
   92SAPE   H8X 9084   4.416   1.374   5.097 -0.0175 -0.5186  0.0065
   92SAPE   H8Y 9085   4.474   1.222   5.017 -0.1167 -0.7589 -0.7019
   92SAPE   C39 9086   4.550   1.391   4.917 -0.2057 -0.0447  0.4958
   92SAPE   H9X 9087   4.573   1.498   4.932  1.5533 -0.3020 -0.1080
   92SAPE   H9Y 9088   4.465   1.379   4.846  1.1843 -0.1805 -1.2050
   92SAPE  C310 9089   4.663   1.328   4.847 -0.0486 -0.1822  0.5348
   92SAPE  H10X 9090   4.634   1.231   4.801  1.7891 -0.0489 -1.0403
   92SAPE  H10Y 9091   4.732   1.291   4.926  0.0209 -1.4925 -0.1079
   92SAPE  C311 9092   4.738   1.433   4.757  0.5031 -0.0068  0.1759
   92SAPE  H11X 9093   4.821   1.372   4.714  1.5859  1.2657  0.4068
   92SAPE  H11Y 9094   4.767   1.527   4.808 -1.1366  1.6169 -1.7038
   92SAPE  C312 9095   4.658   1.476   4.636  0.6280  0.3650 -1.0307
   92SAPE  H12X 9096   4.575   1.536   4.679  1.5760  0.0454  1.4205
   92SAPE  H12Y 9097   4.614   1.387   4.584  1.9855 -0.6682 -0.4757
   92SAPE  C313 9098   4.730   1.564   4.530 -0.1533  0.2936 -0.4219
   92SAPE  H13X 9099   4.804   1.501   4.478 -1.4036 -0.7878 -0.9597
   92SAPE  H13Y 9100   4.779   1.652   4.577  0.7661  0.6425 -1.9467
   92SAPE  C314 9101   4.630   1.609   4.421 -0.3285 -0.3153  0.4163
   92SAPE  H14X 9102   4.528   1.636   4.457 -0.2168  2.4998 -1.0501
   92SAPE  H14Y 9103   4.629   1.532   4.341 -0.4432 -2.2159  2.1968
   92SAPE  C315 9104   4.676   1.747   4.361  0.2452  0.5121 -0.0122
   92SAPE  H15X 9105   4.783   1.733   4.333 -0.2074 -1.1333 -1.0163
   92SAPE  H15Y 9106   4.673   1.816   4.449 -1.7822  1.0103 -0.4244
   92SAPE  C316 9107   4.582   1.790   4.250 -0.5355 -0.2752 -0.1399
   92SAPE  H16X 9108   4.478   1.757   4.270 -0.7805 -0.5108 -1.6718
   92SAPE  H16Y 9109   4.615   1.737   4.158 -0.3366 -0.3110 -0.0481
   92SAPE  C317 9110   4.570   1.945   4.227  0.2611  0.7931 -0.4956
   92SAPE  H17X 9111   4.669   1.980   4.192  0.6367 -0.3576 -0.6353
   92SAPE  H17Y 9112   4.542   1.987   4.326 -0.4708 -3.3856  1.2845
   92SAPE  C318 9113   4.463   1.976   4.124  0.4909  0.4584 -0.6783
   92SAPE  H18X 9114   4.483   1.945   4.020 -1.4632 -2.5884 -0.2941
   92SAPE  H18Y 9115   4.443   2.085   4.121  1.3275  0.6344 -0.1909
   92SAPE  H18Z 9116   4.359   1.943   4.146 -0.2719  3.1326  0.0586
   93SAPE     N 9117   6.015   6.628   6.591 -0.5950 -0.5212  0.1972
   93SAPE   HN1 9118   5.955   6.712   6.600  0.5635  0.6034 -1.7657
   93SAPE   HN2 9119   5.954   6.545   6.578 -0.0084 -0.6573 -2.1035
   93SAPE   HN3 9120   6.084   6.625   6.669  0.8677 -1.9849 -1.0637
   93SAPE   C12 9121   6.086   6.646   6.462  1.0063 -0.0268  0.0466
   93SAPE  H12A 9122   6.003   6.631   6.389  1.5778  1.1525 -0.8794
   93SAPE  H12B 9123   6.164   6.567   6.465  0.0906 -1.0843 -1.7689
   93SAPE   C11 9124   6.141   6.791   6.453  0.6444  0.2207 -0.5000
   93SAPE  H11A 9125   6.058   6.865   6.454  0.1985 -0.2409 -1.6614
   93SAPE  H11B 9126   6.190   6.787   6.353 -2.4435 -0.2634 -2.1085
   93SAPE     P 9127   6.393   6.770   6.558 -0.1463  0.2638  0.0286
   93SAPE   O13 9128   6.480   6.892   6.545  0.1255 -0.0511 -0.2142
   93SAPE   O14 9129   6.407   6.692   6.686  0.1537 -0.6001 -0.2362
   93SAPE   O12 9130   6.234   6.819   6.559  0.3525  0.5476  0.3802
   93SAPE   O11 9131   6.407   6.676   6.431  0.3651 -0.2046  0.4938
   93SAPE    C1 9132   6.541   6.639   6.386  0.4231 -0.5879 -0.1042
   93SAPE    HA 9133   6.608   6.727   6.372 -0.6346  0.0489 -1.4782
   93SAPE    HB 9134   6.580   6.563   6.457 -0.4920 -2.4550 -1.5106
   93SAPE    C2 9135   6.532   6.555   6.253 -0.3993 -0.3611 -0.7717
   93SAPE    HS 9136   6.627   6.499   6.248 -0.0343  0.2165 -0.3791
   93SAPE   O21 9137   6.523   6.656   6.149  0.2856  0.1793  0.6572
   93SAPE   C21 9138   6.584   6.638   6.039  0.6624  0.4955  0.9172
   93SAPE   O22 9139   6.628   6.532   5.996 -0.4395 -0.3499 -0.5770
   93SAPE   C22 9140   6.602   6.768   5.956 -0.0217 -0.4932 -0.5337
   93SAPE   H2R 9141   6.589   6.746   5.848  0.8517  3.7598 -1.6977
   93SAPE   H2S 9142   6.527   6.844   5.985 -0.2253  0.0408 -2.3755
   93SAPE    C3 9143   6.406   6.467   6.254 -0.0838 -0.4001 -0.3411
   93SAPE    HX 9144   6.315   6.528   6.237  0.4265  0.6963  0.7600
   93SAPE    HY 9145   6.379   6.430   6.355  1.9877 -0.5760  0.1976
   93SAPE   O31 9146   6.398   6.359   6.160  0.7506  0.2467 -0.3248
   93SAPE   C31 9147   6.454   6.241   6.200  0.3009 -0.2187 -0.1610
   93SAPE   O32 9148   6.514   6.229   6.307  0.1685  0.1088  0.1086
   93SAPE   C32 9149   6.429   6.134   6.105  0.0419  0.1512 -0.7121
   93SAPE   H2X 9150   6.323   6.114   6.132  0.6839  0.3390  2.3020
   93SAPE   H2Y 9151   6.487   6.044   6.133 -2.6303 -1.6122 -0.4501
   93SAPE   C23 9152   6.743   6.837   5.984 -0.2417  0.1873  0.5405
   93SAPE   H3R 9153   6.776   6.819   6.089  0.2345 -1.5788  0.1206
   93SAPE   H3S 9154   6.740   6.944   5.953 -1.4133 -0.5689 -2.2620
   93SAPE   C24 9155   6.856   6.775   5.897  0.2750  0.2504  0.8273
   93SAPE   H4R 9156   6.854   6.665   5.914 -0.7957  0.3021  1.1190
   93SAPE   H4S 9157   6.956   6.813   5.927  0.1858  1.8668 -0.7897
   93SAPE   C25 9158   6.848   6.807   5.752  0.2441  0.8386  0.2988
   93SAPE   H5R 9159   6.875   6.910   5.726  1.3790  0.3274 -0.6535
   93SAPE   C26 9160   6.805   6.721   5.655  0.4950  0.5397  0.8267
   93SAPE   H6R 9161   6.820   6.753   5.551 -0.2176  1.4575  0.9929
   93SAPE   C27 9162   6.758   6.578   5.664  0.9530 -0.4926  0.6238
   93SAPE   H7R 9163   6.775   6.529   5.762 -1.8408 -1.0312  0.9251
   93SAPE   H7S 9164   6.816   6.518   5.591 -1.6559 -1.5525 -0.7178
   93SAPE   C28 9165   6.609   6.590   5.632  0.5300 -0.3851  0.3701
   93SAPE   H8R 9166   6.548   6.599   5.724  0.0636 -2.2478  0.2888
   93SAPE   C29 9167   6.547   6.568   5.517  0.1670 -0.6027  0.6733
   93SAPE   H9R 9168   6.437   6.569   5.510  0.2304  1.7967 -2.5321
   93SAPE  C210 9169   6.618   6.510   5.394 -0.0393  0.3887  1.1260
   93SAPE  H10R 9170   6.715   6.456   5.406 -1.0394 -2.0387 -0.7998
   93SAPE  H10S 9171   6.647   6.600   5.335  2.3549  0.6841  2.5874
   93SAPE  C211 9172   6.530   6.405   5.323  0.5958 -0.1451 -0.3564
   93SAPE  H11R 9173   6.510   6.320   5.390  1.2794  0.1363  0.2187
   93SAPE  C212 9174   6.481   6.415   5.196 -0.2353  0.4796 -0.4688
   93SAPE  H12R 9175   6.410   6.334   5.174  1.2275 -1.1641  0.5895
   93SAPE  C213 9176   6.499   6.513   5.087  0.1008 -0.1798 -0.0314
   93SAPE  H13R 9177   6.564   6.590   5.134 -0.6126  0.8657 -0.7174
   93SAPE  H13S 9178   6.400   6.560   5.067  0.6544 -0.1160 -3.0724
   93SAPE  C214 9179   6.558   6.459   4.956 -0.2758 -0.0930  0.8357
   93SAPE  H14R 9180   6.647   6.396   4.967  0.2527  0.4356 -0.2372
   93SAPE  C215 9181   6.513   6.472   4.824 -0.2970  0.9665 -0.0963
   93SAPE  H15R 9182   6.580   6.437   4.743 -0.0946  2.1242 -0.4407
   93SAPE  C216 9183   6.384   6.542   4.781  0.0574 -0.3012  0.6899
   93SAPE  H16R 9184   6.320   6.592   4.856 -0.8914  0.5292 -0.6458
   93SAPE  H16S 9185   6.317   6.461   4.744  0.4270 -0.4743  0.3790
   93SAPE  C217 9186   6.401   6.636   4.668  0.2739  0.1402  0.1257
   93SAPE  H17R 9187   6.460   6.591   4.586  0.5956 -1.7134  1.3016
   93SAPE  H17S 9188   6.467   6.716   4.708 -0.1243  0.6919 -0.3084
   93SAPE  C218 9189   6.266   6.698   4.622 -0.9613  0.2987  0.2409
   93SAPE  H18R 9190   6.203   6.725   4.709 -0.2154  1.0474  0.5661
   93SAPE  H18S 9191   6.217   6.625   4.554  1.6824 -0.2766 -1.1972
   93SAPE  C219 9192   6.296   6.823   4.540 -0.4407 -0.1733 -0.4102
   93SAPE  H19R 9193   6.385   6.807   4.476  0.7967 -0.4691  1.2985
   93SAPE  H19S 9194   6.330   6.903   4.610 -0.4730  0.5454 -1.2053
   93SAPE  C220 9195   6.171   6.879   4.478 -0.6530  0.5381 -0.0746
   93SAPE  H20R 9196   6.094   6.869   4.557  0.0176 -1.4262  0.3870
   93SAPE  H20S 9197   6.136   6.807   4.400 -0.1686 -1.0901  1.1719
   93SAPE  H20T 9198   6.188   6.981   4.439 -0.3858  0.2665 -0.6893
   93SAPE   C33 9199   6.454   6.160   5.957  0.3348  0.1842  0.4612
   93SAPE   H3X 9200   6.423   6.262   5.926  1.4942  0.2190 -0.6915
   93SAPE   H3Y 9201   6.402   6.089   5.890  0.7835  2.0944 -2.0697
   93SAPE   C34 9202   6.607   6.134   5.935 -0.8364  0.0866  0.1778
   93SAPE   H4X 9203   6.632   6.026   5.942  1.4487  0.5305 -0.2957
   93SAPE   H4Y 9204   6.665   6.195   6.008 -2.1692  2.4767 -0.6259
   93SAPE   C35 9205   6.638   6.193   5.801  0.4738  0.0638 -0.6823
   93SAPE   H5X 9206   6.622   6.302   5.820  0.3374  0.1967 -1.5069
   93SAPE   H5Y 9207   6.562   6.171   5.723 -0.6789  2.4770 -0.3477
   93SAPE   C36 9208   6.782   6.173   5.748 -0.3328 -0.1499 -0.0425
   93SAPE   H6X 9209   6.809   6.069   5.778 -0.1463 -0.1918 -0.3501
   93SAPE   H6Y 9210   6.857   6.232   5.805 -1.9675  2.1768 -0.1681
   93SAPE   C37 9211   6.808   6.215   5.604  0.5074 -0.1998 -0.4151
   93SAPE   H7X 9212   6.917   6.224   5.590  0.4639  3.2788  0.4101
   93SAPE   H7Y 9213   6.767   6.317   5.587  1.1441  0.1960  0.3525
   93SAPE   C38 9214   6.743   6.121   5.499 -0.3959 -0.5227 -0.2540
   93SAPE   H8X 9215   6.635   6.147   5.507 -0.5073 -1.3116  1.1145
   93SAPE   H8Y 9216   6.761   6.013   5.514 -0.6077 -0.4818  0.3383
   93SAPE   C39 9217   6.795   6.147   5.359 -0.5501 -0.3403 -0.7333
   93SAPE   H9X 9218   6.903   6.124   5.352 -0.4027 -0.1623  0.5912
   93SAPE   H9Y 9219   6.781   6.256   5.349 -1.5315 -0.0817  2.4127
   93SAPE  C310 9220   6.708   6.059   5.265  0.6076 -0.6464 -0.1471
   93SAPE  H10X 9221   6.603   6.074   5.295  0.9633  0.2761  0.7101
   93SAPE  H10Y 9222   6.727   5.951   5.283  1.4424 -0.6233 -0.7930
   93SAPE  C311 9223   6.732   6.082   5.121 -0.0798  0.1191 -0.1715
   93SAPE  H11X 9224   6.682   6.176   5.089 -0.5372 -0.9949 -2.9705
   93SAPE  H11Y 9225   6.680   5.996   5.073  0.2655  0.6017 -1.4426
   93SAPE  C312 9226   6.879   6.075   5.079 -0.4695 -0.3491 -0.1400
   93SAPE  H12X 9227   6.918   5.974   5.104  0.4331 -0.3261 -1.3622
   93SAPE  H12Y 9228   6.951   6.137   5.137 -0.2183  1.5581 -2.3130
   93SAPE  C313 9229   6.917   6.123   4.938  0.0823 -1.0847 -0.2645
   93SAPE  H13X 9230   7.027   6.117   4.921  0.1857  0.1202 -0.0910
   93SAPE  H13Y 9231   6.893   6.230   4.928 -0.8925 -1.0594  1.7924
   93SAPE  C314 9232   6.855   6.040   4.822  0.6202  0.8751  0.8567
   93SAPE  H14X 9233   6.744   6.040   4.828  0.6533  0.2386  1.5486
   93SAPE  H14Y 9234   6.896   5.937   4.829 -1.1327  0.2216  2.2269
   93SAPE  C315 9235   6.895   6.095   4.681 -0.1855 -0.0267 -0.5252
   93SAPE  H15X 9236   7.005   6.102   4.667 -0.3817  1.6751 -1.4383
   93SAPE  H15Y 9237   6.852   6.197   4.679 -0.2554 -0.0570 -2.5453
   93SAPE  C316 9238   6.819   6.015   4.574  0.2744 -0.3879  0.4478
   93SAPE  H16X 9239   6.845   5.907   4.580 -0.2108 -0.5220  0.1528
   93SAPE  H16Y 9240   6.851   6.061   4.478 -2.6316 -0.8503 -0.8511
   93SAPE  C317 9241   6.669   6.016   4.550  0.1763  0.2076  0.5072
   93SAPE  H17X 9242   6.602   5.990   4.634 -0.5442  1.5422  0.3694
   93SAPE  H17Y 9243   6.636   5.960   4.460 -0.9296  1.5963  0.0199
   93SAPE  C318 9244   6.629   6.160   4.533  0.5204  0.0546  0.3563
   93SAPE  H18X 9245   6.667   6.229   4.610  0.8197  1.1548 -0.7407
   93SAPE  H18Y 9246   6.518   6.155   4.540  0.5108  0.2775  0.3686
   93SAPE  H18Z 9247   6.661   6.196   4.433  2.4396 -2.7179 -0.1515
   94SAPE     N 9248   6.660   2.121   7.230 -0.7157 -0.3186 -0.0415
   94SAPE   HN1 9249   6.624   2.176   7.311  0.2180  2.1728 -1.2394
   94SAPE   HN2 9250   6.751   2.075   7.249  0.0534 -0.3255 -3.2354
   94SAPE   HN3 9251   6.689   2.185   7.154  0.9565 -0.0821  0.7607
   94SAPE   C12 9252   6.555   2.028   7.184 -0.1765  0.2248 -0.3509
   94SAPE  H12A 9253   6.457   2.071   7.213  0.9143  3.2352 -0.8370
   94SAPE  H12B 9254   6.569   1.935   7.245  0.3290  0.1218 -0.6264
   94SAPE   C11 9255   6.566   1.987   7.035 -0.6293 -0.5234 -0.1517
   94SAPE  H11A 9256   6.667   2.009   6.996 -0.6830  2.0189  0.9758
   94SAPE  H11B 9257   6.494   2.051   6.979  1.8118  0.4165 -2.4430
   94SAPE     P 9258   6.375   1.797   7.000  0.0873 -0.1871 -0.0884
   94SAPE   O13 9259   6.373   1.655   7.022 -0.1585 -0.0521  0.6685
   94SAPE   O14 9260   6.284   1.875   7.087  0.7139  0.4729  0.5143
   94SAPE   O12 9261   6.528   1.847   7.028 -0.2377 -0.2753  0.8493
   94SAPE   O11 9262   6.347   1.831   6.847 -0.7688  0.3733 -0.1376
   94SAPE    C1 9263   6.433   1.776   6.753 -0.2623  0.0600  0.5523
   94SAPE    HA 9264   6.487   1.686   6.790 -0.4146  0.5882  2.1289
   94SAPE    HB 9265   6.365   1.748   6.670 -1.2877  2.0235  0.6648
   94SAPE    C2 9266   6.541   1.877   6.707  0.4034  0.2829  0.0460
   94SAPE    HS 9267   6.608   1.894   6.794  0.8526 -2.0994  0.2519
   94SAPE   O21 9268   6.473   1.992   6.661 -0.6635 -0.2956 -0.4396
   94SAPE   C21 9269   6.559   2.098   6.657 -0.3709 -0.3452  0.1415
   94SAPE   O22 9270   6.675   2.104   6.697 -0.0010  0.3249  0.2658
   94SAPE   C22 9271   6.478   2.218   6.596 -0.0030  0.4045  1.0411
   94SAPE   H2R 9272   6.404   2.256   6.669 -0.1180  0.4046  0.9246
   94SAPE   H2S 9273   6.558   2.293   6.574  0.6955 -0.3758  0.8628
   94SAPE    C3 9274   6.627   1.816   6.596 -0.0040 -0.0715  0.8315
   94SAPE    HX 9275   6.668   1.728   6.650 -0.7616 -1.0387 -0.1504
   94SAPE    HY 9276   6.702   1.892   6.565 -1.6195  1.8676  1.4539
   94SAPE   O31 9277   6.545   1.781   6.489  0.2676 -0.6295 -0.1303
   94SAPE   C31 9278   6.562   1.835   6.375  1.0829 -0.1840  0.5696
   94SAPE   O32 9279   6.651   1.903   6.334  0.1205  0.3895  0.1264
   94SAPE   C32 9280   6.442   1.800   6.286  0.6261  0.0848  0.1627
   94SAPE   H2X 9281   6.352   1.859   6.317 -0.2504  0.3312 -2.6052
   94SAPE   H2Y 9282   6.422   1.691   6.297 -2.8373  0.5215 -0.5863
   94SAPE   C23 9283   6.395   2.181   6.472 -0.2204  0.3442 -0.4741
   94SAPE   H3R 9284   6.309   2.127   6.516  0.9578 -1.3942 -0.1920
   94SAPE   H3S 9285   6.462   2.117   6.410 -0.1994 -1.0222  0.9261
   94SAPE   C24 9286   6.335   2.305   6.398 -0.1423  0.1932 -0.7304
   94SAPE   H4R 9287   6.413   2.360   6.340  1.2024 -1.0594 -0.1939
   94SAPE   H4S 9288   6.282   2.368   6.473 -0.2739 -0.2495 -0.4488
   94SAPE   C25 9289   6.231   2.257   6.302 -0.1629  0.0612 -0.1179
   94SAPE   H5R 9290   6.151   2.203   6.355 -0.4828  1.2129  0.5908
   94SAPE   C26 9291   6.229   2.284   6.169  0.8062 -0.3347  0.1215
   94SAPE   H6R 9292   6.142   2.249   6.113  0.6771 -2.0226  1.2954
   94SAPE   C27 9293   6.340   2.342   6.089  0.5876 -0.8224  0.6353
   94SAPE   H7R 9294   6.432   2.284   6.112  1.7581 -0.2448 -2.1782
   94SAPE   H7S 9295   6.361   2.448   6.115 -2.5890  1.0738 -3.3378
   94SAPE   C28 9296   6.304   2.337   5.943 -0.0871 -0.4153  0.2940
   94SAPE   H8R 9297   6.208   2.380   5.914  0.1721  0.2376  0.4027
   94SAPE   C29 9298   6.383   2.299   5.843  0.4982 -0.5258  0.5683
   94SAPE   H9R 9299   6.347   2.307   5.740 -0.4793 -1.8821  0.7853
   94SAPE  C210 9300   6.524   2.238   5.854  0.4897 -0.3213  0.4086
   94SAPE  H10R 9301   6.540   2.191   5.954 -0.5552 -1.3308  0.1175
   94SAPE  H10S 9302   6.592   2.325   5.837 -1.3825  1.4474  1.4801
   94SAPE  C211 9303   6.552   2.134   5.751 -0.0672  0.6602  0.3117
   94SAPE  H11R 9304   6.557   2.034   5.798 -2.7215  0.2603 -0.1279
   94SAPE  C212 9305   6.570   2.147   5.620  0.1674  0.1513  0.3600
   94SAPE  H12R 9306   6.578   2.056   5.559  0.8455  0.9036 -0.7209
   94SAPE  C213 9307   6.551   2.279   5.548 -0.0513  0.8393 -0.3056
   94SAPE  H13R 9308   6.581   2.361   5.617 -1.0545 -1.0941  2.6332
   94SAPE  H13S 9309   6.443   2.284   5.524  0.1167  1.9107 -0.9397
   94SAPE  C214 9310   6.633   2.284   5.419 -0.5165  0.2642 -0.1804
   94SAPE  H14R 9311   6.740   2.275   5.439 -0.5473  0.6078  0.1611
   94SAPE  C215 9312   6.598   2.299   5.291  0.6751  0.6684 -0.2074
   94SAPE  H15R 9313   6.680   2.287   5.219  1.0207 -1.1386  0.4255
   94SAPE  C216 9314   6.455   2.303   5.247 -0.0096  0.9874 -1.3515
   94SAPE  H16R 9315   6.390   2.252   5.322 -0.1129  1.4212 -1.1367
   94SAPE  H16S 9316   6.443   2.228   5.166  1.5017 -2.1678  1.1387
   94SAPE  C217 9317   6.400   2.444   5.200 -0.0903  0.4622 -0.1198
   94SAPE  H17R 9318   6.393   2.509   5.290 -2.3315 -0.5255  0.5108
   94SAPE  H17S 9319   6.291   2.446   5.178 -0.2509 -0.5740  0.4578
   94SAPE  C218 9320   6.471   2.517   5.078 -0.2628  0.9502  0.1092
   94SAPE  H18R 9321   6.581   2.503   5.070 -0.4704 -0.6307 -0.3880
   94SAPE  H18S 9322   6.452   2.626   5.090  0.7035  0.9955  1.4577
   94SAPE  C219 9323   6.428   2.449   4.945 -0.2842 -0.5240 -0.4219
   94SAPE  H19R 9324   6.318   2.453   4.931 -0.2657  1.4697 -0.2503
   94SAPE  H19S 9325   6.454   2.341   4.943  0.7658 -0.2814 -1.0675
   94SAPE  C220 9326   6.486   2.502   4.815  0.5631  0.0379 -0.8534
   94SAPE  H20R 9327   6.493   2.613   4.810 -1.0095  0.3529  1.8132
   94SAPE  H20S 9328   6.419   2.479   4.730  0.5612 -1.2012 -0.5311
   94SAPE  H20T 9329   6.586   2.456   4.801  1.3835  1.3520  0.3226
   94SAPE   C33 9330   6.474   1.838   6.140 -0.0232 -0.0284  0.4314
   94SAPE   H3X 9331   6.563   1.777   6.113 -0.2506 -0.7473  1.2522
   94SAPE   H3Y 9332   6.494   1.946   6.123 -1.0901  0.0920 -0.1396
   94SAPE   C34 9333   6.347   1.797   6.059  0.0509 -0.5309  0.5355
   94SAPE   H4X 9334   6.254   1.839   6.101 -1.6037  0.2089 -3.4101
   94SAPE   H4Y 9335   6.342   1.686   6.058 -2.9127 -0.4714  0.8482
   94SAPE   C35 9336   6.351   1.846   5.910  0.7112  0.3213 -0.0837
   94SAPE   H5X 9337   6.439   1.809   5.853  1.4423 -0.2740  1.3699
   94SAPE   H5Y 9338   6.353   1.957   5.904 -0.5489  0.4869  1.7175
   94SAPE   C36 9339   6.216   1.814   5.836  0.4192  0.6313  0.3646
   94SAPE   H6X 9340   6.128   1.854   5.892  0.4009 -1.2892  1.8218
   94SAPE   H6Y 9341   6.208   1.705   5.819 -2.7782  0.7349  0.5152
   94SAPE   C37 9342   6.207   1.882   5.694  0.0160 -0.1407 -0.5065
   94SAPE   H7X 9343   6.196   1.990   5.713  0.2026 -0.0725 -0.7808
   94SAPE   H7Y 9344   6.107   1.851   5.654 -0.5628  0.9034  0.1112
   94SAPE   C38 9345   6.322   1.839   5.603 -0.6821 -0.3467  0.1653
   94SAPE   H8X 9346   6.329   1.728   5.605  1.3017 -0.2890 -0.6494
   94SAPE   H8Y 9347   6.419   1.870   5.649 -1.2147 -0.9973  1.7992
   94SAPE   C39 9348   6.294   1.878   5.463 -0.0979  0.2051  0.9176
   94SAPE   H9X 9349   6.290   1.988   5.447  2.1121  0.0134 -1.5046
   94SAPE   H9Y 9350   6.205   1.824   5.424  0.9900 -1.8426  1.0955
   94SAPE  C310 9351   6.400   1.832   5.364  0.3699  0.5022  0.3857
   94SAPE  H10X 9352   6.415   1.727   5.398 -2.8101  0.0288  0.6434
   94SAPE  H10Y 9353   6.497   1.885   5.381  1.2486 -1.2711  1.1991
   94SAPE  C311 9354   6.348   1.830   5.219  0.3321 -0.3076 -0.4568
   94SAPE  H11X 9355   6.245   1.790   5.225  0.9718 -2.4043 -2.2582
   94SAPE  H11Y 9356   6.405   1.760   5.154  3.1814  2.0858 -0.7349
   94SAPE  C312 9357   6.340   1.968   5.154  0.1549 -0.0057  0.0883
   94SAPE  H12X 9358   6.445   2.004   5.142  0.4347 -0.7460  0.2549
   94SAPE  H12Y 9359   6.277   2.022   5.227 -0.0034  0.0874 -0.1166
   94SAPE  C313 9360   6.266   1.978   5.021  0.1556  0.4818  0.7023
   94SAPE  H13X 9361   6.255   2.087   5.008  1.0261  0.6830  1.5507
   94SAPE  H13Y 9362   6.168   1.930   5.043  0.0734  0.2302 -0.1691
   94SAPE  C314 9363   6.347   1.909   4.907 -1.0967  0.4825 -0.5050
   94SAPE  H14X 9364   6.366   1.800   4.918 -0.5071  0.6926  0.7416
   94SAPE  H14Y 9365   6.448   1.955   4.905 -1.6690  1.7861 -0.6990
   94SAPE  C315 9366   6.290   1.926   4.765  0.2322  0.0902 -0.1087
   94SAPE  H15X 9367   6.355   1.991   4.703  0.2354 -1.3762 -1.7095
   94SAPE  H15Y 9368   6.190   1.975   4.772  0.2355  0.0690  0.1233
   94SAPE  C316 9369   6.264   1.792   4.686  0.1918  0.1914  0.1783
   94SAPE  H16X 9370   6.186   1.739   4.744  0.8580  0.7786  1.7032
   94SAPE  H16Y 9371   6.360   1.737   4.693  1.4930  2.3846  0.5762
   94SAPE  C317 9372   6.213   1.799   4.547 -0.0374 -0.2587  0.1693
   94SAPE  H17X 9373   6.292   1.832   4.476  1.3881 -1.4647  1.1305
   94SAPE  H17Y 9374   6.131   1.874   4.541 -0.9663 -1.3765 -1.9670
   94SAPE  C318 9375   6.166   1.671   4.495  0.8314 -0.2363  0.4804
   94SAPE  H18X 9376   6.228   1.588   4.536  1.2909 -0.3820 -0.4994
   94SAPE  H18Y 9377   6.172   1.659   4.385  0.1572 -1.0060  0.5169
   94SAPE  H18Z 9378   6.060   1.654   4.523  0.6953 -0.4522 -0.1555
   95SAPE     N 9379   3.288   1.486   6.479 -0.2282  0.0267 -0.0246
   95SAPE   HN1 9380   3.311   1.566   6.418 -1.7450  1.8439  1.6434
   95SAPE   HN2 9381   3.377   1.439   6.503 -1.8134 -2.2320  1.9260
   95SAPE   HN3 9382   3.235   1.416   6.422 -1.7637  0.7611  0.4309
   95SAPE   C12 9383   3.210   1.536   6.590  0.1278 -0.3612 -0.7618
   95SAPE  H12A 9384   3.198   1.461   6.671 -0.9022  3.0252  2.5393
   95SAPE  H12B 9385   3.113   1.575   6.553 -1.6581 -1.0210  2.7743
   95SAPE   C11 9386   3.275   1.660   6.653  0.1654 -0.1055 -1.1923
   95SAPE  H11A 9387   3.365   1.625   6.708  0.1251 -0.9015 -1.6267
   95SAPE  H11B 9388   3.197   1.690   6.726  1.9671 -0.6740  1.1257
   95SAPE     P 9389   3.336   1.911   6.606 -0.2201 -0.4487 -0.0680
   95SAPE   O13 9390   3.272   1.926   6.738 -0.3519 -0.6201 -0.1000
   95SAPE   O14 9391   3.477   1.949   6.599 -0.1262 -0.0994 -0.5520
   95SAPE   O12 9392   3.316   1.761   6.563 -0.2111  0.5384  0.6540
   95SAPE   O11 9393   3.254   1.988   6.498  0.0828  0.0944  0.4002
   95SAPE    C1 9394   3.273   1.974   6.357  0.8367  0.0848  0.1092
   95SAPE    HA 9395   3.310   2.068   6.311  0.8775 -0.6393 -1.4097
   95SAPE    HB 9396   3.351   1.897   6.339  0.4096 -0.0879 -1.1294
   95SAPE    C2 9397   3.149   1.924   6.278  0.2897 -0.1127 -0.6813
   95SAPE    HS 9398   3.169   1.941   6.170  1.4354  1.6756 -0.2097
   95SAPE   O21 9399   3.034   1.994   6.323 -0.4753 -0.3708  0.1748
   95SAPE   C21 9400   2.939   2.010   6.234 -0.2617  0.0015 -0.4807
   95SAPE   O22 9401   2.952   1.986   6.116 -0.1116 -0.1689  0.6375
   95SAPE   C22 9402   2.809   2.055   6.300 -0.4106  0.6062 -0.5082
   95SAPE   H2R 9403   2.762   1.968   6.351 -2.3530  1.3444 -0.9813
   95SAPE   H2S 9404   2.822   2.137   6.373 -1.0990  1.0698 -0.8990
   95SAPE    C3 9405   3.129   1.773   6.292  0.1538  0.5155  0.0888
   95SAPE    HX 9406   3.095   1.748   6.395  0.1657  0.1411  0.0025
   95SAPE    HY 9407   3.228   1.726   6.274  0.6373  1.7779 -0.6842
   95SAPE   O31 9408   3.033   1.722   6.195  0.1700  0.2083  0.4262
   95SAPE   C31 9409   3.081   1.701   6.077 -0.1163 -1.1072 -0.3973
   95SAPE   O32 9410   3.197   1.719   6.044 -0.7531  0.0831 -0.0232
   95SAPE   C32 9411   2.975   1.632   5.989  0.0615  0.3178 -0.9439
   95SAPE   H2X 9412   2.884   1.694   6.005 -0.6210 -0.6493 -0.9760
   95SAPE   H2Y 9413   2.958   1.531   6.032  0.5681  0.6108 -0.0231
   95SAPE   C23 9414   2.709   2.114   6.200  0.1500 -0.3566 -0.1850
   95SAPE   H3R 9415   2.619   2.136   6.262  0.8279  0.2625  0.5948
   95SAPE   H3S 9416   2.668   2.038   6.130 -1.9314  0.8415 -0.3600
   95SAPE   C24 9417   2.747   2.250   6.134  0.4680 -0.1148 -0.1373
   95SAPE   H4R 9418   2.846   2.232   6.088  0.4223 -0.5703 -0.0618
   95SAPE   H4S 9419   2.746   2.330   6.211 -1.0416  0.1153 -0.3661
   95SAPE   C25 9420   2.647   2.283   6.029 -0.5792  0.2857  0.2080
   95SAPE   H5R 9421   2.557   2.334   6.065 -0.7947  1.7141 -2.1657
   95SAPE   C26 9422   2.684   2.305   5.901 -0.1374  0.0892  0.5935
   95SAPE   H6R 9423   2.604   2.345   5.837  1.2740 -2.2800 -2.9191
   95SAPE   C27 9424   2.821   2.272   5.837 -0.4760 -0.0863  0.4427
   95SAPE   H7R 9425   2.909   2.308   5.894  0.2931 -1.0012 -0.1353
   95SAPE   H7S 9426   2.825   2.323   5.738 -0.7542  1.2872  1.1089
   95SAPE   C28 9427   2.844   2.126   5.829 -0.1198 -0.3193 -0.2354
   95SAPE   H8R 9428   2.893   2.092   5.922 -1.3644  1.9613  1.3738
   95SAPE   C29 9429   2.848   2.053   5.715 -0.7104 -0.8238 -0.5893
   95SAPE   H9R 9430   2.864   1.946   5.738  0.3149 -0.5667 -0.0243
   95SAPE  C210 9431   2.795   2.081   5.581 -0.1069 -0.0467 -0.0890
   95SAPE  H10R 9432   2.869   2.122   5.509  0.3518 -1.4315 -0.4535
   95SAPE  H10S 9433   2.720   2.162   5.589  1.3151  1.2779  0.2085
   95SAPE  C211 9434   2.732   1.964   5.512 -0.0592 -0.5903  0.8303
   95SAPE  H11R 9435   2.779   1.866   5.529 -0.1129 -0.5629  1.1488
   95SAPE  C212 9436   2.652   1.973   5.407 -0.3890 -0.3441  0.6322
   95SAPE  H12R 9437   2.608   1.882   5.363  0.2025  0.6241 -2.2171
   95SAPE  C213 9438   2.599   2.105   5.359  0.4882 -0.5924  0.4548
   95SAPE  H13R 9439   2.686   2.170   5.336 -0.7294  1.2039  0.6702
   95SAPE  H13S 9440   2.553   2.159   5.445  0.4645 -1.5678  1.0820
   95SAPE  C214 9441   2.488   2.085   5.255  0.5828 -0.0476 -0.3030
   95SAPE  H14R 9442   2.404   2.034   5.304  0.0222 -0.3074 -1.5149
   95SAPE  C215 9443   2.481   2.109   5.121 -0.1852  1.0984  0.2578
   95SAPE  H15R 9444   2.391   2.081   5.063  0.7187  0.8164 -1.0614
   95SAPE  C216 9445   2.590   2.175   5.041  0.2730 -0.0307 -0.9683
   95SAPE  H16R 9446   2.679   2.109   5.036  1.4066  1.5368 -2.8799
   95SAPE  H16S 9447   2.630   2.253   5.110  0.3870  0.1102 -1.1906
   95SAPE  C217 9448   2.557   2.238   4.907 -0.2152 -0.0938  0.1778
   95SAPE  H17R 9449   2.610   2.333   4.886 -1.3158  0.7667  1.0974
   95SAPE  H17S 9450   2.450   2.268   4.898 -0.8178 -2.2380 -0.3904
   95SAPE  C218 9451   2.586   2.151   4.785  0.1129 -0.6366 -0.0699
   95SAPE  H18R 9452   2.561   2.211   4.695  1.6645 -1.8983 -1.4078
   95SAPE  H18S 9453   2.521   2.062   4.774 -1.0195  0.0381  0.9875
   95SAPE  C219 9454   2.734   2.112   4.787 -0.3070 -0.5220  0.7344
   95SAPE  H19R 9455   2.757   2.041   4.869  2.9787 -1.5848 -0.9346
   95SAPE  H19S 9456   2.794   2.204   4.804  1.1807 -1.2065 -0.5398
   95SAPE  C220 9457   2.786   2.054   4.654 -0.0051  0.6130 -0.0645
   95SAPE  H20R 9458   2.729   1.963   4.623  0.8070  0.0211  0.1609
   95SAPE  H20S 9459   2.894   2.028   4.653  0.3620  2.0566  0.2586
   95SAPE  H20T 9460   2.780   2.131   4.574  2.8264  2.7541  1.6186
   95SAPE   C33 9461   3.020   1.616   5.843  0.1886 -0.8645 -0.1931
   95SAPE   H3X 9462   3.120   1.568   5.841  0.8675  0.5524 -0.8703
   95SAPE   H3Y 9463   3.024   1.718   5.800  0.9319 -0.2494  1.2374
   95SAPE   C34 9464   2.934   1.519   5.767  0.2771 -0.3212 -0.0290
   95SAPE   H4X 9465   2.918   1.420   5.814 -1.4370  0.0639  0.2682
   95SAPE   H4Y 9466   3.000   1.498   5.679 -0.6425 -0.7174 -0.6399
   95SAPE   C35 9467   2.806   1.583   5.705 -0.0989  0.3747 -0.2306
   95SAPE   H5X 9468   2.813   1.679   5.650 -0.3656  0.1301 -0.6943
   95SAPE   H5Y 9469   2.756   1.612   5.800  0.4619  4.0455 -0.9016
   95SAPE   C36 9470   2.710   1.494   5.633 -0.1056 -0.8495 -0.0868
   95SAPE   H6X 9471   2.630   1.556   5.586 -0.2965 -0.8727  0.2046
   95SAPE   H6Y 9472   2.675   1.405   5.691  0.0341 -0.5851  0.4128
   95SAPE   C37 9473   2.796   1.437   5.514 -0.1332  0.4506  0.0473
   95SAPE   H7X 9474   2.869   1.365   5.557 -0.5219  1.7422  3.0669
   95SAPE   H7Y 9475   2.851   1.526   5.475  0.5134 -0.1316 -0.4014
   95SAPE   C38 9476   2.716   1.364   5.408 -0.2845  0.0698  0.3914
   95SAPE   H8X 9477   2.637   1.433   5.374 -1.8237 -0.7733  2.1071
   95SAPE   H8Y 9478   2.671   1.270   5.447 -1.9371  1.0331  0.9041
   95SAPE   C39 9479   2.806   1.332   5.290 -0.0789 -0.3409 -0.4866
   95SAPE   H9X 9480   2.869   1.240   5.300  2.0399  0.6845 -3.2002
   95SAPE   H9Y 9481   2.874   1.412   5.256  0.2002 -1.1114 -1.8046
   95SAPE  C310 9482   2.710   1.299   5.177  0.3318  0.1306  0.1479
   95SAPE  H10X 9483   2.646   1.384   5.146 -1.8021 -0.2128  3.2066
   95SAPE  H10Y 9484   2.621   1.237   5.199 -1.0917  1.4373 -1.5859
   95SAPE  C311 9485   2.783   1.243   5.055 -0.1486  0.1201 -0.2905
   95SAPE  H11X 9486   2.807   1.138   5.081  0.5571 -0.1415 -1.8542
   95SAPE  H11Y 9487   2.880   1.297   5.047  0.3027 -0.6941 -0.4100
   95SAPE  C312 9488   2.691   1.245   4.933  0.2111  0.0329  0.5417
   95SAPE  H12X 9489   2.667   1.348   4.899 -0.5221 -0.0513  0.7981
   95SAPE  H12Y 9490   2.592   1.200   4.953 -0.5897  0.9960 -1.1022
   95SAPE  C313 9491   2.757   1.174   4.811 -0.1948  0.1833  0.1537
   95SAPE  H13X 9492   2.749   1.064   4.824  0.8304  0.0151 -0.4830
   95SAPE  H13Y 9493   2.860   1.208   4.788  0.5264 -1.1976  1.1986
   95SAPE  C314 9494   2.675   1.211   4.682  0.0920 -0.8415 -0.9408
   95SAPE  H14X 9495   2.672   1.322   4.678 -0.8277 -0.8291 -0.0547
   95SAPE  H14Y 9496   2.570   1.177   4.694 -0.2572 -0.1376 -1.8482
   95SAPE  C315 9497   2.744   1.173   4.553 -0.5288 -0.0809 -0.4208
   95SAPE  H15X 9498   2.756   1.064   4.539 -0.5805 -0.3411  1.3223
   95SAPE  H15Y 9499   2.846   1.217   4.556 -1.4762  2.2156  1.4372
   95SAPE  C316 9500   2.673   1.222   4.429  0.1429 -0.0011 -0.0715
   95SAPE  H16X 9501   2.662   1.333   4.427  3.3195  0.4024 -0.1328
   95SAPE  H16Y 9502   2.573   1.173   4.426  1.1133 -2.0636 -1.1974
   95SAPE  C317 9503   2.741   1.189   4.296 -0.1268  0.5111  1.1288
   95SAPE  H17X 9504   2.741   1.078   4.294 -0.9270  0.4936  1.8400
   95SAPE  H17Y 9505   2.847   1.221   4.285 -0.5761  1.2191 -2.4135
   95SAPE  C318 9506   2.662   1.234   4.167  0.2932 -0.0016  0.5730
   95SAPE  H18X 9507   2.721   1.218   4.074 -0.4673  1.1050 -0.1278
   95SAPE  H18Y 9508   2.629   1.341   4.173  2.2262  0.5766  2.1044
   95SAPE  H18Z 9509   2.577   1.164   4.155 -0.4474  0.9067  0.3473
   96SAPE     N 9510   5.308   2.570   6.908 -0.1648  0.7318 -0.0945
   96SAPE   HN1 9511   5.321   2.490   6.973  1.1330  0.9478 -0.0567
   96SAPE   HN2 9512   5.374   2.639   6.950  0.6962 -0.4483  0.5295
   96SAPE   HN3 9513   5.207   2.593   6.911 -0.5588 -0.8088 -0.8049
   96SAPE   C12 9514   5.345   2.514   6.769  0.6394 -0.0704 -0.6227
   96SAPE  H12A 9515   5.447   2.469   6.772  0.5757 -0.1804 -0.0382
   96SAPE  H12B 9516   5.346   2.605   6.706 -2.9758  0.9110  0.4830
   96SAPE   C11 9517   5.245   2.407   6.723  0.0173 -0.1144 -0.0479
   96SAPE  H11A 9518   5.242   2.416   6.612 -2.9771  1.6492  0.0537
   96SAPE  H11B 9519   5.141   2.438   6.749  0.0912 -1.2470  1.7015
   96SAPE     P 9520   5.369   2.173   6.694 -0.2141 -0.1332 -0.6303
   96SAPE   O13 9521   5.490   2.141   6.779 -0.1433 -0.1926  0.2062
   96SAPE   O14 9522   5.291   2.060   6.645  0.1719  0.1233 -0.0368
   96SAPE   O12 9523   5.275   2.275   6.775  0.8720  0.0843  0.1054
   96SAPE   O11 9524   5.412   2.257   6.570 -0.0817 -0.1141 -0.1531
   96SAPE    C1 9525   5.516   2.204   6.483  0.1235  0.5888  0.1526
   96SAPE    HA 9526   5.600   2.168   6.546  0.0457  1.7744  0.9622
   96SAPE    HB 9527   5.485   2.105   6.444  1.7398 -0.1889  0.7537
   96SAPE    C2 9528   5.560   2.317   6.385  0.3413 -0.0727  0.4451
   96SAPE    HS 9529   5.616   2.277   6.297  0.6100  1.7952 -0.2880
   96SAPE   O21 9530   5.634   2.421   6.450  0.8614  0.2938  0.2249
   96SAPE   C21 9531   5.748   2.379   6.496 -0.1701  0.8868 -0.3697
   96SAPE   O22 9532   5.808   2.279   6.468  0.0478 -0.2915  0.3956
   96SAPE   C22 9533   5.808   2.490   6.584  0.1015  0.2852  0.6258
   96SAPE   H2R 9534   5.728   2.547   6.636 -0.6422 -0.6742  0.5527
   96SAPE   H2S 9535   5.866   2.436   6.662  1.6401 -0.5123 -0.9953
   96SAPE    C3 9536   5.435   2.390   6.324  0.4909 -0.2640  0.0048
   96SAPE    HX 9537   5.407   2.464   6.402 -1.7718 -0.0946 -0.9012
   96SAPE    HY 9538   5.353   2.315   6.314 -0.7683  1.1282 -0.5576
   96SAPE   O31 9539   5.470   2.467   6.205 -0.2544 -0.3153 -0.4999
   96SAPE   C31 9540   5.412   2.431   6.098 -0.7541  0.0571  0.2992
   96SAPE   O32 9541   5.339   2.335   6.075 -0.2323  0.2726 -0.0280
   96SAPE   C32 9542   5.444   2.532   5.987  0.5030 -0.3822 -0.4771
   96SAPE   H2X 9543   5.525   2.498   5.919  0.3572  0.6666 -1.2034
   96SAPE   H2Y 9544   5.470   2.629   6.036 -0.8563 -0.0040 -0.4664
   96SAPE   C23 9545   5.901   2.598   6.506  0.2268  0.4362 -0.2666
   96SAPE   H3R 9546   5.922   2.678   6.579 -0.6029  0.1773  0.2702
   96SAPE   H3S 9547   5.836   2.637   6.424  3.8434 -0.7518 -4.0987
   96SAPE   C24 9548   6.020   2.532   6.439  0.0199  0.1095  0.2953
   96SAPE   H4R 9549   5.984   2.444   6.382  0.1324  0.1609  0.1468
   96SAPE   H4S 9550   6.091   2.500   6.518  0.6364  0.1779 -0.2277
   96SAPE   C25 9551   6.091   2.630   6.345  0.2057 -0.6212 -0.1868
   96SAPE   H5R 9552   6.173   2.693   6.382 -2.3548  3.7443 -1.2498
   96SAPE   C26 9553   6.056   2.650   6.219 -0.4004  0.0586 -0.5192
   96SAPE   H6R 9554   6.117   2.733   6.179  0.3701  0.5205  1.4896
   96SAPE   C27 9555   5.947   2.588   6.144 -0.4204 -0.0634  0.4507
   96SAPE   H7R 9556   5.865   2.663   6.143 -1.3241 -0.9977  1.3586
   96SAPE   H7S 9557   5.910   2.492   6.186 -0.7363  0.6049  1.7586
   96SAPE   C28 9558   5.994   2.562   6.005  0.1855  0.0388  0.4155
   96SAPE   H8R 9559   6.091   2.510   5.997 -1.6710 -3.5146 -1.3847
   96SAPE   C29 9560   5.918   2.585   5.893  0.8073  0.5597 -0.4861
   96SAPE   H9R 9561   5.964   2.569   5.794  0.9576 -0.9063 -0.1999
   96SAPE  C210 9562   5.776   2.631   5.883 -0.2845 -0.5707 -0.3309
   96SAPE  H10R 9563   5.722   2.621   5.979  1.0600 -0.8076  0.4245
   96SAPE  H10S 9564   5.717   2.566   5.815  0.6453 -1.2706 -0.4951
   96SAPE  C211 9565   5.769   2.768   5.823  0.1306  0.1209  0.5608
   96SAPE  H11R 9566   5.738   2.845   5.895 -0.2355  2.2072 -1.6785
   96SAPE  C212 9567   5.798   2.808   5.695 -0.1646  0.0626 -0.2198
   96SAPE  H12R 9568   5.794   2.913   5.664  0.7279 -0.2986 -1.6282
   96SAPE  C213 9569   5.839   2.715   5.582  0.5581  0.0690  0.8130
   96SAPE  H13R 9570   5.841   2.607   5.607  0.8036  0.0074  0.5252
   96SAPE  H13S 9571   5.943   2.745   5.560  0.0108  0.1817 -1.9007
   96SAPE  C214 9572   5.749   2.741   5.459 -0.4093  0.5200 -0.3026
   96SAPE  H14R 9573   5.664   2.673   5.444  0.7532 -1.5633  1.9124
   96SAPE  C215 9574   5.782   2.835   5.360  0.3402  0.0211 -0.8536
   96SAPE  H15R 9575   5.715   2.835   5.273 -1.5219 -0.1697  0.5316
   96SAPE  C216 9576   5.897   2.933   5.355 -1.4154  0.1653 -0.9800
   96SAPE  H16R 9577   5.977   2.902   5.425 -1.3313  1.6417 -0.3659
   96SAPE  H16S 9578   5.860   3.025   5.405 -1.3127 -0.2860 -0.0591
   96SAPE  C217 9579   5.952   2.972   5.214  0.1229 -0.6246  0.1225
   96SAPE  H17R 9580   5.998   3.071   5.236 -0.0034 -0.8400  1.4364
   96SAPE  H17S 9581   5.871   2.979   5.138 -0.0561  1.0828  0.4352
   96SAPE  C218 9582   6.049   2.866   5.165 -0.6583 -0.4001 -0.7674
   96SAPE  H18R 9583   5.993   2.773   5.184  0.2204 -0.5384  1.5991
   96SAPE  H18S 9584   6.144   2.874   5.223 -0.9294  1.0958 -0.4766
   96SAPE  C219 9585   6.093   2.867   5.014  0.0049  0.2104  0.0247
   96SAPE  H19R 9586   6.147   2.963   4.998 -1.4270  0.7494 -1.9672
   96SAPE  H19S 9587   5.998   2.876   4.958  1.0280  1.3804 -1.5854
   96SAPE  C220 9588   6.165   2.740   4.972  0.2727  0.5796 -0.0040
   96SAPE  H20R 9589   6.099   2.651   4.966 -0.8263  1.4651 -1.6580
   96SAPE  H20S 9590   6.242   2.720   5.049  2.8194  0.1928 -2.5060
   96SAPE  H20T 9591   6.222   2.746   4.877 -0.7919  2.1017 -0.6017
   96SAPE   C33 9592   5.323   2.560   5.898  0.2887 -0.0661 -0.2440
   96SAPE   H3X 9593   5.253   2.612   5.967  0.5497 -1.4946  1.1428
   96SAPE   H3Y 9594   5.268   2.467   5.871 -0.7309  0.4857 -0.1133
   96SAPE   C34 9595   5.345   2.651   5.775  0.4021 -0.0265 -0.2681
   96SAPE   H4X 9596   5.425   2.722   5.802 -0.3634  0.6990  0.1603
   96SAPE   H4Y 9597   5.253   2.702   5.738 -1.5895 -2.5521  0.8404
   96SAPE   C35 9598   5.414   2.573   5.660 -0.1591 -0.7373 -0.8613
   96SAPE   H5X 9599   5.512   2.533   5.693  0.9233  1.1510 -1.6115
   96SAPE   H5Y 9600   5.446   2.657   5.594  0.2702  0.6790  1.0383
   96SAPE   C36 9601   5.332   2.473   5.588  0.6581  0.5885 -0.2905
   96SAPE   H6X 9602   5.242   2.518   5.540 -1.1824 -2.3189  0.1330
   96SAPE   H6Y 9603   5.282   2.409   5.664  0.2062 -0.5794 -1.5229
   96SAPE   C37 9604   5.394   2.374   5.488 -0.3698 -0.2117  0.8063
   96SAPE   H7X 9605   5.328   2.292   5.450 -0.4401  0.7332 -1.2721
   96SAPE   H7Y 9606   5.473   2.323   5.546  0.6937  2.2236  1.6527
   96SAPE   C38 9607   5.444   2.451   5.360 -0.1900  0.1070 -0.2329
   96SAPE   H8X 9608   5.482   2.380   5.283  1.6222 -0.6325  1.2637
   96SAPE   H8Y 9609   5.534   2.501   5.401  0.0284 -0.2934 -0.2260
   96SAPE   C39 9610   5.338   2.549   5.300  0.5395  0.4319 -0.2544
   96SAPE   H9X 9611   5.337   2.635   5.371  0.1434  0.3703 -0.1878
   96SAPE   H9Y 9612   5.242   2.494   5.310  1.4751 -0.8404  3.5184
   96SAPE  C310 9613   5.367   2.585   5.157  0.2511  1.0029  0.3751
   96SAPE  H10X 9614   5.304   2.673   5.133 -0.2987  0.3000 -0.8554
   96SAPE  H10Y 9615   5.359   2.503   5.082 -0.2788  0.4213  1.0504
   96SAPE  C311 9616   5.512   2.628   5.139 -0.4215  0.2679  0.3159
   96SAPE  H11X 9617   5.579   2.542   5.156  0.0073  0.5152 -0.1091
   96SAPE  H11Y 9618   5.539   2.718   5.198  2.5301 -0.6822  0.5373
   96SAPE  C312 9619   5.533   2.668   4.988 -0.3627 -0.2780  0.5547
   96SAPE  H12X 9620   5.446   2.726   4.951 -0.4656 -0.4508  0.5220
   96SAPE  H12Y 9621   5.541   2.575   4.927  2.2627 -0.0200  0.3922
   96SAPE  C313 9622   5.656   2.757   4.964  0.5964  0.3056  0.6797
   96SAPE  H13X 9623   5.741   2.725   5.028  0.4644 -0.5630  0.4382
   96SAPE  H13Y 9624   5.613   2.856   4.989 -2.5038 -0.4968 -0.8822
   96SAPE  C314 9625   5.692   2.756   4.817 -0.0281 -0.3664  0.1427
   96SAPE  H14X 9626   5.741   2.853   4.794 -1.2685  0.4422  0.7279
   96SAPE  H14Y 9627   5.603   2.757   4.750 -1.3182  0.5344  1.7662
   96SAPE  C315 9628   5.782   2.635   4.775  0.6550  0.0052 -0.0184
   96SAPE  H15X 9629   5.735   2.540   4.809  0.9296  0.0641  0.5258
   96SAPE  H15Y 9630   5.879   2.642   4.827  0.6421 -2.4515  0.4468
   96SAPE  C316 9631   5.808   2.625   4.624  0.4874  0.4714 -0.3782
   96SAPE  H16X 9632   5.893   2.555   4.614  0.3248  0.1061  0.6736
   96SAPE  H16Y 9633   5.838   2.728   4.593 -0.7326  0.8524 -0.3568
   96SAPE  C317 9634   5.696   2.576   4.528 -0.3684 -0.6503 -0.4034
   96SAPE  H17X 9635   5.626   2.659   4.504 -0.7137 -0.5607  0.8748
   96SAPE  H17Y 9636   5.639   2.494   4.578 -1.3305  1.1330  1.5743
   96SAPE  C318 9637   5.771   2.516   4.406  0.3044 -0.1034 -1.2895
   96SAPE  H18X 9638   5.837   2.583   4.347 -1.3265  1.1952 -1.6910
   96SAPE  H18Y 9639   5.689   2.472   4.346 -0.8454  0.7740 -0.4031
   96SAPE  H18Z 9640   5.838   2.437   4.449 -0.0808 -1.4084 -2.9766
   97SAPE     N 9641   6.628   4.023   7.029  0.4024 -0.6539 -0.2103
   97SAPE   HN1 9642   6.609   3.971   7.117 -0.9567  0.2286  0.0464
   97SAPE   HN2 9643   6.551   3.997   6.963 -0.8043  0.6372  0.6202
   97SAPE   HN3 9644   6.721   3.997   6.990  0.1973 -1.7529 -0.0176
   97SAPE   C12 9645   6.611   4.176   7.061 -0.3248  0.1188 -0.0893
   97SAPE  H12A 9646   6.675   4.188   7.152 -2.3379 -0.6919  1.5222
   97SAPE  H12B 9647   6.508   4.191   7.101 -0.6447 -1.5729 -0.2036
   97SAPE   C11 9648   6.663   4.262   6.945 -0.5864  1.0088 -0.3061
   97SAPE  H11A 9649   6.766   4.228   6.919  0.4245  2.8456  1.0098
   97SAPE  H11B 9650   6.667   4.370   6.973  0.1169  0.8330  0.3070
   97SAPE     P 9651   6.440   4.294   6.821 -0.1161  0.0698 -0.2609
   97SAPE   O13 9652   6.329   4.197   6.845 -0.3369 -0.1303 -0.0283
   97SAPE   O14 9653   6.431   4.419   6.896 -0.1360  0.0961 -0.3899
   97SAPE   O12 9654   6.587   4.240   6.831 -0.5343  0.3498 -0.2136
   97SAPE   O11 9655   6.438   4.328   6.668 -0.5947 -0.3073  0.7673
   97SAPE    C1 9656   6.469   4.224   6.575 -0.0100  0.2446  0.4082
   97SAPE    HA 9657   6.526   4.143   6.625 -1.1747  0.3198  1.9370
   97SAPE    HB 9658   6.378   4.178   6.532  0.6711 -1.1773  0.4387
   97SAPE    C2 9659   6.544   4.282   6.451 -0.6415 -0.0737 -0.1721
   97SAPE    HS 9660   6.629   4.331   6.503 -0.4575  1.2376 -1.6449
   97SAPE   O21 9661   6.459   4.373   6.386  0.0111  0.3548  0.4578
   97SAPE   C21 9662   6.515   4.469   6.326  0.4416 -0.0850 -0.3319
   97SAPE   O22 9663   6.630   4.510   6.327  0.8106  0.5492 -0.5859
   97SAPE   C22 9664   6.410   4.544   6.249 -0.2046  0.1494  1.0072
   97SAPE   H2R 9665   6.383   4.481   6.161  0.2597  1.9584 -0.4958
   97SAPE   H2S 9666   6.329   4.556   6.324 -0.2967 -2.8704  1.5231
   97SAPE    C3 9667   6.587   4.167   6.356  0.6080  0.7041  0.0770
   97SAPE    HX 9668   6.501   4.097   6.356  1.4144 -0.3154  0.9190
   97SAPE    HY 9669   6.675   4.117   6.402 -0.1958 -0.2033  0.6590
   97SAPE   O31 9670   6.615   4.204   6.217 -0.4452 -0.5373 -0.2881
   97SAPE   C31 9671   6.739   4.239   6.189  0.5558  0.4708 -0.0886
   97SAPE   O32 9672   6.840   4.234   6.261  0.0620 -0.0413 -0.7838
   97SAPE   C32 9673   6.750   4.272   6.039 -0.4538  0.1490 -0.1226
   97SAPE   H2X 9674   6.701   4.187   5.987  0.3275  1.4354 -3.1433
   97SAPE   H2Y 9675   6.858   4.268   6.012 -1.6088 -0.0429 -5.7831
   97SAPE   C23 9676   6.471   4.678   6.193 -0.4392  0.3619  0.0433
   97SAPE   H3R 9677   6.568   4.660   6.142  0.3295 -0.9714  1.8540
   97SAPE   H3S 9678   6.494   4.738   6.283 -1.8845  1.2236 -0.1252
   97SAPE   C24 9679   6.365   4.745   6.100 -0.4150 -0.0890  0.0206
   97SAPE   H4R 9680   6.266   4.751   6.149  0.3678  1.5033  1.4904
   97SAPE   H4S 9681   6.351   4.685   6.007  0.3490  0.4146 -0.4375
   97SAPE   C25 9682   6.408   4.890   6.069 -0.1513  1.0070 -0.3414
   97SAPE   H5R 9683   6.420   4.958   6.155  1.2595  3.7080 -2.5287
   97SAPE   C26 9684   6.402   4.949   5.947 -1.0366 -0.0952 -0.4492
   97SAPE   H6R 9685   6.432   5.054   5.931  3.3633 -1.1567 -0.3923
   97SAPE   C27 9686   6.364   4.886   5.818 -0.9192  0.5432 -0.8078
   97SAPE   H7R 9687   6.380   4.776   5.811 -0.2990  0.6879 -2.1320
   97SAPE   H7S 9688   6.441   4.935   5.754  0.6747  1.7403  1.8613
   97SAPE   C28 9689   6.223   4.928   5.786  0.1081  0.2207 -0.2375
   97SAPE   H8R 9690   6.165   4.989   5.857  0.1833  0.9755 -0.8256
   97SAPE   C29 9691   6.171   4.906   5.662  0.5926 -0.2268 -0.5538
   97SAPE   H9R 9692   6.066   4.924   5.637  0.2857 -1.4330 -0.1871
   97SAPE  C210 9693   6.243   4.836   5.552 -0.1346  0.2538  1.1855
   97SAPE  H10R 9694   6.223   4.727   5.553  1.0730 -0.0353 -0.5742
   97SAPE  H10S 9695   6.352   4.856   5.561 -0.1731  1.8806 -1.0348
   97SAPE  C211 9696   6.228   4.895   5.418  0.1440  0.1353 -0.3417
   97SAPE  H11R 9697   6.265   4.999   5.409  2.0988 -0.3978  0.8588
   97SAPE  C212 9698   6.204   4.830   5.303 -0.5406  0.5174  0.7398
   97SAPE  H12R 9699   6.179   4.883   5.209 -0.5671 -1.2051 -0.2704
   97SAPE  C213 9700   6.168   4.680   5.287 -0.1628  0.4592  0.1211
   97SAPE  H13R 9701   6.074   4.668   5.230 -0.4026 -1.3267  0.8331
   97SAPE  H13S 9702   6.167   4.626   5.384  1.1235 -2.4051 -1.3264
   97SAPE  C214 9703   6.288   4.617   5.211  0.0990  0.4844 -0.7616
   97SAPE  H14R 9704   6.384   4.610   5.265 -0.5026 -0.8028  0.2211
   97SAPE  C215 9705   6.275   4.542   5.096  0.0165 -1.0487 -0.4452
   97SAPE  H15R 9706   6.371   4.507   5.056  1.9769  2.1739  1.0052
   97SAPE  C216 9707   6.157   4.524   5.011  0.4851  0.0865 -0.0254
   97SAPE  H16R 9708   6.097   4.618   5.008  1.2812  0.5849 -0.6413
   97SAPE  H16S 9709   6.100   4.445   5.063  0.7654 -0.4362 -0.5047
   97SAPE  C217 9710   6.179   4.484   4.868  0.5868 -0.3976  0.1640
   97SAPE  H17R 9711   6.088   4.453   4.812 -0.7063 -0.3361  2.1288
   97SAPE  H17S 9712   6.235   4.388   4.872  0.7311 -0.3509 -0.7074
   97SAPE  C218 9713   6.273   4.578   4.786  0.2814 -0.1663  0.1959
   97SAPE  H18R 9714   6.373   4.590   4.834 -0.1154 -1.4115  1.3789
   97SAPE  H18S 9715   6.231   4.681   4.786  1.8755  0.5824  3.0334
   97SAPE  C219 9716   6.277   4.526   4.634 -0.3751  0.8235 -0.0684
   97SAPE  H19R 9717   6.285   4.416   4.632 -2.9976  0.5716 -0.2174
   97SAPE  H19S 9718   6.375   4.559   4.595  0.6578  0.2632  1.9608
   97SAPE  C220 9719   6.152   4.564   4.553 -0.3786 -0.9413 -0.9710
   97SAPE  H20R 9720   6.163   4.661   4.500 -1.5312 -0.4617 -0.3663
   97SAPE  H20S 9721   6.056   4.558   4.609  0.0397 -2.1341 -0.3303
   97SAPE  H20T 9722   6.141   4.491   4.471  0.0965 -0.8344 -1.1335
   97SAPE   C33 9723   6.686   4.411   6.002 -0.7622 -0.0780 -0.6103
   97SAPE   H3X 9724   6.743   4.493   6.051 -1.7983  1.3010 -1.6207
   97SAPE   H3Y 9725   6.585   4.417   6.046 -0.1148 -1.1287  1.1222
   97SAPE   C34 9726   6.691   4.434   5.851  0.3489  0.4221 -0.1834
   97SAPE   H4X 9727   6.661   4.343   5.795 -0.2328 -0.2292  1.1392
   97SAPE   H4Y 9728   6.800   4.439   5.829  1.2077 -3.6287  2.0402
   97SAPE   C35 9729   6.591   4.542   5.815 -0.0849  0.0807 -0.0031
   97SAPE   H5X 9730   6.643   4.638   5.836  1.7299 -1.0763  1.0834
   97SAPE   H5Y 9731   6.494   4.544   5.870 -2.0394  2.4129 -3.1421
   97SAPE   C36 9732   6.556   4.543   5.664 -0.0558 -0.4510 -0.9054
   97SAPE   H6X 9733   6.648   4.530   5.603 -0.0868 -0.3841 -0.9661
   97SAPE   H6Y 9734   6.509   4.642   5.651 -0.3458 -0.3773  0.4813
   97SAPE   C37 9735   6.445   4.445   5.633 -0.1584 -0.1386  0.4285
   97SAPE   H7X 9736   6.352   4.498   5.662 -0.2968 -1.3242  2.3037
   97SAPE   H7Y 9737   6.454   4.364   5.708 -0.3293 -1.0032 -0.4576
   97SAPE   C38 9738   6.446   4.382   5.497 -0.1079  0.0558  0.0617
   97SAPE   H8X 9739   6.543   4.328   5.489 -0.6990 -1.2885  1.4210
   97SAPE   H8Y 9740   6.459   4.450   5.410  2.6002 -2.5209 -1.7567
   97SAPE   C39 9741   6.329   4.281   5.472  0.3753  0.1678  0.3048
   97SAPE   H9X 9742   6.237   4.341   5.458  1.5383  1.5320 -2.3469
   97SAPE   H9Y 9743   6.326   4.202   5.550 -0.8662  0.1675  0.2763
   97SAPE  C310 9744   6.338   4.207   5.344 -0.0763 -0.5467 -0.2187
   97SAPE  H10X 9745   6.416   4.130   5.358 -0.1461 -0.4003  1.0108
   97SAPE  H10Y 9746   6.361   4.267   5.254  1.9070  0.3148  0.8202
   97SAPE  C311 9747   6.211   4.130   5.317 -0.3148 -0.1897 -0.5358
   97SAPE  H11X 9748   6.130   4.204   5.299  0.4691  0.5340 -1.2137
   97SAPE  H11Y 9749   6.189   4.076   5.412 -3.1374  1.4080 -0.1716
   97SAPE  C312 9750   6.216   4.027   5.208  0.1471  0.7484 -0.0940
   97SAPE  H12X 9751   6.226   3.923   5.247  1.2099  0.2811 -1.5153
   97SAPE  H12Y 9752   6.309   4.034   5.148  0.5281 -0.3216  0.3392
   97SAPE  C313 9753   6.099   4.021   5.104 -0.8568 -0.0294 -0.1358
   97SAPE  H13X 9754   6.080   4.130   5.088 -0.4178 -0.1554 -1.6912
   97SAPE  H13Y 9755   6.006   3.987   5.154  0.6549 -1.8250  1.6104
   97SAPE  C314 9756   6.134   3.968   4.965 -0.0114  0.5672 -0.6449
   97SAPE  H14X 9757   6.141   3.858   4.977  1.2975  0.5294 -1.5012
   97SAPE  H14Y 9758   6.222   4.013   4.913 -0.7467  0.2201 -2.2479
   97SAPE  C315 9759   6.012   3.968   4.870 -0.6071 -0.5330 -0.0736
   97SAPE  H15X 9760   5.918   3.931   4.917 -2.0023  0.4406 -1.9766
   97SAPE  H15Y 9761   6.020   3.898   4.784 -1.6092 -0.2317 -0.4253
   97SAPE  C316 9762   5.980   4.112   4.821 -0.9066 -0.0328  0.3736
   97SAPE  H16X 9763   6.074   4.170   4.814 -1.2564  0.5472  0.4636
   97SAPE  H16Y 9764   5.908   4.158   4.893  0.4677  1.1486  1.0305
   97SAPE  C317 9765   5.911   4.123   4.681  0.4510 -0.2692  0.2907
   97SAPE  H17X 9766   5.817   4.064   4.676  0.7042 -0.7887  1.4194
   97SAPE  H17Y 9767   5.977   4.070   4.609 -0.4401  1.6852 -2.0943
   97SAPE  C318 9768   5.883   4.267   4.639 -0.5421  0.0851 -0.0222
   97SAPE  H18X 9769   5.821   4.325   4.711  0.3382  1.3090 -0.2168
   97SAPE  H18Y 9770   5.854   4.281   4.533  0.7900 -1.4399 -0.6366
   97SAPE  H18Z 9771   5.980   4.319   4.654 -1.6437  3.0359 -2.1698
   98SAPE     N 9772   4.365   3.492   6.879 -0.0056  0.5370 -0.2981
   98SAPE   HN1 9773   4.408   3.574   6.926 -0.6527  0.8977 -0.3248
   98SAPE   HN2 9774   4.284   3.456   6.932  2.0385 -0.5945  2.2517
   98SAPE   HN3 9775   4.438   3.417   6.882  1.6640  2.0273 -1.2301
   98SAPE   C12 9776   4.334   3.534   6.742 -0.3647 -0.1466  0.2361
   98SAPE  H12A 9777   4.276   3.450   6.698 -3.1206  0.5719  2.2201
   98SAPE  H12B 9778   4.424   3.551   6.679 -0.7634 -1.2548 -0.6694
   98SAPE   C11 9779   4.245   3.659   6.746 -0.1836  0.6109  0.7049
   98SAPE  H11A 9780   4.223   3.702   6.645 -2.4496 -0.1795  0.8190
   98SAPE  H11B 9781   4.305   3.732   6.804 -1.0183  1.4927  0.4975
   98SAPE     P 9782   4.014   3.730   6.827  0.1857 -0.4243 -0.1776
   98SAPE   O13 9783   3.897   3.655   6.865 -0.0889  0.0180 -0.3746
   98SAPE   O14 9784   4.059   3.826   6.928  0.4171 -0.5908 -0.1614
   98SAPE   O12 9785   4.125   3.624   6.809 -0.2324  0.0571 -0.7995
   98SAPE   O11 9786   4.000   3.796   6.684  0.4609  0.0412 -0.2334
   98SAPE    C1 9787   3.955   3.717   6.576 -0.0504  0.0064  0.0187
   98SAPE    HA 9788   4.036   3.651   6.537 -0.0470  0.9104 -1.5987
   98SAPE    HB 9789   3.873   3.645   6.599 -1.0284  1.1510  0.2137
   98SAPE    C2 9790   3.903   3.795   6.457  0.7450 -0.0546 -1.0508
   98SAPE    HS 9791   3.865   3.720   6.384 -1.4166  1.3890 -1.5064
   98SAPE   O21 9792   4.008   3.879   6.406 -0.2920 -0.3384  0.4506
   98SAPE   C21 9793   4.083   3.812   6.311  0.2242 -0.0243 -0.2459
   98SAPE   O22 9794   4.068   3.697   6.280  0.0692 -0.4573  0.2781
   98SAPE   C22 9795   4.170   3.920   6.243 -0.1164 -1.5557 -0.5532
   98SAPE   H2R 9796   4.242   3.951   6.321 -0.9892  2.8856 -1.2416
   98SAPE   H2S 9797   4.222   3.879   6.154  3.1545  1.7558 -0.3778
   98SAPE    C3 9798   3.784   3.883   6.505  0.7485 -0.6036 -1.1244
   98SAPE    HX 9799   3.817   3.952   6.585 -0.5108 -1.6340  0.3536
   98SAPE    HY 9800   3.716   3.804   6.543  1.4454 -0.6833 -0.0090
   98SAPE   O31 9801   3.716   3.951   6.393 -0.4834  0.2049 -0.0169
   98SAPE   C31 9802   3.751   4.083   6.374  0.4687 -0.2510 -0.2555
   98SAPE   O32 9803   3.831   4.141   6.442  0.1014 -0.3352  0.0723
   98SAPE   C32 9804   3.677   4.141   6.254 -0.8101  0.1902 -0.1112
   98SAPE   H2X 9805   3.567   4.126   6.258 -1.0905  2.0384 -0.3089
   98SAPE   H2Y 9806   3.718   4.106   6.157  1.4814  1.1029  0.4611
   98SAPE   C23 9807   4.079   4.037   6.197 -0.2469 -0.5336  0.4676
   98SAPE   H3R 9808   4.021   4.081   6.281 -3.5892  0.4026 -2.0815
   98SAPE   H3S 9809   4.009   3.992   6.123 -0.5243  0.4242  0.1232
   98SAPE   C24 9810   4.140   4.160   6.119 -0.0021  0.2046  0.1417
   98SAPE   H4R 9811   4.207   4.123   6.038 -1.3161  1.0479 -1.3993
   98SAPE   H4S 9812   4.205   4.214   6.191  1.0528 -1.0636  0.1875
   98SAPE   C25 9813   4.038   4.254   6.073  0.4054  0.1818 -0.0120
   98SAPE   H5R 9814   3.977   4.314   6.143 -1.3522 -1.5721  0.0646
   98SAPE   C26 9815   4.010   4.278   5.946 -0.1447  0.2650  0.5342
   98SAPE   H6R 9816   3.933   4.350   5.917 -1.9045 -1.7845 -0.1208
   98SAPE   C27 9817   4.077   4.217   5.824  0.4750 -0.1835  0.7465
   98SAPE   H7R 9818   4.186   4.217   5.842  0.7846  0.3115 -1.0094
   98SAPE   H7S 9819   4.063   4.273   5.729 -1.9986 -0.2483  0.9913
   98SAPE   C28 9820   4.016   4.079   5.799  0.9711 -0.0747 -0.3526
   98SAPE   H8R 9821   4.026   4.021   5.892 -1.0454  2.2134  1.4098
   98SAPE   C29 9822   3.993   4.019   5.680  0.0210  0.2196 -0.0075
   98SAPE   H9R 9823   3.959   3.915   5.688 -0.3058  0.4188  1.7200
   98SAPE  C210 9824   3.978   4.086   5.545 -0.3176  0.2928 -0.1481
   98SAPE  H10R 9825   3.987   4.195   5.560  0.8083  0.0047  1.6016
   98SAPE  H10S 9826   3.874   4.069   5.509 -0.3884  0.9381 -0.2546
   98SAPE  C211 9827   4.076   4.032   5.443  0.4995 -0.1281 -0.4097
   98SAPE  H11R 9828   4.184   4.043   5.460 -0.0575  1.4318  3.0421
   98SAPE  C212 9829   4.042   3.986   5.324  0.7027 -0.8017 -0.5840
   98SAPE  H12R 9830   4.122   3.955   5.255 -0.8966 -1.9930 -1.9709
   98SAPE  C213 9831   3.904   3.965   5.274  0.1239 -0.7541  0.1235
   98SAPE  H13R 9832   3.905   3.996   5.167  2.5444  1.5272  0.6967
   98SAPE  H13S 9833   3.824   4.028   5.317  0.9063 -1.0668  2.1098
   98SAPE  C214 9834   3.870   3.825   5.299 -0.1986  0.1423  0.2934
   98SAPE  H14R 9835   3.893   3.781   5.397 -1.1835  0.6944  0.7945
   98SAPE  C215 9836   3.809   3.747   5.204 -0.6725  0.0743 -0.1305
   98SAPE  H15R 9837   3.800   3.640   5.226 -0.0826 -0.1798 -1.0541
   98SAPE  C216 9838   3.772   3.786   5.065 -0.4956 -0.1404 -0.0246
   98SAPE  H16R 9839   3.817   3.710   4.998  1.3649  0.4863  0.4377
   98SAPE  H16S 9840   3.819   3.880   5.028  1.4604 -0.8769  0.4561
   98SAPE  C217 9841   3.622   3.793   5.051  0.0531  0.4843 -0.2993
   98SAPE  H17R 9842   3.580   3.883   5.102  2.3035  1.7281 -0.5130
   98SAPE  H17S 9843   3.593   3.698   5.099  1.4790  0.1934  0.0108
   98SAPE  C218 9844   3.583   3.794   4.899  0.5378 -0.4022  0.3789
   98SAPE  H18R 9845   3.663   3.739   4.844  0.1832 -0.7112  0.1748
   98SAPE  H18S 9846   3.606   3.897   4.865  1.9691  0.0285  2.4230
   98SAPE  C219 9847   3.449   3.724   4.859  0.1890  0.1693 -0.8655
   98SAPE  H19R 9848   3.364   3.775   4.908  0.4384  0.0711 -0.3233
   98SAPE  H19S 9849   3.459   3.624   4.906 -2.6031  0.8235  1.4229
   98SAPE  C220 9850   3.432   3.692   4.713 -0.0616  0.7620 -0.2371
   98SAPE  H20R 9851   3.343   3.631   4.687 -1.0427  1.6522  0.9148
   98SAPE  H20S 9852   3.521   3.640   4.672 -0.0390  0.9061 -0.3735
   98SAPE  H20T 9853   3.430   3.788   4.656  4.6725  2.7589  2.4270
   98SAPE   C33 9854   3.699   4.297   6.228  0.1551  0.0734 -0.3535
   98SAPE   H3X 9855   3.803   4.337   6.234 -0.2367  1.0666  0.1957
   98SAPE   H3Y 9856   3.638   4.330   6.315 -0.9263  1.7431 -1.6677
   98SAPE   C34 9857   3.642   4.358   6.104  0.0692  0.4644  0.2885
   98SAPE   H4X 9858   3.681   4.296   6.020 -2.5699 -2.8832  1.2713
   98SAPE   H4Y 9859   3.703   4.450   6.092  1.2005 -0.0119  1.9985
   98SAPE   C35 9860   3.494   4.366   6.085  0.3745  0.1068  0.4715
   98SAPE   H5X 9861   3.442   4.275   6.123 -2.6529  2.2410  1.7918
   98SAPE   H5Y 9862   3.467   4.355   5.978 -0.7951 -0.5645  0.8188
   98SAPE   C36 9863   3.438   4.501   6.140  0.6024  0.1097 -0.1152
   98SAPE   H6X 9864   3.501   4.586   6.106  0.2801 -0.3578 -1.9792
   98SAPE   H6Y 9865   3.453   4.490   6.250 -0.4054  3.2415  0.4492
   98SAPE   C37 9866   3.285   4.524   6.104 -0.3998  0.6177  0.5685
   98SAPE   H7X 9867   3.233   4.543   6.200  2.1850 -1.6193  2.5920
   98SAPE   H7Y 9868   3.245   4.428   6.065 -0.8957  1.2358 -0.4944
   98SAPE   C38 9869   3.253   4.629   5.994 -0.1941  0.2431 -0.3172
   98SAPE   H8X 9870   3.297   4.729   6.017 -0.3404  0.5725 -1.4072
   98SAPE   H8Y 9871   3.144   4.649   5.990 -0.2167  0.1710 -0.0486
   98SAPE   C39 9872   3.299   4.609   5.849  0.3239  0.4979 -0.0437
   98SAPE   H9X 9873   3.408   4.588   5.847  0.5330  1.2470  1.8413
   98SAPE   H9Y 9874   3.273   4.707   5.804 -0.3374  0.7228  0.8066
   98SAPE  C310 9875   3.207   4.509   5.780 -0.7967  0.3053  0.5667
   98SAPE  H10X 9876   3.106   4.556   5.784 -0.7570  0.5452 -0.7423
   98SAPE  H10Y 9877   3.216   4.409   5.827 -0.1728 -0.9609 -2.0433
   98SAPE  C311 9878   3.232   4.491   5.630 -0.4576 -0.0576 -0.2805
   98SAPE  H11X 9879   3.149   4.428   5.591 -1.4893  0.9868  0.1601
   98SAPE  H11Y 9880   3.334   4.450   5.612 -0.5025 -1.1203  1.5934
   98SAPE  C312 9881   3.217   4.615   5.543 -0.4411 -0.0306  0.2497
   98SAPE  H12X 9882   3.308   4.677   5.560 -2.3575  2.2334  3.1724
   98SAPE  H12Y 9883   3.127   4.675   5.567 -0.7151  0.1292 -1.0811
   98SAPE  C313 9884   3.221   4.574   5.391 -0.8123  0.0373  0.3132
   98SAPE  H13X 9885   3.197   4.671   5.342 -1.8250  1.6198  3.6518
   98SAPE  H13Y 9886   3.145   4.496   5.369  0.2163 -1.1437  0.8303
   98SAPE  C314 9887   3.361   4.524   5.350 -0.1129  0.3421  0.2064
   98SAPE  H14X 9888   3.382   4.430   5.405 -1.7338  1.1587  2.3491
   98SAPE  H14Y 9889   3.434   4.593   5.399  0.8386  2.0447 -3.2526
   98SAPE  C315 9890   3.392   4.522   5.195  0.3025 -0.3745  0.1043
   98SAPE  H15X 9891   3.314   4.460   5.147  1.7439 -1.7843 -0.5225
   98SAPE  H15Y 9892   3.488   4.468   5.178  1.4507  0.8008  2.2673
   98SAPE  C316 9893   3.395   4.665   5.135 -0.5971  0.3990 -0.2004
   98SAPE  H16X 9894   3.422   4.742   5.210  0.4125 -0.0641 -0.0697
   98SAPE  H16Y 9895   3.295   4.685   5.092 -0.4173  0.4235 -0.6144
   98SAPE  C317 9896   3.496   4.676   5.015  0.5757  0.2671 -0.2495
   98SAPE  H17X 9897   3.599   4.649   5.047  0.8499 -1.7108 -2.5487
   98SAPE  H17Y 9898   3.496   4.783   4.986 -0.0696  0.0250 -1.1828
   98SAPE  C318 9899   3.469   4.587   4.894 -0.1854 -0.4237  0.2495
   98SAPE  H18X 9900   3.481   4.478   4.913  0.8141 -0.4846 -0.6391
   98SAPE  H18Y 9901   3.524   4.613   4.801 -0.3519  0.4010  0.3781
   98SAPE  H18Z 9902   3.360   4.591   4.874 -0.3361 -2.2265  0.5324
   99SAPE     N 9903   5.779   1.799   6.968 -0.0045  0.3424  0.2677
   99SAPE   HN1 9904   5.738   1.818   7.062 -1.9807  2.5095 -0.9208
   99SAPE   HN2 9905   5.855   1.864   6.939  2.0922 -2.4949 -1.1055
   99SAPE   HN3 9906   5.694   1.817   6.911 -1.0514  0.9424  1.9683
   99SAPE   C12 9907   5.839   1.655   6.976  0.6721 -0.4627 -0.1085
   99SAPE  H12A 9908   5.758   1.586   7.010  0.9710 -0.5387  0.4549
   99SAPE  H12B 9909   5.924   1.662   7.046  0.1275  2.8739  0.3772
   99SAPE   C11 9910   5.887   1.615   6.832  0.6227  0.0554 -0.4546
   99SAPE  H11A 9911   5.919   1.509   6.840 -0.7748 -0.3518  0.0842
   99SAPE  H11B 9912   5.964   1.689   6.804  1.3643 -0.9423 -1.1064
   99SAPE     P 9913   5.788   1.632   6.591  0.0328  0.0734  0.2597
   99SAPE   O13 9914   5.712   1.530   6.522 -0.0970  0.3080 -0.3471
   99SAPE   O14 9915   5.762   1.767   6.554 -0.3250 -0.2813  0.6543
   99SAPE   O12 9916   5.772   1.614   6.748  0.1686 -0.0972  0.5226
   99SAPE   O11 9917   5.943   1.600   6.566 -0.6839 -0.2930  0.4828
   99SAPE    C1 9918   5.995   1.468   6.558  0.0692  0.1227 -0.4668
   99SAPE    HA 9919   6.059   1.444   6.646 -0.1209 -1.6741 -0.7724
   99SAPE    HB 9920   5.913   1.392   6.568 -0.4536  0.6826 -0.4255
   99SAPE    C2 9921   6.085   1.438   6.432 -0.3743  0.8037  0.7614
   99SAPE    HS 9922   6.183   1.490   6.441 -0.3981  1.1781 -0.8075
   99SAPE   O21 9923   6.013   1.471   6.312 -0.1944  0.0540  0.2641
   99SAPE   C21 9924   6.043   1.592   6.270 -0.0596  0.2603  0.1570
   99SAPE   O22 9925   6.133   1.666   6.305  0.0340 -0.6125 -0.2299
   99SAPE   C22 9926   5.949   1.615   6.153  0.9074  0.4862 -0.3586
   99SAPE   H2R 9927   5.929   1.724   6.167 -1.2337 -0.0843  1.5398
   99SAPE   H2S 9928   6.004   1.591   6.059  1.6043  0.0000  0.1629
   99SAPE    C3 9929   6.129   1.286   6.423 -0.5055  0.2487  0.4040
   99SAPE    HX 9930   6.037   1.226   6.431  0.0126 -0.8414 -1.2128
   99SAPE    HY 9931   6.193   1.254   6.508  1.9036  0.9213 -1.0553
   99SAPE   O31 9932   6.192   1.249   6.296  0.0771 -0.1779 -0.1419
   99SAPE   C31 9933   6.316   1.269   6.280  0.7942  0.0813  0.3451
   99SAPE   O32 9934   6.387   1.317   6.361 -0.2095 -0.2449 -0.2354
   99SAPE   C32 9935   6.363   1.233   6.145 -0.0321  0.1393  0.4026
   99SAPE   H2X 9936   6.316   1.138   6.111 -0.8204 -0.6422  3.3405
   99SAPE   H2Y 9937   6.473   1.221   6.152  0.1319  2.1475  2.1963
   99SAPE   C23 9938   5.816   1.530   6.154  0.4599  0.0482 -0.4660
   99SAPE   H3R 9939   5.755   1.544   6.246 -0.5278  0.1691 -1.1170
   99SAPE   H3S 9940   5.842   1.422   6.153  1.4454  0.2485 -2.9810
   99SAPE   C24 9941   5.724   1.563   6.034  0.2882  0.0473  0.5470
   99SAPE   H4R 9942   5.791   1.585   5.948  1.5325 -0.0597  1.4602
   99SAPE   H4S 9943   5.697   1.668   6.061 -0.5297 -0.1223  0.4211
   99SAPE   C25 9944   5.613   1.466   6.020  0.1996 -0.3032  0.4507
   99SAPE   H5R 9945   5.567   1.430   6.113 -0.4324 -1.2991 -0.2173
   99SAPE   C26 9946   5.575   1.416   5.898  0.6248 -0.0598 -0.3761
   99SAPE   H6R 9947   5.488   1.351   5.886 -0.6148  1.3953  0.3579
   99SAPE   C27 9948   5.631   1.445   5.763 -0.0602  0.3047 -0.3768
   99SAPE   H7R 9949   5.661   1.348   5.718  1.3765  0.5862 -0.0921
   99SAPE   H7S 9950   5.725   1.505   5.761  0.5778 -0.6418 -2.2497
   99SAPE   C28 9951   5.524   1.522   5.680 -0.6230  0.5498 -0.3450
   99SAPE   H8R 9952   5.492   1.618   5.724  0.3604  2.0629 -2.6819
   99SAPE   C29 9953   5.483   1.490   5.554 -0.6608  0.1071 -0.0041
   99SAPE   H9R 9954   5.406   1.548   5.502  0.6303  1.5687 -0.3840
   99SAPE  C210 9955   5.535   1.368   5.482  0.2423  0.2272 -0.2707
   99SAPE  H10R 9956   5.446   1.326   5.429  0.8113 -1.3180 -0.0626
   99SAPE  H10S 9957   5.550   1.280   5.548 -1.8821 -0.6906 -0.8997
   99SAPE  C211 9958   5.646   1.389   5.384  0.3793 -0.1513 -0.1997
   99SAPE  H11R 9959   5.718   1.468   5.411 -1.9720  2.4223 -0.9872
   99SAPE  C212 9960   5.658   1.325   5.267 -0.6825 -0.0542 -0.4750
   99SAPE  H12R 9961   5.753   1.337   5.213  0.3342  0.5367  1.3669
   99SAPE  C213 9962   5.575   1.213   5.218 -0.1389  0.5683  0.8199
   99SAPE  H13R 9963   5.479   1.203   5.273 -0.0262 -0.1204  0.9046
   99SAPE  H13S 9964   5.633   1.118   5.219 -0.6090  0.1846 -1.4620
   99SAPE  C214 9965   5.532   1.231   5.071 -0.2897 -0.3474 -0.5116
   99SAPE  H14R 9966   5.548   1.332   5.029  2.0708 -0.3447  0.2551
   99SAPE  C215 9967   5.468   1.142   4.994 -0.7394  0.5951  0.4662
   99SAPE  H15R 9968   5.436   1.177   4.895 -0.8572 -0.0231  0.2823
   99SAPE  C216 9969   5.424   0.999   5.023 -0.0126 -0.0782 -0.0871
   99SAPE  H16R 9970   5.498   0.943   5.085  0.0614 -0.4035 -0.4650
   99SAPE  H16S 9971   5.427   0.949   4.923  1.1477 -1.5050  0.6188
   99SAPE  C217 9972   5.284   0.995   5.075  0.0474  0.6132  0.3680
   99SAPE  H17R 9973   5.213   0.968   4.993 -0.2398  0.4199  0.6787
   99SAPE  H17S 9974   5.252   1.093   5.115 -0.2234  1.4551 -1.7784
   99SAPE  C218 9975   5.274   0.886   5.184 -0.2550  0.0957  0.4868
   99SAPE  H18R 9976   5.315   0.791   5.146 -0.9573  0.6493 -1.8223
   99SAPE  H18S 9977   5.165   0.865   5.199 -0.7364  0.7283 -1.7341
   99SAPE  C219 9978   5.344   0.926   5.320 -0.3724  0.0010 -0.3179
   99SAPE  H19R 9979   5.447   0.966   5.311 -0.8315  1.0113 -1.1962
   99SAPE  H19S 9980   5.352   0.831   5.379  0.9046 -0.4047 -1.1060
   99SAPE  C220 9981   5.256   1.027   5.386 -0.1256 -0.2489 -0.5199
   99SAPE  H20R 9982   5.155   0.985   5.409 -0.2907  0.2856 -0.2548
   99SAPE  H20S 9983   5.237   1.118   5.326  2.1942  1.2251  0.8234
   99SAPE  H20T 9984   5.311   1.071   5.471 -0.7383  2.0078 -1.2309
   99SAPE   C33 9985   6.334   1.341   6.035  0.2729  0.0821  0.5911
   99SAPE   H3X 9986   6.380   1.438   6.062 -0.4263  0.3043  0.9985
   99SAPE   H3Y 9987   6.223   1.347   6.025  0.1814  2.0914  2.2721
   99SAPE   C34 9988   6.400   1.296   5.904 -0.2724 -0.5203 -0.6018
   99SAPE   H4X 9989   6.355   1.204   5.860 -0.3366 -0.3388 -0.9176
   99SAPE   H4Y 9990   6.507   1.278   5.930 -0.5763  0.1173  1.1976
   99SAPE   C35 9991   6.386   1.408   5.794 -0.2541 -0.2315  0.8253
   99SAPE   H5X 9992   6.416   1.501   5.847 -1.1984  0.6328 -0.1280
   99SAPE   H5Y 9993   6.281   1.416   5.762 -0.0471  0.1613  0.2281
   99SAPE   C36 9994   6.484   1.400   5.675  0.3152 -0.2458  0.3885
   99SAPE   H6X 9995   6.558   1.318   5.683  0.5353 -0.3927 -2.2847
   99SAPE   H6Y 9996   6.528   1.501   5.660 -0.9291  0.2340 -0.2083
   99SAPE   C37 9997   6.422   1.361   5.539 -0.4077  0.5811  0.2595
   99SAPE   H7X 9998   6.324   1.413   5.526  0.0660  1.3092 -0.4440
   99SAPE   H7Y 9999   6.406   1.251   5.546  0.5943  0.3235 -1.1422
   99SAPE   C3810000   6.507   1.412   5.418  0.1040  0.3575 -0.5419
   99SAPE   H8X10001   6.593   1.342   5.421 -0.4966 -0.4101 -0.9627
   99SAPE   H8Y10002   6.535   1.518   5.439  1.2047  0.1793 -1.0554
   99SAPE   C3910003   6.429   1.412   5.281 -0.2195 -0.0196 -0.5537
   99SAPE   H9X10004   6.363   1.501   5.283  0.2230  0.3676 -2.1038
   99SAPE   H9Y10005   6.384   1.310   5.270  0.5489 -0.6463  1.6179
   99SAPE  C31010006   6.526   1.423   5.170  0.4076  0.3577 -0.2685
   99SAPE  H10X10007   6.587   1.330   5.165  0.7612  0.6557 -2.0074
   99SAPE  H10Y10008   6.597   1.508   5.185  2.7858 -1.1242 -2.2945
   99SAPE  C31110009   6.464   1.441   5.029 -0.5520  1.2126 -0.2191
   99SAPE  H11X10010   6.533   1.477   4.949 -1.5989 -0.3825 -1.9029
   99SAPE  H11Y10011   6.381   1.514   5.036 -1.5116  0.1633 -0.4778
   99SAPE  C31210012   6.399   1.306   4.981  0.5856  0.3923  0.1290
   99SAPE  H12X10013   6.335   1.257   5.057  1.1141  0.7446  0.8122
   99SAPE  H12Y10014   6.473   1.229   4.949  1.5120  0.4308  2.0534
   99SAPE  C31310015   6.329   1.331   4.848  0.1574 -0.5475 -0.9722
   99SAPE  H13X10016   6.259   1.416   4.862 -0.3548 -0.9630 -0.9828
   99SAPE  H13Y10017   6.279   1.239   4.813  0.0812 -0.5866 -0.7604
   99SAPE  C31410018   6.424   1.375   4.732 -0.1197 -0.3078  0.3253
   99SAPE  H14X10019   6.472   1.475   4.744  0.5555 -0.6898  0.8701
   99SAPE  H14Y10020   6.368   1.399   4.640  1.3923  0.9428 -0.3182
   99SAPE  C31510021   6.535   1.274   4.693  0.5849 -0.1923  0.4817
   99SAPE  H15X10022   6.496   1.170   4.691 -1.6701  0.5462  2.1251
   99SAPE  H15Y10023   6.625   1.276   4.758  1.1796  1.1994 -0.3436
   99SAPE  C31610024   6.578   1.292   4.544  0.1808  0.2215 -0.2395
   99SAPE  H16X10025   6.685   1.265   4.536  0.0989  0.0702 -0.8525
   99SAPE  H16Y10026   6.573   1.399   4.515  1.9963 -0.4721 -3.6307
   99SAPE  C31710027   6.502   1.209   4.439  0.3748 -0.1644  0.0016
   99SAPE  H17X10028   6.535   1.250   4.342  1.3124  2.4126  1.3212
   99SAPE  H17Y10029   6.391   1.222   4.445  0.4781  0.2440  1.4936
   99SAPE  C31810030   6.536   1.059   4.448 -0.0429 -0.2251  0.0304
   99SAPE  H18X10031   6.635   1.040   4.402 -1.1925 -2.7347 -1.6095
   99SAPE  H18Y10032   6.456   1.011   4.387 -0.5609  2.3809 -1.5180
   99SAPE  H18Z10033   6.535   1.026   4.554 -1.1274  1.7965  0.7074
  100SAPE     N10034   0.811   2.519   7.088  0.0629 -0.4025  0.4020
  100SAPE   HN110035   0.734   2.586   7.110 -0.0419 -0.3843 -0.0132
  100SAPE   HN210036   0.820   2.504   6.985  1.2976  0.8607  0.2987
  100SAPE   HN310037   0.782   2.432   7.137  2.0379 -0.1593  2.1151
  100SAPE   C1210038   0.939   2.584   7.140 -0.2471 -0.1012  0.0104
  100SAPE  H12A10039   1.022   2.558   7.072  0.3234  3.2969 -0.8028
  100SAPE  H12B10040   0.971   2.541   7.237  0.7268  1.2214  0.3000
  100SAPE   C1110041   0.933   2.738   7.131 -0.0732 -0.9603  0.6026
  100SAPE  H11A10042   1.020   2.779   7.186 -0.6893 -0.8708  1.5424
  100SAPE  H11B10043   0.851   2.776   7.196 -0.7722  1.1599 -1.3513
  100SAPE     P10044   1.041   2.849   6.921  0.3062 -0.2598  0.4086
  100SAPE   O1310045   1.034   2.999   6.924  0.5230  0.4112  0.5794
  100SAPE   O1410046   1.163   2.776   6.957 -0.9821 -0.0241 -0.4557
  100SAPE   O1210047   0.921   2.794   6.997 -0.5452  0.6384  0.1679
  100SAPE   O1110048   0.999   2.806   6.775  0.1486 -0.6617 -0.3998
  100SAPE    C110049   0.889   2.880   6.715 -0.5819 -0.1831 -0.7964
  100SAPE    HA10050   0.827   2.931   6.792 -0.0461 -1.1549  0.3017
  100SAPE    HB10051   0.935   2.953   6.645  2.3564 -2.5096 -1.5113
  100SAPE    C210052   0.803   2.782   6.632 -0.8923  0.2103  0.2398
  100SAPE    HS10053   0.791   2.695   6.701 -0.3827 -0.0316  0.0293
  100SAPE   O2110054   0.865   2.764   6.504 -0.5789 -0.5701  0.6907
  100SAPE   C2110055   0.929   2.649   6.493 -0.0806 -0.2968 -0.1698
  100SAPE   O2210056   0.923   2.560   6.575  0.2905 -0.2306  0.3533
  100SAPE   C2210057   1.005   2.646   6.358  0.2318  0.0261  0.7570
  100SAPE   H2R10058   0.939   2.694   6.283  2.2116  0.2282 -0.9334
  100SAPE   H2S10059   1.099   2.704   6.376 -0.4802  1.1694  0.9069
  100SAPE    C310060   0.652   2.837   6.614 -0.1089  0.4675  0.1774
  100SAPE    HX10061   0.656   2.943   6.581 -0.6356  0.3383 -0.3147
  100SAPE    HY10062   0.614   2.838   6.718  0.0671  1.2690  0.2444
  100SAPE   O3110063   0.574   2.757   6.517  0.2206 -0.0024 -0.5366
  100SAPE   C3110064   0.557   2.625   6.547 -0.3665 -0.6733 -0.0224
  100SAPE   O3210065   0.594   2.574   6.649  0.0383  0.4285 -0.3793
  100SAPE   C3210066   0.488   2.564   6.426  0.8814  0.3155 -0.0149
  100SAPE   H2X10067   0.541   2.597   6.334 -0.3650 -0.3373 -0.9996
  100SAPE   H2Y10068   0.383   2.600   6.429 -0.0730 -1.9331 -2.1814
  100SAPE   C2310069   1.041   2.499   6.314 -0.3932  0.8238  0.0820
  100SAPE   H3R10070   0.968   2.424   6.350 -1.2748  1.1687 -0.9327
  100SAPE   H3S10071   1.137   2.475   6.366 -1.6707 -0.6587  1.9047
  100SAPE   C2410072   1.089   2.491   6.164 -0.7729  0.4329  1.0102
  100SAPE   H4R10073   1.138   2.391   6.154  0.2316  0.6575  3.0415
  100SAPE   H4S10074   1.167   2.568   6.149 -0.6590  0.0690 -0.4503
  100SAPE   C2510075   0.972   2.506   6.067 -0.2335 -0.1109 -0.1625
  100SAPE   H5R10076   0.875   2.529   6.113 -0.6388  2.5961 -2.1099
  100SAPE   C2610077   0.977   2.515   5.933 -0.5090 -0.1585  0.7867
  100SAPE   H6R10078   0.881   2.522   5.880 -0.8868  0.1663  1.5065
  100SAPE   C2710079   1.101   2.497   5.846  0.1585  0.5138  0.3825
  100SAPE   H7R10080   1.184   2.464   5.912  1.5257 -0.3240 -1.6484
  100SAPE   H7S10081   1.132   2.599   5.815 -0.3778  0.5107 -0.1919
  100SAPE   C2810082   1.092   2.409   5.726 -0.3919 -0.1650  0.0928
  100SAPE   H8R10083   1.017   2.330   5.741 -1.3074  0.7510  0.4711
  100SAPE   C2910084   1.155   2.412   5.610 -0.1719  0.5714 -0.1271
  100SAPE   H9R10085   1.133   2.331   5.539  1.7567 -0.0047 -0.1250
  100SAPE  C21010086   1.261   2.496   5.550 -0.5460  0.2829 -0.1619
  100SAPE  H10R10087   1.344   2.430   5.518 -0.3201  0.0190  0.9156
  100SAPE  H10S10088   1.316   2.560   5.622 -0.9618  0.4503  0.0125
  100SAPE  C21110089   1.220   2.571   5.429  0.1252  0.4003  0.4257
  100SAPE  H11R10090   1.116   2.608   5.430  0.5861  1.7514  0.3308
  100SAPE  C21210091   1.302   2.597   5.324  0.5548  0.2690 -0.1723
  100SAPE  H12R10092   1.260   2.644   5.234 -1.0640  0.2119  0.5348
  100SAPE  C21310093   1.442   2.544   5.302  0.9708 -0.4619 -0.6024
  100SAPE  H13R10094   1.440   2.438   5.268  0.8027 -0.3002 -1.1086
  100SAPE  H13S10095   1.499   2.543   5.397 -0.3065  1.9232  0.2898
  100SAPE  C21410096   1.535   2.616   5.203  0.1838 -0.8175  0.4457
  100SAPE  H14R10097   1.603   2.691   5.245 -0.5680  0.2788 -0.2235
  100SAPE  C21510098   1.556   2.595   5.071 -0.1623  0.3464 -0.3499
  100SAPE  H15R10099   1.627   2.664   5.024 -1.0011  0.9211 -0.8075
  100SAPE  C21610100   1.482   2.504   4.975  0.6192 -0.0307 -0.3266
  100SAPE  H16R10101   1.401   2.564   4.928  0.8091 -0.7146 -1.5785
  100SAPE  H16S10102   1.431   2.414   5.017 -0.0021 -0.0630 -1.1345
  100SAPE  C21710103   1.556   2.446   4.855  1.2360  0.4405 -0.1985
  100SAPE  H17R10104   1.507   2.363   4.801 -0.0350 -0.7052  2.5297
  100SAPE  H17S10105   1.641   2.396   4.905  1.1996  1.5976  1.0869
  100SAPE  C21810106   1.605   2.561   4.754  1.0091 -0.7171 -0.3023
  100SAPE  H18R10107   1.693   2.611   4.799  0.3719 -1.2004  1.5967
  100SAPE  H18S10108   1.521   2.634   4.747  0.1822 -1.5088  0.8209
  100SAPE  C21910109   1.643   2.522   4.611  0.3083 -0.5121  0.1269
  100SAPE  H19R10110   1.572   2.448   4.569 -2.1222  0.9115  1.4730
  100SAPE  H19S10111   1.738   2.468   4.627  1.0026  0.6187 -0.0483
  100SAPE  C22010112   1.658   2.649   4.515  0.1987 -0.0063  0.2578
  100SAPE  H20R10113   1.560   2.698   4.503  0.3819  0.5223  0.8530
  100SAPE  H20S10114   1.695   2.627   4.412 -2.0701  0.6719 -0.7464
  100SAPE  H20T10115   1.723   2.725   4.564  2.7337  0.6290 -3.6409
  100SAPE   C3310116   0.494   2.407   6.428  0.1494 -1.0591 -0.5112
  100SAPE   H3X10117   0.397   2.369   6.391  0.3601 -3.0890  0.8810
  100SAPE   H3Y10118   0.501   2.383   6.536  0.4463  0.6645 -0.1131
  100SAPE   C3410119   0.609   2.350   6.345  0.7388 -0.0827  0.2948
  100SAPE   H4X10120   0.610   2.241   6.367  0.1908 -0.8683 -3.0552
  100SAPE   H4Y10121   0.712   2.387   6.363  0.6485  0.6128 -0.5463
  100SAPE   C3510122   0.589   2.362   6.190  0.2911  0.7458 -0.0153
  100SAPE   H5X10123   0.608   2.466   6.156  0.6807  0.9879  0.9402
  100SAPE   H5Y10124   0.482   2.348   6.162  0.4163  1.5324 -0.9581
  100SAPE   C3610125   0.667   2.262   6.109 -0.3707  0.2606  0.1518
  100SAPE   H6X10126   0.646   2.154   6.125 -0.1963 -0.1129 -1.8255
  100SAPE   H6Y10127   0.776   2.278   6.120 -0.4137  0.4227  0.3446
  100SAPE   C3710128   0.631   2.293   5.963  0.3792  0.6722 -0.0624
  100SAPE   H7X10129   0.683   2.388   5.939 -0.1464  0.8968 -0.3387
  100SAPE   H7Y10130   0.522   2.301   5.941  0.2353  1.8520  0.9295
  100SAPE   C3810131   0.699   2.186   5.867 -0.2259 -0.3359  0.0077
  100SAPE   H8X10132   0.642   2.091   5.870 -1.9161  0.5289 -2.4211
  100SAPE   H8Y10133   0.798   2.171   5.916  0.0121  0.0276 -0.3541
  100SAPE   C3910134   0.727   2.224   5.719  0.6223 -0.7960 -0.3780
  100SAPE   H9X10135   0.783   2.319   5.705  0.5240 -0.4303  1.4153
  100SAPE   H9Y10136   0.630   2.244   5.668 -0.4255  0.1324  1.8266
  100SAPE  C31010137   0.802   2.113   5.655  0.3729 -0.0641 -0.5590
  100SAPE  H10X10138   0.760   2.011   5.669  0.6370  0.0754  1.5638
  100SAPE  H10Y10139   0.896   2.094   5.711  0.5417  0.4633 -0.6661
  100SAPE  C31110140   0.833   2.120   5.508  0.5937 -0.2119 -0.4477
  100SAPE  H11X10141   0.855   2.227   5.489 -1.7889  0.4561  0.2735
  100SAPE  H11Y10142   0.745   2.089   5.447  1.0044 -0.8575 -0.7264
  100SAPE  C31210143   0.959   2.034   5.480  0.2369 -0.2501 -0.3311
  100SAPE  H12X10144   0.947   1.923   5.483 -0.1122 -0.1901  0.9260
  100SAPE  H12Y10145   1.040   2.064   5.550  0.4026  1.1286 -1.0779
  100SAPE  C31310146   1.014   2.071   5.334  0.3207 -0.3727 -0.7660
  100SAPE  H13X10147   1.120   2.040   5.345  0.3707 -0.6635 -1.9331
  100SAPE  H13Y10148   1.008   2.181   5.325 -0.0753 -0.4974 -2.2140
  100SAPE  C31410149   0.937   2.006   5.222  0.3182 -0.4574  0.1578
  100SAPE  H14X10150   0.832   2.037   5.206  0.9334  0.4023 -2.9467
  100SAPE  H14Y10151   0.930   1.899   5.252 -1.9609 -0.0182  1.4036
  100SAPE  C31510152   1.015   2.022   5.091 -0.2755  0.1182  0.3072
  100SAPE  H15X10153   1.119   1.983   5.100 -0.1356  0.5827  0.7608
  100SAPE  H15Y10154   1.025   2.131   5.072 -0.0920  0.3000  1.4202
  100SAPE  C31610155   0.949   1.944   4.970  0.0678 -0.0595 -0.2219
  100SAPE  H16X10156   0.841   1.965   4.959 -0.4023 -2.2883 -0.2689
  100SAPE  H16Y10157   0.955   1.841   5.012 -0.2395  1.4924  4.0858
  100SAPE  C31710158   1.011   1.962   4.834  0.0608  0.2949 -0.6062
  100SAPE  H17X10159   0.949   1.901   4.765  0.2633  1.2073 -1.6276
  100SAPE  H17Y10160   1.110   1.911   4.839  0.4411  1.0761  0.2539
  100SAPE  C31810161   1.024   2.107   4.784 -0.0109 -0.4838 -0.2571
  100SAPE  H18X10162   1.053   2.098   4.677  0.0479 -0.0972 -0.2744
  100SAPE  H18Y10163   1.104   2.165   4.835 -0.2910 -0.2887 -0.0342
  100SAPE  H18Z10164   0.925   2.156   4.789  0.9121  1.7702 -2.4108
  101SAPE     N10165   1.345   6.197   6.867 -0.2971  0.5787  0.1979
  101SAPE   HN110166   1.285   6.228   6.789  0.3241 -2.8547 -1.8508
  101SAPE   HN210167   1.295   6.203   6.958 -0.8193 -0.4401 -0.0067
  101SAPE   HN310168   1.437   6.245   6.868 -0.1369  0.2717  0.7530
  101SAPE   C1210169   1.358   6.055   6.824  0.0425 -0.0092  0.2893
  101SAPE  H12A10170   1.442   6.008   6.878  0.3229  1.1215  0.8561
  101SAPE  H12B10171   1.389   6.054   6.717  1.5507 -0.0685  0.7053
  101SAPE   C1110172   1.223   5.993   6.834  0.4643 -0.1722  0.5552
  101SAPE  H11A10173   1.203   5.974   6.941  0.4919 -2.0398  0.2752
  101SAPE  H11B10174   1.226   5.895   6.782  2.9001 -0.2860  0.7902
  101SAPE     P10175   0.980   6.037   6.740  0.2328 -0.4782  0.2196
  101SAPE   O1310176   0.966   5.896   6.706  0.1806  0.3149 -0.3475
  101SAPE   O1410177   0.896   6.088   6.853  0.1546 -0.1474 -0.0364
  101SAPE   O1210178   1.128   6.076   6.769 -0.4051  0.5403 -0.2661
  101SAPE   O1110179   0.945   6.115   6.612 -0.0669 -0.3774 -0.1331
  101SAPE    C110180   0.966   6.260   6.599 -0.1590  0.4861 -0.7593
  101SAPE    HA10181   1.032   6.299   6.679  0.1033  0.3747 -0.9195
  101SAPE    HB10182   1.020   6.269   6.502 -0.0752  3.7702 -0.5136
  101SAPE    C210183   0.840   6.346   6.585  0.1263 -0.1206 -0.3711
  101SAPE    HS10184   0.778   6.349   6.677 -2.6727  1.3177 -2.1829
  101SAPE   O2110185   0.762   6.299   6.473  0.0195 -0.2033 -0.2943
  101SAPE   C2110186   0.667   6.209   6.488  0.1967  0.1201 -0.5372
  101SAPE   O2210187   0.619   6.176   6.598  0.4545 -0.0881 -0.1508
  101SAPE   C2210188   0.612   6.155   6.355  0.3042 -0.3970 -0.2153
  101SAPE   H2R10189   0.637   6.220   6.268  0.9208  0.3284  0.4836
  101SAPE   H2S10190   0.674   6.069   6.322 -0.5199 -0.1942 -2.4237
  101SAPE    C310191   0.867   6.494   6.553  0.3980  0.2462 -0.1802
  101SAPE    HX10192   0.916   6.537   6.643 -0.0043 -0.2630  0.2866
  101SAPE    HY10193   0.769   6.546   6.549  2.1145  3.7584 -0.8733
  101SAPE   O3110194   0.941   6.509   6.431  0.3652  0.6933  0.4233
  101SAPE   C3110195   1.063   6.557   6.433  0.4121 -0.2189  0.2589
  101SAPE   O3210196   1.109   6.604   6.536 -0.1429  0.4753  0.0959
  101SAPE   C3210197   1.147   6.541   6.304  0.4303 -0.4678 -0.5529
  101SAPE   H2X10198   1.249   6.524   6.344  0.5974  2.4265  0.5288
  101SAPE   H2Y10199   1.160   6.634   6.245  1.9915 -0.3390 -0.0559
  101SAPE   C2310200   0.465   6.106   6.369  0.0606  0.7575 -0.2530
  101SAPE   H3R10201   0.413   6.204   6.381 -0.2105  0.5262  0.5014
  101SAPE   H3S10202   0.461   6.048   6.463  1.7889 -0.0104 -0.6275
  101SAPE   C2410203   0.419   6.001   6.260 -0.6107 -0.1198 -0.4870
  101SAPE   H4R10204   0.441   6.051   6.163 -0.9278 -0.3326 -0.6689
  101SAPE   H4S10205   0.308   5.997   6.262 -0.6376  0.7258  0.3519
  101SAPE   C2510206   0.467   5.857   6.265 -0.1109  1.2249  0.1896
  101SAPE   H5R10207   0.526   5.819   6.349 -0.3024 -2.6852 -1.2295
  101SAPE   C2610208   0.468   5.772   6.159  0.7900  0.0108  0.0521
  101SAPE   H6R10209   0.489   5.664   6.167  0.4442 -0.2224 -1.8376
  101SAPE   C2710210   0.416   5.802   6.023  0.2246  0.7338  1.2055
  101SAPE   H7R10211   0.363   5.899   6.018 -1.4925 -0.2410 -0.8619
  101SAPE   H7S10212   0.326   5.739   6.008 -1.7323  3.3240  1.3158
  101SAPE   C2810213   0.506   5.793   5.906 -0.0415  0.6594 -0.1358
  101SAPE   H8R10214   0.612   5.775   5.929 -0.0089 -1.4564 -1.6438
  101SAPE   C2910215   0.469   5.796   5.776  0.1625 -0.7719  0.0518
  101SAPE   H9R10216   0.546   5.817   5.700 -1.1357  0.2355 -1.0589
  101SAPE  C21010217   0.331   5.828   5.725 -0.9234 -0.0605  0.3400
  101SAPE  H10R10218   0.251   5.811   5.800 -1.2042 -0.8301 -0.1265
  101SAPE  H10S10219   0.308   5.740   5.662  0.2160 -1.9479  2.4270
  101SAPE  C21110220   0.308   5.967   5.669  0.2293 -0.1184  0.2862
  101SAPE  H11R10221   0.325   6.054   5.735  0.6785  0.7378 -0.9148
  101SAPE  C21210222   0.305   5.995   5.538 -0.0827  0.3143 -0.7092
  101SAPE  H12R10223   0.284   6.099   5.509 -1.7805 -0.1181 -1.1549
  101SAPE  C21310224   0.301   5.898   5.417 -0.6227  0.5683  0.1466
  101SAPE  H13R10225   0.289   5.952   5.320 -3.1999 -2.1457 -1.1875
  101SAPE  H13S10226   0.213   5.833   5.432 -0.3669  0.6197  2.1966
  101SAPE  C21410227   0.422   5.819   5.411 -0.4064 -0.4814 -0.3483
  101SAPE  H14R10228   0.513   5.855   5.462  1.1562 -0.8530 -2.7093
  101SAPE  C21510229   0.451   5.729   5.314 -0.0558 -0.6529  0.1410
  101SAPE  H15R10230   0.537   5.660   5.316  0.0964 -0.4401  2.1343
  101SAPE  C21610231   0.358   5.703   5.200  0.3043 -0.1430  0.1137
  101SAPE  H16R10232   0.249   5.702   5.222  0.0683 -2.2542 -0.8661
  101SAPE  H16S10233   0.390   5.604   5.160  2.6195  0.6340 -0.1291
  101SAPE  C21710234   0.381   5.791   5.076 -0.5102 -0.4232 -0.4929
  101SAPE  H17R10235   0.485   5.817   5.045 -0.5823 -0.1551 -0.5175
  101SAPE  H17S10236   0.343   5.894   5.092  0.3136 -0.3661  1.3237
  101SAPE  C21810237   0.310   5.742   4.943 -0.2410  0.5303 -0.0292
  101SAPE  H18R10238   0.203   5.743   4.970  0.3806 -0.4971  2.8056
  101SAPE  H18S10239   0.337   5.635   4.928 -3.4199 -0.2981 -0.4495
  101SAPE  C21910240   0.354   5.827   4.821 -0.5030 -0.1283  0.8436
  101SAPE  H19R10241   0.463   5.828   4.804 -0.8734  0.3624 -1.9888
  101SAPE  H19S10242   0.323   5.933   4.820  0.9762  0.3193  1.0162
  101SAPE  C22010243   0.293   5.763   4.697 -0.4299 -0.3161 -0.3824
  101SAPE  H20R10244   0.313   5.823   4.605  0.4143  0.8971  0.5460
  101SAPE  H20S10245   0.184   5.748   4.714 -0.7220  2.2824  0.5237
  101SAPE  H20T10246   0.348   5.668   4.682 -0.9181 -0.9029  1.3432
  101SAPE   C3310247   1.102   6.421   6.224 -0.3158 -0.2774  0.1121
  101SAPE   H3X10248   0.994   6.424   6.199 -0.5291  0.5499  1.0700
  101SAPE   H3Y10249   1.128   6.327   6.277  0.7566  0.0746  0.2217
  101SAPE   C3410250   1.197   6.409   6.097 -0.2369 -0.0908  0.1123
  101SAPE   H4X10251   1.302   6.439   6.116 -0.5643  1.3573 -0.2318
  101SAPE   H4Y10252   1.166   6.481   6.018 -0.2209  1.4030  1.4254
  101SAPE   C3510253   1.195   6.265   6.038  0.3834 -0.1430  0.0280
  101SAPE   H5X10254   1.092   6.226   6.029  1.4881 -3.3079 -0.1734
  101SAPE   H5Y10255   1.257   6.194   6.097 -1.5692 -0.5379  1.6786
  101SAPE   C3610256   1.259   6.268   5.902  0.2192  0.1547  0.3499
  101SAPE   H6X10257   1.307   6.170   5.886 -2.4213 -1.1631 -0.1472
  101SAPE   H6Y10258   1.331   6.351   5.884  0.5543 -0.7314 -3.0882
  101SAPE   C3710259   1.144   6.282   5.803  0.1305  0.4741  0.4335
  101SAPE   H7X10260   1.095   6.380   5.821  1.4486  0.9734  1.5583
  101SAPE   H7Y10261   1.069   6.203   5.825  0.3826 -0.4052 -1.5975
  101SAPE   C3810262   1.211   6.279   5.663 -0.7301  0.4149  0.0800
  101SAPE   H8X10263   1.286   6.201   5.637  0.0734  1.5466 -1.1189
  101SAPE   H8Y10264   1.267   6.373   5.647 -1.2800  0.3058 -3.2850
  101SAPE   C3910265   1.097   6.276   5.553 -1.1223 -0.2721 -0.3262
  101SAPE   H9X10266   1.041   6.372   5.552 -1.3115 -0.3831 -0.4423
  101SAPE   H9Y10267   1.026   6.193   5.577 -0.4969 -0.7935 -0.2542
  101SAPE  C31010268   1.158   6.256   5.418  1.3437  0.1554  0.4982
  101SAPE  H10X10269   1.205   6.156   5.411  0.0588 -0.3796 -1.1902
  101SAPE  H10Y10270   1.235   6.333   5.396  0.4129  1.4017  1.4570
  101SAPE  C31110271   1.055   6.255   5.309  0.1463  0.6965  0.3814
  101SAPE  H11X10272   1.008   6.355   5.295  4.5519  2.8862 -0.2815
  101SAPE  H11Y10273   0.981   6.174   5.327  1.6399 -0.8656 -0.2640
  101SAPE  C31210274   1.115   6.214   5.172 -0.0949  0.3300 -0.3938
  101SAPE  H12X10275   1.177   6.122   5.179 -2.1745 -1.0354  1.1210
  101SAPE  H12Y10276   1.190   6.295   5.155  0.4503  0.5993  2.7662
  101SAPE  C31310277   1.021   6.196   5.054  0.1785  0.4261 -0.0733
  101SAPE  H13X10278   0.962   6.290   5.067 -2.4266 -1.1712  0.2649
  101SAPE  H13Y10279   0.958   6.108   5.079 -0.9473  1.2131 -0.0501
  101SAPE  C31410280   1.101   6.176   4.931 -0.5652 -0.3795  0.0519
  101SAPE  H14X10281   1.153   6.078   4.938  1.3821  0.6113  0.1568
  101SAPE  H14Y10282   1.181   6.252   4.919 -1.1360  0.3727  0.8644
  101SAPE  C31510283   1.013   6.183   4.805 -0.0281 -0.2740  0.4794
  101SAPE  H15X10284   0.923   6.119   4.813 -0.5918  0.0233 -2.3571
  101SAPE  H15Y10285   1.081   6.150   4.723  0.8916 -1.0784  1.5257
  101SAPE  C31610286   0.954   6.316   4.761  0.1582  1.3624 -0.3680
  101SAPE  H16X10287   1.043   6.383   4.757  1.7132 -0.5314  0.4891
  101SAPE  H16Y10288   0.900   6.359   4.848 -0.4630 -3.2136  1.8191
  101SAPE  C31710289   0.865   6.298   4.633 -0.7789 -0.2871 -0.3344
  101SAPE  H17X10290   0.789   6.218   4.650 -0.9178  0.1158  1.0752
  101SAPE  H17Y10291   0.921   6.255   4.548 -2.2451  1.1757 -2.1284
  101SAPE  C31810292   0.798   6.422   4.580 -0.8353  0.2046  0.8831
  101SAPE  H18X10293   0.722   6.401   4.503  0.4131  1.3850 -0.7431
  101SAPE  H18Y10294   0.880   6.478   4.530  1.1933 -0.0042  3.6544
  101SAPE  H18Z10295   0.755   6.485   4.661 -1.9429 -0.5789  0.9291
  102SAPE     N10296   2.014   5.237   6.500 -0.1245  0.2394  0.3747
  102SAPE   HN110297   2.047   5.239   6.599  1.5686  0.6484 -0.1582
  102SAPE   HN210298   2.058   5.156   6.452 -0.2054 -0.3809  1.3148
  102SAPE   HN310299   2.041   5.330   6.461  3.1260  0.4725  2.7474
  102SAPE   C1210300   1.866   5.220   6.500  0.1245  0.1295  0.4779
  102SAPE  H12A10301   1.818   5.319   6.482 -0.1105 -0.2978 -1.3706
  102SAPE  H12B10302   1.833   5.184   6.600  1.5014  2.4132  1.8462
  102SAPE   C1110303   1.802   5.135   6.387 -0.1447  1.0303  0.4451
  102SAPE  H11A10304   1.835   5.182   6.292  1.6360 -0.1342  0.4340
  102SAPE  H11B10305   1.691   5.141   6.384 -0.1270  1.3348  0.3656
  102SAPE     P10306   1.793   4.883   6.471 -0.2164 -0.0283  0.1852
  102SAPE   O1310307   1.847   4.883   6.606 -0.2179 -0.3261  0.0413
  102SAPE   O1410308   1.641   4.883   6.459  0.1494 -0.3995 -0.0118
  102SAPE   O1210309   1.854   5.002   6.395 -0.2129  0.2405  0.0069
  102SAPE   O1110310   1.845   4.751   6.407  0.3999  0.7009 -0.0058
  102SAPE    C110311   1.976   4.729   6.373 -0.4253 -0.7056  0.3323
  102SAPE    HA10312   1.976   4.667   6.281 -0.4925 -0.4275  0.1460
  102SAPE    HB10313   2.028   4.827   6.363 -0.9922 -0.0539  2.9189
  102SAPE    C210314   2.059   4.648   6.480  0.7841 -1.0144 -0.3465
  102SAPE    HS10315   2.061   4.702   6.576  0.6985  0.2184 -1.0160
  102SAPE   O2110316   2.191   4.618   6.427 -0.0953  0.0252 -0.2515
  102SAPE   C2110317   2.269   4.720   6.413 -0.0443 -0.1327 -0.1797
  102SAPE   O2210318   2.247   4.834   6.446  0.2251 -0.4119  0.2213
  102SAPE   C2210319   2.391   4.677   6.315  0.4648 -0.2560 -0.3333
  102SAPE   H2R10320   2.446   4.767   6.280  1.3750 -1.2767 -1.6220
  102SAPE   H2S10321   2.459   4.615   6.377 -0.7073  0.7162  2.0156
  102SAPE    C310322   1.991   4.509   6.514  0.4795  0.5534  0.2366
  102SAPE    HX10323   1.889   4.543   6.541  0.0552  1.0613 -1.8645
  102SAPE    HY10324   2.050   4.472   6.601  2.5237  0.5605 -1.0789
  102SAPE   O3110325   1.982   4.411   6.406 -0.1111 -0.6347 -0.2355
  102SAPE   C3110326   1.867   4.389   6.346 -0.3081 -0.0068 -0.0374
  102SAPE   O3210327   1.759   4.443   6.366 -0.5517  0.2470 -1.0497
  102SAPE   C3210328   1.886   4.283   6.245  0.0030  0.0464  0.2309
  102SAPE   H2X10329   1.801   4.213   6.252  0.1360 -0.2631 -1.1220
  102SAPE   H2Y10330   1.980   4.225   6.261 -0.4746 -1.2792 -1.5704
  102SAPE   C2310331   2.340   4.605   6.188  0.1237  0.0546 -0.2071
  102SAPE   H3R10332   2.274   4.523   6.222  2.2695 -1.7021 -0.0721
  102SAPE   H3S10333   2.423   4.572   6.122  1.4153 -0.8888  1.8309
  102SAPE   C2410334   2.245   4.689   6.098 -0.4194  0.8600  0.3109
  102SAPE   H4R10335   2.294   4.778   6.052  0.7080  0.4336  0.6449
  102SAPE   H4S10336   2.165   4.718   6.169  0.4521 -0.9044  2.1013
  102SAPE   C2510337   2.181   4.612   5.982  0.0637  0.5607  0.6811
  102SAPE   H5R10338   2.131   4.521   6.018  0.2847  0.6175  1.1367
  102SAPE   C2610339   2.212   4.612   5.850 -0.8738 -0.4312  0.4314
  102SAPE   H6R10340   2.164   4.537   5.785  2.0513 -2.0006 -0.0879
  102SAPE   C2710341   2.310   4.694   5.772 -0.1877 -0.6263  0.5484
  102SAPE   H7R10342   2.367   4.763   5.837 -1.7397 -0.3529  1.6840
  102SAPE   H7S10343   2.251   4.751   5.697 -0.1525 -0.8167  0.3732
  102SAPE   C2810344   2.425   4.609   5.720 -0.1069 -0.1030  0.6989
  102SAPE   H8R10345   2.505   4.580   5.791 -0.3978 -1.8921  0.3600
  102SAPE   C2910346   2.431   4.545   5.594  0.6332  0.1739 -0.5655
  102SAPE   H9R10347   2.520   4.485   5.570  0.9054 -0.4314  1.7388
  102SAPE  C21010348   2.317   4.570   5.496  0.8079  0.0358 -0.0326
  102SAPE  H10R10349   2.224   4.599   5.550  1.0174 -0.9117  0.8698
  102SAPE  H10S10350   2.304   4.480   5.433  0.7207  0.5981 -0.8352
  102SAPE  C21110351   2.335   4.674   5.392 -0.2645  0.0649  0.3546
  102SAPE  H11R10352   2.289   4.770   5.420 -1.2310 -0.7270  1.5852
  102SAPE  C21210353   2.394   4.663   5.269 -0.6916  0.4179  0.0130
  102SAPE  H12R10354   2.402   4.754   5.208  0.0763  0.3772  0.0448
  102SAPE  C21310355   2.463   4.536   5.217  0.0511 -0.9202  0.2028
  102SAPE  H13R10356   2.476   4.452   5.288 -3.0641 -0.3460  1.6021
  102SAPE  H13S10357   2.568   4.571   5.206 -0.3459  0.6427  1.1137
  102SAPE  C21410358   2.394   4.498   5.083  0.2951  0.0584  0.3851
  102SAPE  H14R10359   2.292   4.456   5.091  0.0109  0.8677  1.1153
  102SAPE  C21510360   2.439   4.529   4.960 -0.3569 -0.0364 -0.2998
  102SAPE  H15R10361   2.374   4.511   4.873 -1.2258  2.4506 -0.2413
  102SAPE  C21610362   2.571   4.596   4.920 -0.7019 -0.0133  0.4944
  102SAPE  H16R10363   2.662   4.571   4.979  1.0731 -1.4195 -2.6284
  102SAPE  H16S10364   2.565   4.707   4.921 -0.2637  0.0084  0.6519
  102SAPE  C21710365   2.618   4.567   4.774 -0.5561  0.1028 -0.3808
  102SAPE  H17R10366   2.608   4.460   4.746 -0.3377 -0.0817  0.2290
  102SAPE  H17S10367   2.726   4.592   4.778 -0.6947  0.8219 -0.9073
  102SAPE  C21810368   2.564   4.660   4.665  0.4796  0.3621  0.3929
  102SAPE  H18R10369   2.652   4.713   4.623 -1.2147  0.9812 -2.6916
  102SAPE  H18S10370   2.490   4.731   4.709  0.0189 -0.4920  1.0245
  102SAPE  C21910371   2.496   4.585   4.548 -0.5054 -0.4786  1.0489
  102SAPE  H19R10372   2.407   4.538   4.594 -1.9805  1.5074  0.3468
  102SAPE  H19S10373   2.563   4.505   4.510 -1.9950 -1.5807  0.6389
  102SAPE  C22010374   2.441   4.682   4.432  0.0296 -0.3206 -0.0658
  102SAPE  H20R10375   2.339   4.723   4.452 -0.1160 -1.4180  1.6917
  102SAPE  H20S10376   2.430   4.614   4.345 -2.1367 -0.1475  0.0109
  102SAPE  H20T10377   2.513   4.755   4.390 -1.5174  1.5850  0.4646
  102SAPE   C3310378   1.882   4.340   6.109  0.5479  0.2246  0.3103
  102SAPE   H3X10379   1.967   4.411   6.099  1.6695 -1.0967  0.0398
  102SAPE   H3Y10380   1.783   4.389   6.099 -0.8462 -2.0680  1.9772
  102SAPE   C3410381   1.879   4.230   6.002  0.0430  0.1057 -1.0495
  102SAPE   H4X10382   1.775   4.192   5.999 -1.4464  3.2731  2.4911
  102SAPE   H4Y10383   1.951   4.149   6.023 -1.2327 -1.3434 -2.0583
  102SAPE   C3510384   1.907   4.299   5.868 -0.2155  0.2960  0.1063
  102SAPE   H5X10385   1.985   4.378   5.866 -0.1576  0.2659 -2.8029
  102SAPE   H5Y10386   1.822   4.363   5.836 -1.3622 -1.4417 -0.4659
  102SAPE   C3610387   1.929   4.197   5.757  0.2660 -0.1611 -1.1332
  102SAPE   H6X10388   1.839   4.132   5.758  0.0926 -0.0068  1.8928
  102SAPE   H6Y10389   2.013   4.132   5.789  0.0809 -0.0139 -0.3136
  102SAPE   C3710390   1.953   4.252   5.609  0.3172 -0.9279 -1.0830
  102SAPE   H7X10391   2.036   4.326   5.614  0.0839 -0.7447  0.7145
  102SAPE   H7Y10392   1.854   4.298   5.589  0.3208  0.3462  1.3816
  102SAPE   C3810393   1.988   4.131   5.521  0.8611  0.7237 -1.2750
  102SAPE   H8X10394   1.937   4.040   5.560  2.6024 -0.3279 -1.3316
  102SAPE   H8Y10395   2.097   4.113   5.535  0.5650 -0.5775 -0.4428
  102SAPE   C3910396   1.951   4.151   5.377 -0.3719 -0.2340  0.4520
  102SAPE   H9X10397   1.852   4.201   5.370  0.3483  0.9620 -2.6985
  102SAPE   H9Y10398   1.947   4.053   5.325  1.4697  0.7605 -1.7451
  102SAPE  C31010399   2.057   4.237   5.297 -0.2566  0.1068  0.1089
  102SAPE  H10X10400   2.155   4.185   5.305 -0.4164 -0.3678 -0.8977
  102SAPE  H10Y10401   2.070   4.337   5.344  2.4046  1.2259 -2.6895
  102SAPE  C31110402   2.030   4.251   5.148  0.5997 -0.3762 -0.8836
  102SAPE  H11X10403   2.000   4.149   5.114 -1.9990  0.1064 -0.2463
  102SAPE  H11Y10404   2.127   4.275   5.098 -0.0057  1.8591 -1.0870
  102SAPE  C31210405   1.934   4.358   5.112 -0.1853 -0.3297 -0.0003
  102SAPE  H12X10406   1.975   4.456   5.146 -1.8238  1.1071 -1.8490
  102SAPE  H12Y10407   1.838   4.341   5.163 -0.1494  0.0174  0.1849
  102SAPE  C31310408   1.917   4.377   4.964 -0.1955 -0.3284 -0.4675
  102SAPE  H13X10409   1.833   4.448   4.953 -1.2812 -1.5828 -0.5415
  102SAPE  H13Y10410   1.883   4.277   4.929  1.1979 -1.1596  0.4544
  102SAPE  C31410411   2.041   4.409   4.879  0.0981  0.6376 -0.4594
  102SAPE  H14X10412   2.128   4.341   4.891  0.9459  1.3778 -2.0681
  102SAPE  H14Y10413   2.060   4.510   4.921  0.5590 -0.0412  1.0367
  102SAPE  C31510414   2.004   4.418   4.730 -0.2177  0.0400 -0.2796
  102SAPE  H15X10415   1.926   4.495   4.714 -0.7603 -0.4827 -0.1973
  102SAPE  H15Y10416   1.967   4.320   4.693 -0.1815 -0.1571  0.1901
  102SAPE  C31610417   2.120   4.453   4.631 -0.1952 -0.2984 -0.0309
  102SAPE  H16X10418   2.190   4.368   4.616  1.6338  1.5893 -3.3869
  102SAPE  H16Y10419   2.172   4.549   4.655 -2.5333  0.9238  0.4530
  102SAPE  C31710420   2.059   4.466   4.490 -0.3311 -0.3557  0.1310
  102SAPE  H17X10421   2.137   4.497   4.417  0.7317 -1.3060  0.8316
  102SAPE  H17Y10422   1.982   4.544   4.504 -0.9047 -0.7789 -0.6061
  102SAPE  C31810423   1.995   4.340   4.435 -0.4988 -0.4630 -0.0062
  102SAPE  H18X10424   1.884   4.338   4.444 -0.4127 -1.4158  1.0595
  102SAPE  H18Y10425   2.042   4.249   4.479  0.8824  0.1825 -0.1058
  102SAPE  H18Z10426   2.021   4.324   4.328  0.2802  1.7427 -0.1855
  103SAPE     N10427   6.384   0.954   2.035 -0.5207  0.0742 -0.5276
  103SAPE   HN110428   6.408   0.931   1.937  1.1890 -1.0262  0.1172
  103SAPE   HN210429   6.396   0.868   2.092  0.7440  1.7068  1.8947
  103SAPE   HN310430   6.289   0.995   2.044 -0.7544 -0.9446  3.7672
  103SAPE   C1210431   6.478   1.046   2.107  0.7888  0.0919  0.2292
  103SAPE  H12A10432   6.434   1.082   2.203  0.9987 -0.2361  0.4516
  103SAPE  H12B10433   6.496   1.134   2.042 -3.1322 -0.1661 -1.5276
  103SAPE   C1110434   6.600   0.959   2.141 -0.7081  0.1377 -0.2717
  103SAPE  H11A10435   6.673   1.016   2.202 -1.3492 -0.2595  0.8946
  103SAPE  H11B10436   6.656   0.935   2.048 -3.4600 -0.7275 -1.8320
  103SAPE     P10437   6.678   0.749   2.260 -0.1323  0.2661 -0.4374
  103SAPE   O1310438   6.627   0.620   2.316 -0.0443  0.0835 -0.0770
  103SAPE   O1410439   6.780   0.750   2.154 -0.1288 -0.2084 -0.3080
  103SAPE   O1210440   6.558   0.839   2.210  0.1451 -0.4547 -0.0885
  103SAPE   O1110441   6.725   0.846   2.376  0.2290  0.2376  0.2914
  103SAPE    C110442   6.622   0.874   2.474  0.0821  0.5350 -0.4279
  103SAPE    HA10443   6.537   0.932   2.433 -0.4880 -0.7455 -1.0981
  103SAPE    HB10444   6.584   0.780   2.519  1.6781 -1.1899 -2.4824
  103SAPE    C210445   6.695   0.965   2.582  0.0753 -0.2256  0.4348
  103SAPE    HS10446   6.800   0.930   2.586  0.1149 -0.0157  1.3455
  103SAPE   O2110447   6.655   0.923   2.718 -0.7769  0.4078 -0.1484
  103SAPE   C2110448   6.694   0.809   2.757  0.2494  0.5665 -0.5632
  103SAPE   O2210449   6.775   0.733   2.699 -0.3608 -0.3027 -0.0895
  103SAPE   C2210450   6.636   0.775   2.900  0.7980  0.4277 -0.3113
  103SAPE   H2R10451   6.622   0.872   2.952 -0.3413  0.2645 -0.2834
  103SAPE   H2S10452   6.533   0.732   2.896  0.7455  0.6646 -2.1206
  103SAPE    C310453   6.677   1.112   2.542  0.1395  0.8806  0.0394
  103SAPE    HX10454   6.586   1.160   2.584  0.8972  1.0434  1.5345
  103SAPE    HY10455   6.662   1.124   2.432 -0.0304  1.2290  0.0978
  103SAPE   O3110456   6.799   1.179   2.579 -0.6354  0.2103 -0.2702
  103SAPE   C3110457   6.794   1.248   2.694  0.2145  0.5833  0.3690
  103SAPE   O3210458   6.692   1.270   2.755  0.3219  0.5158 -0.2401
  103SAPE   C3210459   6.934   1.294   2.732  0.1875 -0.2176  0.2699
  103SAPE   H2X10460   7.002   1.221   2.684  0.2134  0.3419 -0.5756
  103SAPE   H2Y10461   6.939   1.294   2.843 -0.6357 -1.4261  0.3187
  103SAPE   C2310462   6.730   0.674   2.986  0.1516  0.0250 -0.0162
  103SAPE   H3R10463   6.829   0.725   2.990 -0.0909  0.8189 -2.2869
  103SAPE   H3S10464   6.748   0.585   2.921 -0.1042  0.7541 -1.1173
  103SAPE   C2410465   6.675   0.623   3.115  0.5115 -0.7248 -0.0571
  103SAPE   H4R10466   6.727   0.537   3.161 -1.2920 -2.8443 -1.7468
  103SAPE   H4S10467   6.572   0.593   3.087 -0.4397  0.9490  1.3825
  103SAPE   C2510468   6.648   0.748   3.199  0.1794  0.3994 -0.2269
  103SAPE   H5R10469   6.644   0.840   3.138 -1.8397 -1.4071 -3.0366
  103SAPE   C2610470   6.615   0.756   3.328 -0.1097 -0.8844  0.4023
  103SAPE   H6R10471   6.606   0.860   3.363  1.0242 -1.0610  1.2892
  103SAPE   C2710472   6.620   0.640   3.422 -0.3591 -0.5648  0.9480
  103SAPE   H7R10473   6.683   0.670   3.509  1.6817 -0.5029 -0.4602
  103SAPE   H7S10474   6.672   0.553   3.375  0.1379  0.6992 -0.9734
  103SAPE   C2810475   6.486   0.596   3.471  0.4806  0.0013  0.5552
  103SAPE   H8R10476   6.400   0.608   3.404 -0.4047 -2.3687  1.1866
  103SAPE   C2910477   6.465   0.515   3.580 -0.4955 -0.5669 -0.2685
  103SAPE   H9R10478   6.364   0.493   3.617 -1.0096 -0.6938 -1.6854
  103SAPE  C21010479   6.576   0.471   3.671 -0.7888  0.0023  0.2917
  103SAPE  H10R10480   6.663   0.447   3.607  0.9693 -0.8374  2.8644
  103SAPE  H10S10481   6.551   0.373   3.716 -1.5435 -0.1192 -0.3626
  103SAPE  C21110482   6.612   0.574   3.779  0.0891 -0.1428  0.0035
  103SAPE  H11R10483   6.669   0.662   3.745  2.0087 -1.1411  0.5162
  103SAPE  C21210484   6.580   0.562   3.907  0.2951  0.5166  0.5058
  103SAPE  H12R10485   6.609   0.642   3.976 -4.4105  3.0840 -0.0261
  103SAPE  C21310486   6.496   0.454   3.977 -0.2955 -0.2585  0.2092
  103SAPE  H13R10487   6.452   0.399   3.892  0.2570 -0.0915 -0.1927
  103SAPE  H13S10488   6.408   0.498   4.028 -0.0627  1.2670 -0.6509
  103SAPE  C21410489   6.576   0.357   4.058  0.5142  0.0422  0.1558
  103SAPE  H14R10490   6.599   0.260   4.010 -2.5731 -2.8753  3.8957
  103SAPE  C21510491   6.607   0.365   4.187  0.4993 -0.3088 -0.6983
  103SAPE  H15R10492   6.657   0.287   4.245 -1.5116 -0.0954  1.5280
  103SAPE  C21610493   6.562   0.478   4.274  0.1233 -0.0467 -0.4573
  103SAPE  H16R10494   6.538   0.560   4.203 -0.0150 -0.8201 -1.3230
  103SAPE  H16S10495   6.651   0.522   4.324  0.2942 -0.3769 -0.4611
  103SAPE  C21710496   6.457   0.445   4.378  0.1001  0.3085 -0.4906
  103SAPE  H17R10497   6.370   0.398   4.327 -0.6059  0.2941  0.6906
  103SAPE  H17S10498   6.433   0.539   4.433  1.0482  0.3384 -0.1089
  103SAPE  C21810499   6.504   0.344   4.484  0.2119  0.2851  0.2656
  103SAPE  H18R10500   6.541   0.255   4.429 -2.4101  0.3989 -1.8841
  103SAPE  H18S10501   6.421   0.314   4.551  0.9586  0.8004  1.4522
  103SAPE  C21910502   6.612   0.405   4.568 -0.3393 -0.5030  0.1786
  103SAPE  H19R10503   6.563   0.499   4.600 -1.6864 -1.6590  1.6740
  103SAPE  H19S10504   6.701   0.425   4.505 -1.4597  1.2337 -0.9248
  103SAPE  C22010505   6.658   0.316   4.680  0.0200 -0.6373 -0.6589
  103SAPE  H20R10506   6.761   0.333   4.719 -0.0007 -3.3807  0.8129
  103SAPE  H20S10507   6.660   0.209   4.652  2.2694 -2.1073  4.0397
  103SAPE  H20T10508   6.590   0.314   4.768  1.6387 -1.3862  0.6359
  103SAPE   C3310509   6.953   1.435   2.668 -0.3189  0.0274  0.1835
  103SAPE   H3X10510   6.856   1.487   2.655 -0.2826  0.1406  0.3671
  103SAPE   H3Y10511   6.982   1.407   2.564  0.3923 -1.2578  0.7088
  103SAPE   C3410512   7.056   1.512   2.745  0.1544 -0.0136  0.6685
  103SAPE   H4X10513   7.044   1.513   2.855  1.3456 -0.8667  0.8256
  103SAPE   H4Y10514   7.038   1.616   2.711 -1.0886  0.3173  2.2404
  103SAPE   C3510515   7.199   1.480   2.704 -0.1465  0.2427  0.0973
  103SAPE   H5X10516   7.206   1.485   2.593 -1.6459  0.4628 -0.0115
  103SAPE   H5Y10517   7.216   1.374   2.733  0.3337  0.2199 -0.2659
  103SAPE   C3610518   7.298   1.579   2.760  0.7562 -0.7760  0.3940
  103SAPE   H6X10519   7.279   1.682   2.724  0.3859 -0.8626  0.3365
  103SAPE   H6Y10520   7.396   1.541   2.724  0.7164 -0.0407 -0.5553
  103SAPE   C3710521   7.291   1.600   2.908  0.5772 -0.7102 -0.0049
  103SAPE   H7X10522   7.192   1.626   2.951 -0.0809 -1.0748 -1.2537
  103SAPE   H7Y10523   7.366   1.679   2.931 -0.6773  1.0404 -1.6179
  103SAPE   C3810524   7.334   1.469   2.981 -0.1036 -0.2206 -0.1056
  103SAPE   H8X10525   7.434   1.440   2.944 -1.2174 -3.6707 -0.7920
  103SAPE   H8Y10526   7.262   1.386   2.963  0.6531 -0.5716 -1.7241
  103SAPE   C3910527   7.340   1.500   3.133  0.2633  0.0034 -0.0387
  103SAPE   H9X10528   7.238   1.520   3.172  0.8593 -0.1343  1.7005
  103SAPE   H9Y10529   7.404   1.586   3.160 -0.8805  0.5693  0.9545
  103SAPE  C31010530   7.381   1.380   3.222 -0.1027  0.1345 -0.0926
  103SAPE  H10X10531   7.483   1.343   3.200  1.5371  1.7580  3.8969
  103SAPE  H10Y10532   7.298   1.310   3.195 -0.3310 -0.2542  1.4737
  103SAPE  C31110533   7.363   1.395   3.374 -0.1738  0.2787 -0.1749
  103SAPE  H11X10534   7.255   1.410   3.392  0.1304  0.8025  1.3021
  103SAPE  H11Y10535   7.422   1.479   3.417  3.2440 -2.9978  2.1570
  103SAPE  C31210536   7.406   1.266   3.447 -0.3101  0.0124 -0.2248
  103SAPE  H12X10537   7.508   1.233   3.420 -0.1577  0.9005 -0.7292
  103SAPE  H12Y10538   7.327   1.193   3.418  1.5924 -2.0208 -0.5369
  103SAPE  C31310539   7.402   1.294   3.594  0.3437 -0.5144 -0.0315
  103SAPE  H13X10540   7.303   1.330   3.631  0.6249 -1.9282  2.3335
  103SAPE  H13Y10541   7.463   1.386   3.612 -1.7595  0.7445  1.1270
  103SAPE  C31410542   7.459   1.180   3.685  0.1640  0.3899  0.1399
  103SAPE  H14X10543   7.560   1.172   3.638 -0.7162 -1.8794 -1.5724
  103SAPE  H14Y10544   7.412   1.086   3.649  1.3467  0.0847 -0.6575
  103SAPE  C31510545   7.446   1.206   3.830  0.1417  0.4608  0.0321
  103SAPE  H15X10546   7.340   1.201   3.862  0.3568 -0.1776  0.6856
  103SAPE  H15Y10547   7.475   1.313   3.840  2.5202 -0.1247  0.0106
  103SAPE  C31610548   7.539   1.120   3.910 -0.7415  0.5417  0.2401
  103SAPE  H16X10549   7.539   1.152   4.016  0.0523  0.8955  0.1434
  103SAPE  H16Y10550   7.641   1.111   3.867 -0.5446 -2.6750  1.1507
  103SAPE  C31710551   7.486   0.968   3.912 -0.0683  0.0112  0.2487
  103SAPE  H17X10552   7.554   0.900   3.968  0.8731  0.5639 -0.2011
  103SAPE  H17Y10553   7.489   0.933   3.807 -0.7938  1.2691 -0.2150
  103SAPE  C31810554   7.353   0.959   3.978  0.2087 -0.0195  0.3405
  103SAPE  H18X10555   7.272   0.987   3.908  1.2418 -1.0850 -1.3292
  103SAPE  H18Y10556   7.355   1.019   4.072  2.7406  0.0530  0.2988
  103SAPE  H18Z10557   7.333   0.854   4.010 -0.5584  0.8730  3.0846
  104SAPE     N10558   0.266   0.362   2.573  0.1624 -0.0756 -0.0905
  104SAPE   HN110559   0.234   0.263   2.573  2.9706 -1.0750  1.4881
  104SAPE   HN210560   0.186   0.428   2.585 -0.9959 -0.8201 -2.7647
  104SAPE   HN310561   0.304   0.378   2.477 -0.3335 -0.2480 -0.3221
  104SAPE   C1210562   0.362   0.379   2.685 -0.3933  0.8326  1.4874
  104SAPE  H12A10563   0.318   0.315   2.765 -1.5408  0.1308  0.3371
  104SAPE  H12B10564   0.355   0.483   2.722 -1.3938  1.2460  0.2163
  104SAPE   C1110565   0.504   0.322   2.639 -0.0526  0.6270  0.1683
  104SAPE  H11A10566   0.504   0.211   2.639  0.5961  0.6235  0.6544
  104SAPE  H11B10567   0.570   0.356   2.721  1.1618  0.2676 -0.6245
  104SAPE     P10568   0.647   0.312   2.423  0.0962  0.1906 -0.1307
  104SAPE   O1310569   0.589   0.190   2.359  0.4512  0.0002 -0.1788
  104SAPE   O1410570   0.718   0.407   2.331  0.7389 -0.4928  0.1122
  104SAPE   O1210571   0.534   0.375   2.512  0.2358 -0.1840  0.1069
  104SAPE   O1110572   0.735   0.266   2.534 -0.3765 -1.2250  0.5372
  104SAPE    C110573   0.868   0.311   2.566  0.0401 -0.5652 -0.2173
  104SAPE    HA10574   0.932   0.228   2.529  1.4254 -0.0751  0.9888
  104SAPE    HB10575   0.900   0.402   2.512  0.7851 -1.0313 -0.5851
  104SAPE    C210576   0.885   0.330   2.717 -0.3975 -0.7981 -0.8622
  104SAPE    HS10577   0.993   0.310   2.735 -0.4781  0.6817  1.7761
  104SAPE   O2110578   0.797   0.237   2.790 -0.3894  0.6492  0.2157
  104SAPE   C2110579   0.836   0.111   2.777 -0.4756  0.0639  0.5581
  104SAPE   O2210580   0.946   0.074   2.734  0.5394 -0.1782  0.2208
  104SAPE   C2210581   0.731   0.014   2.821  0.2390  0.3843  0.2194
  104SAPE   H2R10582   0.749   0.023   2.931  1.5354  4.2863 -0.1771
  104SAPE   H2S10583   0.631   0.055   2.798  0.0851 -0.4423 -0.6367
  104SAPE    C310584   0.854   0.473   2.772 -0.5638 -0.4290 -0.7465
  104SAPE    HX10585   0.751   0.493   2.737 -0.2111 -0.0354 -1.6202
  104SAPE    HY10586   0.918   0.543   2.713 -0.4589 -0.4006 -0.6004
  104SAPE   O3110587   0.890   0.475   2.919 -0.3062 -0.1931  0.3051
  104SAPE   C3110588   0.792   0.443   2.996 -0.1247  0.0828 -0.0239
  104SAPE   O3210589   0.672   0.447   2.964 -0.0449 -0.0370  0.4573
  104SAPE   C3210590   0.830   0.431   3.142 -0.1810 -0.6366  0.2166
  104SAPE   H2X10591   0.737   0.441   3.202  0.8447  1.3493  1.5799
  104SAPE   H2Y10592   0.895   0.518   3.165  0.2696 -0.5178 -1.3930
  104SAPE   C2310593   0.758  -0.123   2.764 -0.3559  0.1510 -0.4701
  104SAPE   H3R10594   0.865  -0.153   2.767 -1.1180 -2.8788 -0.5169
  104SAPE   H3S10595   0.733  -0.118   2.656 -0.4351 -1.0189 -0.5175
  104SAPE   C2410596   0.696  -0.250   2.829  0.6985 -0.0967 -0.5185
  104SAPE   H4R10597   0.725  -0.254   2.936  2.0564  2.2125 -0.7403
  104SAPE   H4S10598   0.725  -0.347   2.782 -2.8855 -0.1494 -3.0754
  104SAPE   C2510599   0.540  -0.240   2.824 -0.2695 -0.0218  0.5318
  104SAPE   H5R10600   0.506  -0.214   2.723 -0.9007 -0.2195  0.6879
  104SAPE   C2610601   0.458  -0.258   2.927  0.1811  0.2666  0.5557
  104SAPE   H6R10602   0.350  -0.245   2.911 -0.0756 -0.3069  1.7027
  104SAPE   C2710603   0.487  -0.304   3.067  0.2053 -0.4190  0.3045
  104SAPE   H7R10604   0.594  -0.306   3.098 -0.1850 -0.5631  1.7113
  104SAPE   H7S10605   0.454  -0.410   3.064 -1.0565 -0.0761 -3.3089
  104SAPE   C2810606   0.421  -0.200   3.157  0.1458  0.2644 -1.1295
  104SAPE   H8R10607   0.458  -0.099   3.133  0.8904 -0.3611 -2.7197
  104SAPE   C2910608   0.326  -0.204   3.258  0.1507 -0.0750 -0.1354
  104SAPE   H9R10609   0.304  -0.111   3.313  3.2376  1.6005 -1.4670
  104SAPE  C21010610   0.237  -0.321   3.293 -0.3803  0.4114 -0.2276
  104SAPE  H10R10611   0.293  -0.417   3.301 -0.7379  0.0867 -1.4394
  104SAPE  H10S10612   0.171  -0.351   3.209  0.4217 -2.4054  0.0367
  104SAPE  C21110613   0.169  -0.275   3.422 -0.2699  0.1392  0.5967
  104SAPE  H11R10614   0.109  -0.183   3.414  0.5353  0.5549 -1.4927
  104SAPE  C21210615   0.173  -0.332   3.546 -0.3655  0.0055 -0.3308
  104SAPE  H12R10616   0.134  -0.270   3.629 -0.5455  0.5617 -0.8200
  104SAPE  C21310617   0.237  -0.455   3.602 -0.4414  0.4682  0.9132
  104SAPE  H13R10618   0.329  -0.480   3.545 -1.5078 -2.7669  0.4394
  104SAPE  H13S10619   0.177  -0.548   3.594  0.4611 -0.0741  0.2046
  104SAPE  C21410620   0.301  -0.431   3.735  1.4066 -0.4081 -0.1892
  104SAPE  H14R10621   0.397  -0.382   3.714  1.4079  0.1499  1.0776
  104SAPE  C21510622   0.248  -0.458   3.861  0.8766  0.2499 -0.2610
  104SAPE  H15R10623   0.310  -0.455   3.952 -1.2680 -1.1056  1.3405
  104SAPE  C21610624   0.106  -0.500   3.882 -0.2246 -0.1951 -0.4472
  104SAPE  H16R10625   0.047  -0.494   3.788 -0.5342  1.2465 -0.1899
  104SAPE  H16S10626   0.064  -0.422   3.950 -1.0239 -0.6616 -0.3916
  104SAPE  C21710627   0.094  -0.628   3.965 -0.1829  0.3070 -0.1501
  104SAPE  H17R10628   0.148  -0.629   4.062  1.6532 -3.5983 -1.0010
  104SAPE  H17S10629   0.138  -0.713   3.909  2.2453  0.1546  1.8062
  104SAPE  C21810630  -0.053  -0.659   3.999 -0.1610 -0.5723  0.2204
  104SAPE  H18R10631  -0.114  -0.630   3.910  1.8235  3.2291 -0.1202
  104SAPE  H18S10632  -0.084  -0.584   4.075 -1.7030  0.1130 -1.0085
  104SAPE  C21910633  -0.082  -0.801   4.051 -0.0367  0.2384 -0.2888
  104SAPE  H19R10634   0.002  -0.811   4.123 -0.1854  2.6322  0.2834
  104SAPE  H19S10635  -0.081  -0.886   3.979  0.2074 -0.6131  0.6926
  104SAPE  C22010636  -0.211  -0.807   4.134  1.0195  0.1030 -0.1187
  104SAPE  H20R10637  -0.229  -0.911   4.167  1.5205  0.4074  1.1461
  104SAPE  H20S10638  -0.288  -0.765   4.065 -0.6026 -0.2293  1.4452
  104SAPE  H20T10639  -0.193  -0.740   4.221 -0.1042  0.2104  0.0405
  104SAPE   C3310640   0.913   0.303   3.179  0.2966  1.2408  0.5720
  104SAPE   H3X10641   0.981   0.323   3.265  0.3230 -0.0518  0.8708
  104SAPE   H3Y10642   0.970   0.282   3.086 -0.4625 -0.3781  0.4306
  104SAPE   C3410643   0.831   0.182   3.218  0.0560 -0.2382  0.5788
  104SAPE   H4X10644   0.735   0.173   3.162 -0.7863  1.0776  1.7486
  104SAPE   H4Y10645   0.800   0.186   3.324 -1.3368  0.5814  0.1753
  104SAPE   C3510646   0.904   0.050   3.183  0.1614 -0.2037  0.2518
  104SAPE   H5X10647   1.002   0.048   3.236 -0.1151  0.0501  0.7854
  104SAPE   H5Y10648   0.936   0.052   3.077 -1.5122  2.1206 -0.2791
  104SAPE   C3610649   0.837  -0.083   3.207  0.6899  0.6659  0.8355
  104SAPE   H6X10650   0.899  -0.162   3.160 -1.6075 -0.2273 -0.8702
  104SAPE   H6Y10651   0.754  -0.099   3.134  1.7707 -0.0645 -0.2748
  104SAPE   C3710652   0.816  -0.120   3.356  0.1066 -0.0362  0.9329
  104SAPE   H7X10653   0.757  -0.034   3.393 -0.9243 -0.1944 -0.2543
  104SAPE   H7Y10654   0.912  -0.124   3.410  1.2174 -2.7036 -1.0141
  104SAPE   C3810655   0.724  -0.238   3.391 -0.0900  0.1908  0.2964
  104SAPE   H8X10656   0.770  -0.333   3.356  0.1748  1.1948 -2.3134
  104SAPE   H8Y10657   0.631  -0.222   3.332  1.1875  2.7223 -1.2026
  104SAPE   C3910658   0.693  -0.251   3.541 -0.0208 -0.3067  0.3977
  104SAPE   H9X10659   0.587  -0.285   3.546 -0.3908  0.4245 -1.5514
  104SAPE   H9Y10660   0.699  -0.158   3.602 -0.1428 -0.0907  0.0790
  104SAPE  C31010661   0.773  -0.355   3.616  0.5501  1.0555 -0.0121
  104SAPE  H10X10662   0.874  -0.375   3.574  1.0733  0.1264  1.5997
  104SAPE  H10Y10663   0.727  -0.448   3.575  3.1144  1.4386 -4.4703
  104SAPE  C31110664   0.784  -0.354   3.764 -0.7330  0.0101  0.6293
  104SAPE  H11X10665   0.681  -0.362   3.807 -1.2876 -2.5322 -0.9664
  104SAPE  H11Y10666   0.833  -0.257   3.787 -0.3366 -0.0394 -0.0026
  104SAPE  C31210667   0.875  -0.467   3.803 -0.6625  0.3534 -0.8611
  104SAPE  H12X10668   0.982  -0.458   3.773  0.4337 -2.5826  1.5638
  104SAPE  H12Y10669   0.855  -0.570   3.766  0.9638 -0.0905 -0.5847
  104SAPE  C31310670   0.887  -0.468   3.964 -0.5024 -1.0431 -0.0198
  104SAPE  H13X10671   0.787  -0.446   4.007 -0.2292  0.8432 -0.2431
  104SAPE  H13Y10672   0.958  -0.387   3.992 -1.2664  0.0574 -1.1288
  104SAPE  C31410673   0.945  -0.601   4.009  0.0473 -0.5632  0.3874
  104SAPE  H14X10674   1.045  -0.597   3.961  0.1078  1.8161  0.5930
  104SAPE  H14Y10675   0.888  -0.687   3.969  2.2820 -1.8145 -0.2943
  104SAPE  C31510676   0.959  -0.626   4.166  0.8481  0.1914 -0.0316
  104SAPE  H15X10677   0.859  -0.636   4.213  0.7082 -0.4544 -0.4502
  104SAPE  H15Y10678   1.004  -0.541   4.221 -1.3391  0.2805  1.8044
  104SAPE  C31610679   1.048  -0.744   4.202 -0.1825  0.4209  0.6515
  104SAPE  H16X10680   1.153  -0.728   4.168  0.7511 -1.9261  2.1976
  104SAPE  H16Y10681   1.021  -0.845   4.164 -2.5018  1.3858 -0.4639
  104SAPE  C31710682   1.061  -0.763   4.351  0.0336 -0.1771 -0.2064
  104SAPE  H17X10683   0.959  -0.771   4.396  0.4281  0.1905  0.7717
  104SAPE  H17Y10684   1.110  -0.675   4.397 -0.3299  0.2178 -0.5637
  104SAPE  C31810685   1.134  -0.894   4.379  0.6448 -1.0747  0.5180
  104SAPE  H18X10686   1.215  -0.911   4.305 -0.0011  1.0043 -0.7805
  104SAPE  H18Y10687   1.061  -0.978   4.365 -0.8018  0.5167 -2.7109
  104SAPE  H18Z10688   1.181  -0.898   4.479  2.3501  0.1135 -0.1985
  105SAPE     N10689   4.626   5.463   2.097 -0.3126 -0.3071  0.7631
  105SAPE   HN110690   4.709   5.483   2.037 -0.9807  0.9854  0.2315
  105SAPE   HN210691   4.621   5.360   2.115 -2.9193 -0.4122 -0.1934
  105SAPE   HN310692   4.543   5.495   2.044 -0.3422 -0.4656  0.7146
  105SAPE   C1210693   4.635   5.552   2.222 -0.1846  0.6334 -0.1963
  105SAPE  H12A10694   4.655   5.654   2.183  1.1904  0.4032 -0.1648
  105SAPE  H12B10695   4.727   5.514   2.271 -0.0481 -1.0162 -1.6305
  105SAPE   C1110696   4.493   5.534   2.289 -0.2008  0.2339  0.1536
  105SAPE  H11A10697   4.484   5.596   2.380 -1.3354 -1.8133  1.4990
  105SAPE  H11B10698   4.478   5.426   2.310  1.1992  0.0685  0.4369
  105SAPE     P10699   4.238   5.591   2.212 -0.3798 -0.0771  0.0334
  105SAPE   O1310700   4.190   5.665   2.093  0.0848 -0.3894  0.2987
  105SAPE   O1410701   4.184   5.456   2.240 -0.4574  0.7869 -0.2085
  105SAPE   O1210702   4.394   5.584   2.196  0.2906  0.8812  0.3125
  105SAPE   O1110703   4.229   5.684   2.346 -0.1100 -0.3017 -0.6935
  105SAPE    C110704   4.164   5.627   2.456 -0.8691 -0.0053 -0.3922
  105SAPE    HA10705   4.058   5.603   2.437 -1.3481  0.9576  0.9127
  105SAPE    HB10706   4.228   5.545   2.493 -2.2846 -1.2654 -0.6414
  105SAPE    C210707   4.177   5.732   2.581 -0.2421 -0.0318 -0.4724
  105SAPE    HS10708   4.118   5.817   2.540 -1.6259 -0.3843  0.6804
  105SAPE   O2110709   4.312   5.759   2.613 -0.0464 -0.2319  0.0931
  105SAPE   C2110710   4.352   5.884   2.617  0.0689  0.2283  0.3847
  105SAPE   O2210711   4.284   5.985   2.596  0.0573  0.4402  0.0286
  105SAPE   C2210712   4.498   5.881   2.656 -0.5147  0.2723  0.1222
  105SAPE   H2R10713   4.507   5.812   2.742 -0.7430 -0.4116 -0.3880
  105SAPE   H2S10714   4.559   5.845   2.569 -0.0101 -2.2718  1.4286
  105SAPE    C310715   4.097   5.674   2.703  0.0407  0.0374 -0.5584
  105SAPE    HX10716   4.117   5.745   2.786 -0.3213  1.4646 -1.6568
  105SAPE    HY10717   4.134   5.573   2.730 -2.5854 -0.7358  0.5046
  105SAPE   O3110718   3.953   5.656   2.673  0.2858 -0.8490 -0.8347
  105SAPE   C3110719   3.878   5.762   2.686 -0.0764 -0.3850 -0.3157
  105SAPE   O3210720   3.922   5.874   2.717 -0.6842  0.5341 -0.9250
  105SAPE   C3210721   3.734   5.725   2.658 -0.0323 -0.1733 -0.1538
  105SAPE   H2X10722   3.709   5.626   2.702  1.3534 -0.1429  0.7598
  105SAPE   H2Y10723   3.719   5.719   2.548 -0.1608  0.5434 -0.1836
  105SAPE   C2310724   4.559   6.022   2.692 -0.4007 -0.1027  0.3369
  105SAPE   H3R10725   4.548   6.079   2.598 -0.1242 -0.4012  0.1217
  105SAPE   H3S10726   4.670   6.017   2.702 -0.4366  1.0654  1.6382
  105SAPE   C2410727   4.493   6.096   2.810  0.3473  0.3146  0.2721
  105SAPE   H4R10728   4.383   6.098   2.791  0.0649 -1.2536  1.6092
  105SAPE   H4S10729   4.534   6.199   2.818  1.2071  0.0307 -0.3578
  105SAPE   C2510730   4.529   6.016   2.932 -0.5116 -0.3864  0.1347
  105SAPE   H5R10731   4.632   5.979   2.934 -0.1524  0.4833 -1.0450
  105SAPE   C2610732   4.459   6.016   3.048  0.0984 -0.0566  0.2211
  105SAPE   H6R10733   4.496   5.946   3.124 -1.1826 -0.9044  0.1020
  105SAPE   C2710734   4.328   6.087   3.074 -0.3379 -0.6095 -0.2515
  105SAPE   H7R10735   4.328   6.193   3.040  0.0365 -0.9806 -1.4512
  105SAPE   H7S10736   4.303   6.078   3.181  0.0693 -1.8300 -0.2452
  105SAPE   C2810737   4.213   6.040   2.986 -0.4631  0.2872 -0.3890
  105SAPE   H8R10738   4.210   6.089   2.887  3.0448 -1.0043 -1.2906
  105SAPE   C2910739   4.131   5.939   2.994 -0.3455  0.0348 -0.4249
  105SAPE   H9R10740   4.044   5.927   2.928  0.2200 -1.6725 -0.8949
  105SAPE  C21010741   4.121   5.850   3.117  0.2682 -0.2732  0.5738
  105SAPE  H10R10742   4.118   5.913   3.209 -0.4475 -0.3281  0.5918
  105SAPE  H10S10743   4.216   5.799   3.145  1.3949  0.2552 -1.9980
  105SAPE  C21110744   4.002   5.750   3.123  0.1389 -0.9906 -0.2972
  105SAPE  H11R10745   4.015   5.659   3.062 -0.2024 -1.2348 -0.0065
  105SAPE  C21210746   3.879   5.780   3.177  0.5558  0.2144  0.7099
  105SAPE  H12R10747   3.801   5.702   3.175  0.6359  0.1003  1.6384
  105SAPE  C21310748   3.832   5.914   3.238  0.0894 -0.4141  0.2513
  105SAPE  H13R10749   3.912   5.973   3.287 -0.4479  0.0076  0.6422
  105SAPE  H13S10750   3.773   5.881   3.327 -0.4645 -1.1515 -0.3728
  105SAPE  C21410751   3.762   6.010   3.148 -0.2600  0.1178  0.1693
  105SAPE  H14R10752   3.801   6.015   3.046  1.3872 -3.5411  0.4647
  105SAPE  C21510753   3.682   6.108   3.190  0.5534  0.6345 -0.7362
  105SAPE  H15R10754   3.640   6.164   3.105 -1.5335 -2.0238 -1.6293
  105SAPE  C21610755   3.627   6.129   3.327  0.1121 -0.1293 -0.6748
  105SAPE  H16R10756   3.642   6.235   3.358 -1.9372 -0.1897  0.7198
  105SAPE  H16S10757   3.669   6.065   3.407  2.1507 -0.5630 -2.0128
  105SAPE  C21710758   3.474   6.103   3.327 -0.5358 -0.3512  0.5550
  105SAPE  H17R10759   3.467   5.993   3.316 -2.3240 -0.0945 -1.5493
  105SAPE  H17S10760   3.425   6.157   3.243 -0.1948 -0.4709  0.2738
  105SAPE  C21810761   3.413   6.144   3.458 -0.0395 -0.0042 -0.3698
  105SAPE  H18R10762   3.412   6.252   3.486 -0.3570 -0.3712  1.1187
  105SAPE  H18S10763   3.482   6.100   3.533 -0.8218 -1.1442 -0.2918
  105SAPE  C21910764   3.268   6.096   3.480  0.3517  0.0363 -0.5649
  105SAPE  H19R10765   3.261   5.998   3.429  0.7191 -0.1122 -0.3359
  105SAPE  H19S10766   3.204   6.170   3.429  1.4449  1.5797  0.2045
  105SAPE  C22010767   3.221   6.074   3.626  0.2524  0.1119 -0.8003
  105SAPE  H20R10768   3.139   6.143   3.656  2.6183  2.2620  1.3623
  105SAPE  H20S10769   3.301   6.107   3.697  0.2123 -0.0159 -0.6950
  105SAPE  H20T10770   3.192   5.969   3.643 -0.9500  0.3460 -1.3271
  105SAPE   C3310771   3.637   5.820   2.715 -0.1988 -0.5860 -0.3312
  105SAPE   H3X10772   3.542   5.803   2.660 -0.2540 -0.6575 -0.2136
  105SAPE   H3Y10773   3.656   5.928   2.699 -0.2379 -0.6697 -0.9688
  105SAPE   C3410774   3.594   5.792   2.866 -0.4971 -0.1283 -0.0751
  105SAPE   H4X10775   3.672   5.820   2.940 -1.8548  0.6386  1.1089
  105SAPE   H4Y10776   3.557   5.688   2.875 -3.0547  0.8044  1.0569
  105SAPE   C3510777   3.473   5.872   2.889  0.8434 -0.4925 -0.3742
  105SAPE   H5X10778   3.401   5.845   2.809  3.1740  2.5999 -3.8209
  105SAPE   H5Y10779   3.498   5.975   2.856 -0.5443 -0.1476 -0.4366
  105SAPE   C3610780   3.419   5.879   3.032 -0.1877  0.3333 -0.4707
  105SAPE   H6X10781   3.333   5.948   3.046  0.3261  1.1772 -1.3457
  105SAPE   H6Y10782   3.502   5.906   3.101 -0.5768  2.0812 -0.6449
  105SAPE   C3710783   3.381   5.736   3.083  0.2653 -0.1119 -0.4485
  105SAPE   H7X10784   3.453   5.653   3.066  1.2315 -0.3539  3.8633
  105SAPE   H7Y10785   3.292   5.707   3.023 -0.2194  0.4266  0.0073
  105SAPE   C3810786   3.334   5.729   3.234 -0.1557 -0.7874 -0.3315
  105SAPE   H8X10787   3.250   5.802   3.240 -0.0371 -0.6717 -0.0415
  105SAPE   H8Y10788   3.411   5.775   3.300 -0.4502 -1.8642  0.8040
  105SAPE   C3910789   3.305   5.591   3.285 -0.0680  0.5898  0.0347
  105SAPE   H9X10790   3.384   5.516   3.262 -1.7339 -1.7009  1.3182
  105SAPE   H9Y10791   3.210   5.557   3.238 -0.1050  2.0706 -1.0327
  105SAPE  C31010792   3.294   5.584   3.437  0.3404 -1.2624  0.0364
  105SAPE  H10X10793   3.219   5.509   3.469 -1.2133 -0.1050 -0.7473
  105SAPE  H10Y10794   3.256   5.684   3.465  0.1606 -0.0741 -3.8362
  105SAPE  C31110795   3.429   5.555   3.511 -0.0028  0.2057 -0.5426
  105SAPE  H11X10796   3.502   5.637   3.500  0.0593  0.0339 -1.5343
  105SAPE  H11Y10797   3.470   5.454   3.487  0.1947  0.1491  0.0219
  105SAPE  C31210798   3.410   5.545   3.666 -0.0247 -0.4007  0.6659
  105SAPE  H12X10799   3.357   5.642   3.679 -1.9119 -1.5457  2.0341
  105SAPE  H12Y10800   3.514   5.541   3.703  0.4941  1.0283 -0.5225
  105SAPE  C31310801   3.314   5.444   3.732 -0.4416  0.6330 -0.1078
  105SAPE  H13X10802   3.360   5.344   3.719 -1.5552  0.2745 -1.7024
  105SAPE  H13Y10803   3.205   5.448   3.709 -0.2926  1.1401 -0.7670
  105SAPE  C31410804   3.308   5.472   3.884  0.3060  0.1214  0.0207
  105SAPE  H14X10805   3.234   5.553   3.899  1.1737  0.8296  0.5452
  105SAPE  H14Y10806   3.404   5.514   3.920  1.3179  0.5084 -2.9094
  105SAPE  C31510807   3.269   5.346   3.958 -0.5681 -0.1852 -0.1721
  105SAPE  H15X10808   3.308   5.253   3.913  1.3839  0.4408  0.1339
  105SAPE  H15Y10809   3.158   5.345   3.963 -0.6100  2.1926  1.5559
  105SAPE  C31610810   3.309   5.366   4.105  1.0935 -0.1522 -0.3017
  105SAPE  H16X10811   3.260   5.457   4.147  0.2252 -0.1478 -1.3042
  105SAPE  H16Y10812   3.417   5.391   4.110  1.2955 -0.9976 -0.3011
  105SAPE  C31710813   3.280   5.244   4.197 -0.6614  0.3390  0.8221
  105SAPE  H17X10814   3.169   5.241   4.204 -1.0731  2.0851 -2.8061
  105SAPE  H17Y10815   3.322   5.262   4.298  1.3294 -3.0502  0.7505
  105SAPE  C31810816   3.334   5.112   4.147 -0.1261  0.1938  0.4671
  105SAPE  H18X10817   3.288   5.082   4.050  0.3719  0.4511  0.1467
  105SAPE  H18Y10818   3.305   5.029   4.216 -0.7279  1.4108  1.7289
  105SAPE  H18Z10819   3.444   5.106   4.137 -0.1881  0.5260 -0.5006
  106SAPE     N10820   3.707   0.594   1.537 -0.5614 -0.8117 -0.3458
  106SAPE   HN110821   3.730   0.519   1.605 -0.7228 -0.0362  0.5916
  106SAPE   HN210822   3.607   0.591   1.508 -0.7015  0.8258 -0.1664
  106SAPE   HN310823   3.768   0.577   1.455 -0.3112  1.2281 -0.6520
  106SAPE   C1210824   3.736   0.725   1.608  0.2726  0.2332 -0.3897
  106SAPE  H12A10825   3.697   0.800   1.535 -2.6545  0.0164  0.8089
  106SAPE  H12B10826   3.844   0.745   1.626 -0.5292  2.1876  3.0743
  106SAPE   C1110827   3.649   0.739   1.729  0.6756 -0.1359 -0.4523
  106SAPE  H11A10828   3.661   0.840   1.773  0.4871 -0.5318  0.5440
  106SAPE  H11B10829   3.690   0.661   1.797  0.8285  0.5323  0.2375
  106SAPE     P10830   3.405   0.736   1.815  0.0141  0.3583 -0.2630
  106SAPE   O1310831   3.381   0.880   1.831 -0.3022  0.0088  0.2187
  106SAPE   O1410832   3.281   0.650   1.794  0.1251  0.1816 -0.5699
  106SAPE   O1210833   3.509   0.717   1.697 -0.5595  0.5099 -0.7571
  106SAPE   O1110834   3.481   0.683   1.946 -0.3604 -0.3378 -0.2305
  106SAPE    C110835   3.506   0.536   1.953  0.8494  0.0324 -0.1217
  106SAPE    HA10836   3.524   0.493   1.852 -0.8307 -0.4331 -0.2501
  106SAPE    HB10837   3.598   0.510   2.011  2.0505 -1.4984 -2.5482
  106SAPE    C210838   3.386   0.460   2.017  0.5522  0.2504 -0.1074
  106SAPE    HS10839   3.301   0.442   1.947  0.8829 -5.1362  0.4549
  106SAPE   O2110840   3.332   0.525   2.133 -0.2876 -0.0382  0.3492
  106SAPE   C2110841   3.223   0.477   2.192  0.1705  0.4774 -0.0546
  106SAPE   O2210842   3.157   0.379   2.143 -0.0532 -0.5790  0.4082
  106SAPE   C2210843   3.180   0.561   2.314 -0.7984 -0.0232 -0.0637
  106SAPE   H2R10844   3.273   0.598   2.361  0.5168 -2.2839 -0.7584
  106SAPE   H2S10845   3.137   0.654   2.272 -0.1071  0.0312 -0.6558
  106SAPE    C310846   3.431   0.312   2.046 -0.5037 -0.1277  0.2835
  106SAPE    HX10847   3.485   0.279   1.954  3.2244  1.4723  1.7399
  106SAPE    HY10848   3.352   0.236   2.068 -0.3599  0.1929  1.9663
  106SAPE   O3110849   3.534   0.327   2.151 -0.0386  0.0571  0.3861
  106SAPE   C3110850   3.500   0.282   2.275  0.0682 -0.0558 -0.4324
  106SAPE   O3210851   3.395   0.226   2.301 -0.3326  0.6898  0.0211
  106SAPE   C3210852   3.603   0.329   2.382 -0.2114 -0.1809 -0.1810
  106SAPE   H2X10853   3.548   0.402   2.444 -1.4056 -1.5187  0.4076
  106SAPE   H2Y10854   3.691   0.375   2.332 -1.7277  0.7726 -2.0601
  106SAPE   C2310855   3.090   0.483   2.410 -0.5949  0.1702  0.1315
  106SAPE   H3R10856   3.142   0.389   2.434 -0.1098  0.0547 -1.3226
  106SAPE   H3S10857   2.987   0.459   2.374 -0.8394  1.3816 -0.0581
  106SAPE   C2410858   3.054   0.563   2.535 -0.1467  0.3804 -0.1162
  106SAPE   H4R10859   2.975   0.511   2.594  2.0439 -1.7552  1.1274
  106SAPE   H4S10860   3.019   0.665   2.510 -1.1424 -0.1952 -1.1548
  106SAPE   C2510861   3.178   0.573   2.613 -0.0818  0.3160  0.2151
  106SAPE   H5R10862   3.228   0.669   2.592 -1.4790  1.1916  0.7595
  106SAPE   C2610863   3.220   0.485   2.703 -0.2860 -0.7562 -0.3860
  106SAPE   H6R10864   3.304   0.510   2.769  1.0264 -0.1659 -2.1817
  106SAPE   C2710865   3.141   0.370   2.762  0.1071 -0.2111  1.0411
  106SAPE   H7R10866   3.205   0.281   2.776 -1.1939 -1.0341  1.9998
  106SAPE   H7S10867   3.062   0.351   2.685  0.9191  2.7373 -0.6729
  106SAPE   C2810868   3.076   0.417   2.890 -0.1423  0.5978  0.0821
  106SAPE   H8R10869   3.013   0.507   2.878 -0.3881  0.2219 -1.7673
  106SAPE   C2910870   3.092   0.364   3.008 -0.3299  0.1476 -0.8209
  106SAPE   H9R10871   3.035   0.408   3.091  2.1082 -0.6755  1.4555
  106SAPE  C21010872   3.171   0.236   3.043  0.7437 -0.1111  0.2269
  106SAPE  H10R10873   3.238   0.268   3.126  1.1143 -2.1852  0.7879
  106SAPE  H10S10874   3.237   0.200   2.962 -0.5027  1.8234 -1.7579
  106SAPE  C21110875   3.093   0.121   3.097  0.4859 -0.1452 -0.7649
  106SAPE  H11R10876   3.012   0.097   3.026 -0.4375  0.6744 -0.0210
  106SAPE  C21210877   3.133   0.031   3.196 -0.1534  0.0900 -0.2400
  106SAPE  H12R10878   3.062  -0.050   3.215 -0.5790  0.4893 -0.0988
  106SAPE  C21310879   3.256   0.058   3.280  0.1055 -0.0534  0.7463
  106SAPE  H13R10880   3.281   0.166   3.284  0.7422  0.3529 -5.2480
  106SAPE  H13S10881   3.344   0.008   3.232  0.6211 -0.7107  2.3089
  106SAPE  C21410882   3.250  -0.008   3.407 -0.1177 -0.4276 -0.0004
  106SAPE  H14R10883   3.249  -0.118   3.412 -1.3167 -0.3996  1.0075
  106SAPE  C21510884   3.242   0.049   3.523  0.6592 -0.2575 -0.3382
  106SAPE  H15R10885   3.227  -0.020   3.607 -0.9336  0.4569  0.0151
  106SAPE  C21610886   3.234   0.196   3.557  0.5667 -0.1217 -0.4866
  106SAPE  H16R10887   3.238   0.262   3.468  3.8891  0.0006 -0.3514
  106SAPE  H16S10888   3.311   0.215   3.635 -1.9414 -1.2054  2.4570
  106SAPE  C21710889   3.112   0.241   3.647 -0.3703  0.0892  0.5311
  106SAPE  H17R10890   3.087   0.166   3.725 -2.5151 -0.1353 -0.2895
  106SAPE  H17S10891   3.024   0.250   3.580 -1.0195 -0.1674  1.3369
  106SAPE  C21810892   3.130   0.382   3.706  0.7460  0.0461 -0.3152
  106SAPE  H18R10893   3.130   0.449   3.617  0.9636 -1.3206 -1.3738
  106SAPE  H18S10894   3.220   0.394   3.771  0.3284  2.6626 -0.1051
  106SAPE  C21910895   3.021   0.426   3.797 -0.3871 -0.2864 -0.6004
  106SAPE  H19R10896   2.925   0.447   3.745 -1.1430  0.7606  1.1226
  106SAPE  H19S10897   3.046   0.530   3.826  1.0590 -0.8465  0.2529
  106SAPE  C22010898   3.002   0.335   3.919  0.2401 -0.7560 -0.3286
  106SAPE  H20R10899   3.097   0.300   3.964  0.2715  0.2359  0.4217
  106SAPE  H20S10900   2.923   0.258   3.903  0.3081 -0.9374  0.1750
  106SAPE  H20T10901   2.950   0.395   3.998 -0.9889 -0.7378 -1.1201
  106SAPE   C3310902   3.659   0.213   2.468 -0.2007 -0.3841  0.4721
  106SAPE   H3X10903   3.756   0.246   2.513  1.2081 -1.4395 -1.6105
  106SAPE   H3Y10904   3.694   0.130   2.402  2.5678 -0.1301  1.4750
  106SAPE   C3410905   3.572   0.172   2.578 -0.3666  0.1569 -1.0237
  106SAPE   H4X10906   3.603   0.073   2.616 -2.7692 -0.4017 -0.3456
  106SAPE   H4Y10907   3.466   0.171   2.547 -1.4504 -0.4327  2.2457
  106SAPE   C3510908   3.563   0.259   2.701 -0.0194 -0.2938 -0.9847
  106SAPE   H5X10909   3.479   0.331   2.692 -0.1094 -0.3698 -0.7632
  106SAPE   H5Y10910   3.656   0.317   2.723 -1.2821  1.3518  0.2777
  106SAPE   C3610911   3.537   0.188   2.839 -0.2395  0.2747  0.2717
  106SAPE   H6X10912   3.607   0.102   2.836 -0.5155  0.0654 -0.4108
  106SAPE   H6Y10913   3.438   0.138   2.830 -0.8178  0.7264  3.0632
  106SAPE   C3710914   3.555   0.274   2.961 -0.3961 -0.7678  1.0542
  106SAPE   H7X10915   3.482   0.358   2.953 -0.4627 -0.8577  0.6759
  106SAPE   H7Y10916   3.654   0.323   2.946 -1.3974  1.1379  0.2838
  106SAPE   C3810917   3.573   0.206   3.098  0.1629 -0.4274 -0.4778
  106SAPE   H8X10918   3.652   0.130   3.083  0.9713  0.7662 -2.7350
  106SAPE   H8Y10919   3.483   0.149   3.129 -0.1956  0.7766  0.8434
  106SAPE   C3910920   3.604   0.316   3.205 -0.7890  0.2618 -0.0561
  106SAPE   H9X10921   3.505   0.360   3.229 -1.2856 -1.5154  1.3479
  106SAPE   H9Y10922   3.673   0.390   3.159  0.4986 -0.7447  0.1896
  106SAPE  C31010923   3.656   0.260   3.335 -0.1022 -0.4641  0.1868
  106SAPE  H10X10924   3.740   0.186   3.335 -0.0650 -0.4966  2.1423
  106SAPE  H10Y10925   3.574   0.198   3.377  0.9923 -1.4153  1.0090
  106SAPE  C31110926   3.692   0.368   3.441 -0.1820  0.4391  0.8716
  106SAPE  H11X10927   3.607   0.439   3.443  0.7978  1.6701  0.5180
  106SAPE  H11Y10928   3.776   0.438   3.422 -1.9499  2.8016  1.3641
  106SAPE  C31210929   3.706   0.311   3.582 -0.4128 -0.1060 -0.2726
  106SAPE  H12X10930   3.796   0.248   3.599 -0.3961  0.6411  3.2000
  106SAPE  H12Y10931   3.608   0.261   3.596 -0.8042  0.3932 -1.1057
  106SAPE  C31310932   3.710   0.412   3.692 -0.3369 -0.4734  0.1235
  106SAPE  H13X10933   3.633   0.490   3.672 -1.8713 -1.8201  0.5779
  106SAPE  H13Y10934   3.807   0.466   3.695 -1.1658  1.0603  2.4188
  106SAPE  C31410935   3.692   0.352   3.828  0.3857 -0.8093 -0.9013
  106SAPE  H14X10936   3.700   0.439   3.896  0.4515 -0.5859 -1.1921
  106SAPE  H14Y10937   3.778   0.286   3.854 -0.0318 -1.4338 -1.0852
  106SAPE  C31510938   3.559   0.284   3.842 -0.1785  0.5385  0.0351
  106SAPE  H15X10939   3.553   0.193   3.777  2.3427 -0.3356  0.9155
  106SAPE  H15Y10940   3.480   0.357   3.815 -0.0937  0.8910  0.7331
  106SAPE  C31610941   3.544   0.221   3.985 -0.0174 -0.2029  0.3945
  106SAPE  H16X10942   3.576   0.290   4.066  0.8974 -0.7447  0.5064
  106SAPE  H16Y10943   3.595   0.124   3.998 -0.5882 -0.3544  1.6217
  106SAPE  C31710944   3.398   0.203   4.017  0.5851  0.7246  0.2012
  106SAPE  H17X10945   3.346   0.300   4.004 -1.2114 -0.2154  0.0680
  106SAPE  H17Y10946   3.384   0.166   4.121 -0.8647 -2.0290 -0.8382
  106SAPE  C31810947   3.320   0.094   3.934  0.7401  0.9031 -0.1708
  106SAPE  H18X10948   3.230   0.053   3.986 -0.8122  1.8479 -2.0257
  106SAPE  H18Y10949   3.389   0.007   3.925 -2.1295 -1.5470  0.0386
  106SAPE  H18Z10950   3.282   0.145   3.844 -0.9513  1.4123  0.7759
  107SAPE     N10951   6.675   0.350   2.284 -0.0044 -0.0332 -0.0559
  107SAPE   HN110952   6.652   0.451   2.296  0.9442 -0.0075  1.8583
  107SAPE   HN210953   6.593   0.295   2.252 -0.0624  0.9157 -1.6451
  107SAPE   HN310954   6.692   0.321   2.382 -1.3030 -0.8511 -0.0488
  107SAPE   C1210955   6.799   0.320   2.199  0.0079 -0.1097 -0.3937
  107SAPE  H12A10956   6.866   0.408   2.201 -1.3405  0.9284  0.4923
  107SAPE  H12B10957   6.753   0.303   2.099 -0.5474 -0.9680 -0.0066
  107SAPE   C1110958   6.862   0.184   2.236  0.8007  0.0818 -0.2780
  107SAPE  H11A10959   6.929   0.193   2.324 -0.0178  0.1219  0.3468
  107SAPE  H11B10960   6.920   0.146   2.149  1.2542 -0.5145  0.2832
  107SAPE     P10961   6.789  -0.064   2.286 -0.1080  0.0398 -0.0647
  107SAPE   O1310962   6.798  -0.134   2.160 -0.2873 -0.5149 -0.5828
  107SAPE   O1410963   6.899  -0.085   2.383 -0.0875 -0.4864 -0.2348
  107SAPE   O1210964   6.759   0.087   2.268  0.0687 -0.1791 -0.3053
  107SAPE   O1110965   6.665  -0.136   2.351  0.3333 -0.4824 -0.0742
  107SAPE    C110966   6.572  -0.059   2.429  0.0783 -0.0631  0.0886
  107SAPE    HA10967   6.533   0.029   2.373 -3.4075 -1.2599  0.3897
  107SAPE    HB10968   6.478  -0.114   2.448  0.1356  0.1054  0.8810
  107SAPE    C210969   6.622  -0.021   2.563 -0.2765 -0.1410  0.4384
  107SAPE    HS10970   6.717   0.034   2.550 -1.3143  2.0517  1.7093
  107SAPE   O2110971   6.643  -0.146   2.634 -0.1642 -0.1413  0.8351
  107SAPE   C2110972   6.750  -0.149   2.721  0.0804  0.1201 -0.1937
  107SAPE   O2210973   6.823  -0.060   2.747 -0.0382 -0.2189  0.1917
  107SAPE   C2210974   6.747  -0.288   2.793  0.4170 -0.3862 -0.3990
  107SAPE   H2R10975   6.642  -0.326   2.788  0.0409  0.1057  2.2607
  107SAPE   H2S10976   6.822  -0.357   2.749  1.5659 -0.1587  1.1330
  107SAPE    C310977   6.521   0.074   2.647 -0.4918  0.3055  0.3813
  107SAPE    HX10978   6.419   0.029   2.643  0.0400 -1.1258  2.0226
  107SAPE    HY10979   6.528   0.170   2.591  1.5165  1.7683  2.9380
  107SAPE   O3110980   6.554   0.073   2.795  0.7437  0.4123  0.3262
  107SAPE   C3110981   6.507   0.185   2.852  0.3888  0.5725  0.1361
  107SAPE   O3210982   6.438   0.266   2.797 -0.4427 -0.8976 -0.0574
  107SAPE   C3210983   6.554   0.178   2.990 -0.3375  0.2207 -0.9585
  107SAPE   H2X10984   6.652   0.231   2.987 -0.7969  1.1687 -0.0141
  107SAPE   H2Y10985   6.570   0.072   3.020  1.5902  1.1781  1.8225
  107SAPE   C2310986   6.801  -0.288   2.935 -0.2249  0.4417 -0.6782
  107SAPE   H3R10987   6.900  -0.241   2.920 -0.3805 -0.0565 -4.2067
  107SAPE   H3S10988   6.818  -0.385   2.986 -0.7497  0.1404 -1.0627
  107SAPE   C2410989   6.721  -0.197   3.034 -0.1540  0.5716 -0.6116
  107SAPE   H4R10990   6.689  -0.103   2.984 -0.0157  0.3907 -1.0418
  107SAPE   H4S10991   6.778  -0.178   3.128  0.9902 -0.4856 -1.0669
  107SAPE   C2510992   6.593  -0.274   3.070  0.2980  0.3770 -0.2067
  107SAPE   H5R10993   6.503  -0.260   3.008  0.2392  1.8114  0.1702
  107SAPE   C2610994   6.584  -0.366   3.166 -0.7003  0.1123 -1.2760
  107SAPE   H6R10995   6.486  -0.413   3.186 -1.4124  1.8238 -0.4949
  107SAPE   C2710996   6.689  -0.392   3.279  0.2985  0.8793 -0.0315
  107SAPE   H7R10997   6.698  -0.298   3.337 -2.7837  1.1460  0.1570
  107SAPE   H7S10998   6.787  -0.410   3.230  0.4004 -0.7288  0.6982
  107SAPE   C2810999   6.654  -0.513   3.362  0.3815 -0.1989 -0.2964
  107SAPE   H8R11000   6.713  -0.604   3.344 -0.8807 -1.3467  1.1098
  107SAPE   C2911001   6.548  -0.515   3.441  0.1226  0.6049 -0.1784
  107SAPE   H9R11002   6.548  -0.600   3.512 -0.6020  1.2945  0.6702
  107SAPE  C21011003   6.458  -0.402   3.482 -0.0977  0.1917 -0.4844
  107SAPE  H10R11004   6.509  -0.304   3.472  1.8513 -0.7909 -0.6785
  107SAPE  H10S11005   6.439  -0.421   3.590  0.4626  2.0051 -0.0329
  107SAPE  C21111006   6.328  -0.396   3.408 -1.2053 -0.1247 -0.0925
  107SAPE  H11R11007   6.332  -0.359   3.304 -0.7398 -0.5917 -0.2418
  107SAPE  C21211008   6.210  -0.429   3.455 -0.4492  0.2805  0.0001
  107SAPE  H12R11009   6.130  -0.378   3.400  0.5021  0.9037 -0.8603
  107SAPE  C21311010   6.191  -0.482   3.595  0.0037  0.1422  0.2943
  107SAPE  H13R11011   6.265  -0.563   3.615 -0.5359 -0.7181 -1.0832
  107SAPE  H13S11012   6.092  -0.533   3.598 -0.8364  1.7358  0.6822
  107SAPE  C21411013   6.202  -0.392   3.717  0.2355 -0.2319 -0.0360
  107SAPE  H14R11014   6.157  -0.294   3.696  0.2961  0.0028  0.8843
  107SAPE  C21511015   6.255  -0.421   3.837 -0.0884  0.4899  0.1342
  107SAPE  H15R11016   6.234  -0.352   3.920 -2.5373 -1.3405  1.1631
  107SAPE  C21611017   6.317  -0.556   3.877  0.8497 -0.2485  0.1115
  107SAPE  H16R11018   6.428  -0.558   3.863  1.0779 -0.3648  1.7442
  107SAPE  H16S11019   6.278  -0.631   3.806  1.5184  1.1575 -1.8402
  107SAPE  C21711020   6.297  -0.600   4.027 -0.0985 -0.4001  0.5618
  107SAPE  H17R11021   6.323  -0.708   4.024  1.9071  0.0299  0.9670
  107SAPE  H17S11022   6.192  -0.588   4.060 -0.9208 -2.3134 -1.1106
  107SAPE  C21811023   6.377  -0.514   4.121  0.5090  0.0197 -0.3421
  107SAPE  H18R11024   6.349  -0.407   4.113  0.5310  0.1822  1.2998
  107SAPE  H18S11025   6.487  -0.522   4.108  0.5134  1.3040 -1.2629
  107SAPE  C21911026   6.367  -0.547   4.274  0.3742 -0.5488  0.4142
  107SAPE  H19R11027   6.422  -0.641   4.295  1.5504 -0.2484 -1.1693
  107SAPE  H19S11028   6.264  -0.581   4.296 -0.1643  0.0725 -1.0621
  107SAPE  C22011029   6.408  -0.435   4.373 -0.5034 -0.1286  0.0109
  107SAPE  H20R11030   6.344  -0.347   4.351  1.2993  1.0288 -0.8395
  107SAPE  H20S11031   6.513  -0.397   4.365 -0.4731 -0.5391 -2.3392
  107SAPE  H20T11032   6.389  -0.469   4.477  1.6813  0.1999  0.5746
  107SAPE   C3311033   6.465   0.249   3.092 -0.9072  0.0623  0.0494
  107SAPE   H3X11034   6.357   0.224   3.103 -0.8457  0.0987  0.8318
  107SAPE   H3Y11035   6.455   0.355   3.060 -0.7363  0.0414 -0.0745
  107SAPE   C3411036   6.530   0.257   3.226  0.3872  0.5832  0.0783
  107SAPE   H4X11037   6.488   0.348   3.274  0.8123  0.2680  1.0597
  107SAPE   H4Y11038   6.641   0.260   3.217  0.7512 -2.5550  2.0983
  107SAPE   C3511039   6.520   0.127   3.310 -0.5571 -1.2254 -0.7120
  107SAPE   H5X11040   6.532   0.033   3.251  1.9265 -0.1580 -2.0199
  107SAPE   H5Y11041   6.414   0.112   3.339  0.0021 -0.6781  1.8749
  107SAPE   C3611042   6.619   0.117   3.430 -0.5701 -0.4349  0.0477
  107SAPE   H6X11043   6.602   0.204   3.497  0.8325  0.6830 -0.9791
  107SAPE   H6Y11044   6.725   0.120   3.395 -0.2046 -0.1192  1.1536
  107SAPE   C3711045   6.604  -0.014   3.510  0.0448  0.1458 -0.7007
  107SAPE   H7X11046   6.645  -0.104   3.460  0.4323 -0.7488  1.1570
  107SAPE   H7Y11047   6.494  -0.029   3.518 -0.2174  2.3900  0.8155
  107SAPE   C3811048   6.672  -0.035   3.646  0.1534  0.4465  0.0801
  107SAPE   H8X11049   6.653   0.047   3.719  0.0082  1.9326 -1.5703
  107SAPE   H8Y11050   6.783  -0.029   3.637  0.1160  0.7424 -0.1953
  107SAPE   C3911051   6.635  -0.177   3.714  0.1606 -0.1202  0.4714
  107SAPE   H9X11052   6.647  -0.257   3.638 -2.7108 -1.1465  0.9845
  107SAPE   H9Y11053   6.525  -0.175   3.726 -0.0719 -1.8866 -1.0070
  107SAPE  C31011054   6.703  -0.206   3.844 -0.3158  0.6087  0.1247
  107SAPE  H10X11055   6.813  -0.199   3.839 -0.4005  1.4412 -0.7153
  107SAPE  H10Y11056   6.674  -0.311   3.870 -0.4724 -0.2718 -3.2079
  107SAPE  C31111057   6.663  -0.113   3.958 -0.1905  0.8218 -0.6219
  107SAPE  H11X11058   6.556  -0.132   3.983  0.6380 -0.7901  2.1515
  107SAPE  H11Y11059   6.675  -0.005   3.937 -0.2929  0.9150 -0.2189
  107SAPE  C31211060   6.753  -0.151   4.085  0.2157 -0.4127  0.7201
  107SAPE  H12X11061   6.857  -0.158   4.048 -0.6323  0.4921 -2.0817
  107SAPE  H12Y11062   6.732  -0.252   4.126  1.7828 -0.3583  1.7074
  107SAPE  C31311063   6.747  -0.050   4.203  0.7959  0.7063  1.0164
  107SAPE  H13X11064   6.638  -0.049   4.223  0.2216 -2.9212 -1.0065
  107SAPE  H13Y11065   6.767   0.051   4.164 -2.5689  1.3667  0.6979
  107SAPE  C31411066   6.839  -0.090   4.324 -0.3507 -0.2583 -0.9133
  107SAPE  H14X11067   6.926  -0.144   4.281 -0.6093 -0.4152 -1.2380
  107SAPE  H14Y11068   6.787  -0.159   4.394 -0.5238  1.1273  0.3943
  107SAPE  C31511069   6.885   0.034   4.415 -0.4353  0.3608  0.1249
  107SAPE  H15X11070   6.940   0.013   4.510 -0.7206  1.8167  0.6400
  107SAPE  H15Y11071   6.789   0.084   4.441 -0.9438 -1.5905  2.4696
  107SAPE  C31611072   6.988   0.121   4.334  0.0083 -0.6251  0.3951
  107SAPE  H16X11073   6.943   0.152   4.237  2.4694 -0.5920 -0.8053
  107SAPE  H16Y11074   7.083   0.065   4.316  0.8286  0.8453  0.0218
  107SAPE  C31711075   7.019   0.254   4.405 -0.3819 -0.8842  0.8616
  107SAPE  H17X11076   7.047   0.247   4.512 -2.0599 -4.4420  1.2041
  107SAPE  H17Y11077   6.924   0.309   4.396  0.6775  0.8465 -0.3528
  107SAPE  C31811078   7.130   0.332   4.332  0.1951  0.2685  0.2811
  107SAPE  H18X11079   7.120   0.348   4.223  1.5495 -0.0237  0.0926
  107SAPE  H18Y11080   7.231   0.293   4.359 -0.0018  0.1510  0.8737
  107SAPE  H18Z11081   7.133   0.434   4.375 -0.5975 -0.4711  2.1868
  108SAPE     N11082   5.597   1.639   2.372 -0.8840  0.7196 -0.6311
  108SAPE   HN111083   5.563   1.655   2.275 -0.7814  2.9345 -0.3443
  108SAPE   HN211084   5.539   1.680   2.447  1.1262  1.7286  0.4325
  108SAPE   HN311085   5.689   1.686   2.376 -1.2400  1.3418  1.1461
  108SAPE   C1211086   5.605   1.487   2.392 -0.6549 -0.1998 -0.6013
  108SAPE  H12A11087   5.606   1.446   2.288  0.2670 -2.8090  0.3342
  108SAPE  H12B11088   5.523   1.456   2.460 -1.9943  3.4182 -0.3528
  108SAPE   C1111089   5.729   1.438   2.465  0.1727  0.6055 -0.1331
  108SAPE  H11A11090   5.722   1.327   2.466 -3.3672  0.7058  1.1333
  108SAPE  H11B11091   5.708   1.468   2.570  0.5923 -0.1284  0.1733
  108SAPE     P11092   5.950   1.408   2.328 -0.1000 -0.1516 -0.2562
  108SAPE   O1311093   5.879   1.351   2.212  0.0263 -0.1131  0.2027
  108SAPE   O1411094   6.068   1.494   2.313  0.6961  0.0084  0.2473
  108SAPE   O1211095   5.847   1.491   2.413 -0.1948  0.3809 -0.1680
  108SAPE   O1111096   5.975   1.295   2.437 -0.9420  0.2049  0.4801
  108SAPE    C111097   6.037   1.327   2.560 -0.1352 -0.6722  0.7635
  108SAPE    HA11098   6.042   1.437   2.577 -2.5503 -0.0968 -1.6035
  108SAPE    HB11099   5.977   1.291   2.647  0.6865  1.4457  2.3236
  108SAPE    C211100   6.172   1.245   2.577 -0.5244  0.3823  0.0253
  108SAPE    HS11101   6.227   1.285   2.489 -2.2734  0.7429 -0.9501
  108SAPE   O2111102   6.164   1.100   2.561 -0.3146  0.4579 -0.7283
  108SAPE   C2111103   6.271   1.037   2.513 -0.2014 -0.3480  0.5660
  108SAPE   O2211104   6.371   1.099   2.484 -0.3066  0.4476 -0.1121
  108SAPE   C2211105   6.263   0.882   2.514 -0.2217 -0.1058  0.0729
  108SAPE   H2R11106   6.264   0.853   2.407  0.6306 -2.5843  0.6806
  108SAPE   H2S11107   6.356   0.842   2.560 -0.0900 -0.8302 -0.8107
  108SAPE    C311108   6.241   1.288   2.706 -0.3570 -0.0757 -0.2892
  108SAPE    HX11109   6.267   1.395   2.693  1.3170 -0.3216  0.7474
  108SAPE    HY11110   6.335   1.229   2.713 -0.0102  0.6334  1.5285
  108SAPE   O3111111   6.159   1.277   2.828  0.6830 -0.0560 -0.2843
  108SAPE   C3111112   6.199   1.193   2.920 -0.1652 -0.5409 -0.2941
  108SAPE   O3211113   6.318   1.162   2.928  0.0466  0.2809 -0.4629
  108SAPE   C3211114   6.089   1.159   3.021 -0.3800  0.0362  0.8950
  108SAPE   H2X11115   6.030   1.074   2.981  0.0153  0.2533 -0.1791
  108SAPE   H2Y11116   6.011   1.239   3.017  0.1435  0.6842  2.6013
  108SAPE   C2311117   6.150   0.815   2.598 -0.2500 -0.1070  0.5911
  108SAPE   H3R11118   6.150   0.704   2.585  1.1079 -0.1779  1.0338
  108SAPE   H3S11119   6.054   0.848   2.553 -0.2255 -1.1638 -0.2678
  108SAPE   C2411120   6.153   0.838   2.752  0.6742  0.1833  0.1216
  108SAPE   H4R11121   6.055   0.813   2.796  1.2094 -0.3429  1.0472
  108SAPE   H4S11122   6.162   0.947   2.773 -0.2732  0.9154 -2.7906
  108SAPE   C2511123   6.256   0.763   2.828  0.4058 -0.1274 -0.2832
  108SAPE   H5R11124   6.358   0.803   2.824  0.5517 -0.2979  1.0566
  108SAPE   C2611125   6.241   0.662   2.912 -0.3692 -0.1849  0.0650
  108SAPE   H6R11126   6.334   0.620   2.953  0.1718 -0.3863 -1.3081
  108SAPE   C2711127   6.112   0.588   2.942 -0.0966 -0.8747 -0.0725
  108SAPE   H7R11128   6.070   0.540   2.851 -1.0610 -1.9326  0.8946
  108SAPE   H7S11129   6.038   0.667   2.965  1.7046  1.6747 -2.3218
  108SAPE   C2811130   6.120   0.502   3.065  0.5907  0.2234  0.3633
  108SAPE   H8R11131   6.157   0.401   3.040  1.3346  0.2547  1.2936
  108SAPE   C2911132   6.111   0.542   3.194  0.4642  0.6027  0.0803
  108SAPE   H9R11133   6.126   0.464   3.270  0.1396 -0.6322 -1.0841
  108SAPE  C21011134   6.073   0.680   3.252  0.3261 -0.0390  1.0768
  108SAPE  H10R11135   5.963   0.683   3.271  0.3273 -0.5348  1.1684
  108SAPE  H10S11136   6.098   0.762   3.182 -1.7209  1.4953  2.0333
  108SAPE  C21111137   6.129   0.694   3.384 -0.2305 -0.0132 -0.0800
  108SAPE  H11R11138   6.226   0.746   3.381 -0.1081 -0.2547 -0.3851
  108SAPE  C21211139   6.073   0.654   3.500  0.1027 -0.9596 -0.1141
  108SAPE  H12R11140   6.122   0.669   3.597  2.2146 -2.3053 -0.9107
  108SAPE  C21311141   5.948   0.572   3.511  0.2889  0.1753 -0.4374
  108SAPE  H13R11142   5.970   0.477   3.564  0.0011  0.5916  0.4602
  108SAPE  H13S11143   5.895   0.552   3.416 -2.0058  0.5560  0.6908
  108SAPE  C21411144   5.855   0.653   3.597 -0.1967  0.6033 -0.2964
  108SAPE  H14R11145   5.814   0.745   3.554 -0.0962 -0.2862 -2.3901
  108SAPE  C21511146   5.812   0.608   3.716  0.0548  0.8525 -0.3829
  108SAPE  H15R11147   5.741   0.668   3.775 -0.2879 -0.2646  0.3795
  108SAPE  C21611148   5.860   0.483   3.797  0.3635  0.3145 -0.1009
  108SAPE  H16R11149   5.906   0.405   3.733 -0.8212  0.7961 -1.5985
  108SAPE  H16S11150   5.787   0.450   3.873 -1.8708 -0.2804 -2.3599
  108SAPE  C21711151   5.989   0.523   3.863 -0.2688 -0.5876 -0.4728
  108SAPE  H17R11152   5.953   0.610   3.923 -1.0428  0.1392 -1.9410
  108SAPE  H17S11153   6.076   0.554   3.801 -1.0228  2.4372 -0.2187
  108SAPE  C21811154   6.034   0.418   3.964  0.1886  0.2493 -0.2124
  108SAPE  H18R11155   6.101   0.346   3.914 -1.6735 -0.3478 -1.9828
  108SAPE  H18S11156   5.949   0.359   4.005  0.0560 -1.7609 -3.1098
  108SAPE  C21911157   6.117   0.471   4.083  0.0164  0.1277  0.6306
  108SAPE  H19R11158   6.059   0.555   4.127 -2.3784 -1.3695  0.4508
  108SAPE  H19S11159   6.210   0.522   4.049 -0.9942  1.8812  0.3964
  108SAPE  C22011160   6.134   0.369   4.195 -0.1662 -0.5223  0.3575
  108SAPE  H20R11161   6.169   0.435   4.276 -0.9320  0.7031 -0.2825
  108SAPE  H20S11162   6.200   0.284   4.165 -0.0246 -0.6485  1.0197
  108SAPE  H20T11163   6.036   0.333   4.233 -0.7973 -0.5325 -1.1828
  108SAPE   C3311164   6.141   1.141   3.165  0.6486 -0.3996 -0.4785
  108SAPE   H3X11165   6.216   1.219   3.192 -1.1624  0.8611  1.1286
  108SAPE   H3Y11166   6.195   1.045   3.179  0.8500 -0.1538  0.5297
  108SAPE   C3411167   6.027   1.141   3.273 -0.8441  0.8455 -0.5941
  108SAPE   H4X11168   5.965   1.054   3.244 -1.2519  1.5610 -1.9810
  108SAPE   H4Y11169   5.958   1.228   3.269 -0.6283  1.0464 -0.0410
  108SAPE   C3511170   6.084   1.098   3.413  0.6895 -0.3194  0.5052
  108SAPE   H5X11171   6.164   1.022   3.402  0.6046 -0.7682  2.5489
  108SAPE   H5Y11172   6.133   1.184   3.463 -1.6714  1.3454  0.1296
  108SAPE   C3611173   5.976   1.047   3.518 -0.6829  0.0228 -0.3871
  108SAPE   H6X11174   5.945   0.949   3.476  1.7789 -1.7252  1.5682
  108SAPE   H6Y11175   5.896   1.123   3.527 -0.0687  0.6565 -0.1713
  108SAPE   C3711176   6.031   1.021   3.667 -0.0964  0.0618 -0.8606
  108SAPE   H7X11177   6.087   1.110   3.704  0.9199 -0.6581 -0.5939
  108SAPE   H7Y11178   6.103   0.935   3.660  1.0421  0.5409  2.7910
  108SAPE   C3811179   5.920   0.989   3.765 -0.3102 -0.4429  0.1077
  108SAPE   H8X11180   5.867   0.908   3.712  0.5889 -1.2935  0.4766
  108SAPE   H8Y11181   5.851   1.076   3.766 -0.1710 -0.3215  1.6234
  108SAPE   C3911182   5.957   0.973   3.915  0.0330  0.3778 -0.2514
  108SAPE   H9X11183   6.001   1.071   3.943 -0.6606  0.3415  1.0322
  108SAPE   H9Y11184   6.033   0.891   3.915  1.0829  1.2855  1.6115
  108SAPE  C31011185   5.826   0.943   3.995 -0.5187  0.1648 -0.4311
  108SAPE  H10X11186   5.784   0.850   3.950 -0.1852  0.6894 -1.9006
  108SAPE  H10Y11187   5.757   1.029   3.983 -0.2845  0.3841 -0.2103
  108SAPE  C31111188   5.843   0.929   4.142  0.1430 -0.0410 -0.1112
  108SAPE  H11X11189   5.859   1.028   4.191 -0.0653  0.6147 -1.3394
  108SAPE  H11Y11190   5.930   0.871   4.180  0.8420  0.4415 -0.9233
  108SAPE  C31211191   5.720   0.855   4.190 -0.0634 -0.3061 -0.2637
  108SAPE  H12X11192   5.630   0.907   4.150  0.0592 -0.0276 -0.1734
  108SAPE  H12Y11193   5.719   0.871   4.300 -3.3068 -0.2799 -0.1798
  108SAPE  C31311194   5.734   0.706   4.160  0.0259 -0.0668  0.0668
  108SAPE  H13X11195   5.823   0.658   4.206 -0.7934 -3.5690 -1.6476
  108SAPE  H13Y11196   5.740   0.683   4.051 -1.2718 -1.2472  0.2176
  108SAPE  C31411197   5.603   0.625   4.201  0.0410  0.3395 -0.2711
  108SAPE  H14X11198   5.511   0.681   4.174 -1.5269 -1.8289  0.2803
  108SAPE  H14Y11199   5.600   0.617   4.312  0.1674  1.2589 -0.1986
  108SAPE  C31511200   5.593   0.486   4.129 -0.1579 -0.9258  0.0120
  108SAPE  H15X11201   5.622   0.490   4.022 -1.8305  2.0144 -0.4348
  108SAPE  H15Y11202   5.485   0.465   4.137 -0.4846 -0.5158 -2.6598
  108SAPE  C31611203   5.678   0.377   4.200 -0.1318 -0.3713 -0.3266
  108SAPE  H16X11204   5.649   0.383   4.307 -2.9325 -0.5856 -1.0001
  108SAPE  H16Y11205   5.782   0.403   4.174 -0.1116 -1.4140 -1.3902
  108SAPE  C31711206   5.664   0.235   4.148  0.3560  0.2051  0.1388
  108SAPE  H17X11207   5.662   0.254   4.039 -1.8683  0.2725  0.1486
  108SAPE  H17Y11208   5.563   0.206   4.184  0.5983 -0.7298  0.0837
  108SAPE  C31811209   5.776   0.152   4.210  0.0319  0.4352 -0.0057
  108SAPE  H18X11210   5.771   0.042   4.199  3.4696  0.0068  1.3948
  108SAPE  H18Y11211   5.806   0.173   4.315 -0.9860 -0.0468  0.3873
  108SAPE  H18Z11212   5.868   0.167   4.148 -1.7410 -0.0242 -2.9314
  109SAPE     N11213   4.412   3.733   2.328  0.6267 -0.4788 -0.7611
  109SAPE   HN111214   4.399   3.799   2.249  0.1378 -1.1879 -1.2926
  109SAPE   HN211215   4.384   3.765   2.423  1.4259  1.3899 -1.1178
  109SAPE   HN311216   4.511   3.702   2.334  1.3735  2.0061  1.4956
  109SAPE   C1211217   4.347   3.604   2.299  0.0411 -0.0784 -0.5122
  109SAPE  H12A11218   4.395   3.554   2.212 -0.3969 -3.6695  1.1295
  109SAPE  H12B11219   4.241   3.624   2.274 -0.0181  0.1893 -0.0581
  109SAPE   C1111220   4.360   3.508   2.423  0.1921  0.1578 -0.0363
  109SAPE  H11A11221   4.321   3.406   2.402 -1.8906  0.5019  1.7750
  109SAPE  H11B11222   4.294   3.549   2.502  1.1488  2.5518 -0.3911
  109SAPE     P11223   4.590   3.381   2.475 -0.2446 -0.0938 -0.1963
  109SAPE   O1311224   4.546   3.299   2.354  0.2971  0.3724 -0.1575
  109SAPE   O1411225   4.732   3.437   2.476 -0.0169  1.0555 -0.0655
  109SAPE   O1211226   4.491   3.505   2.477 -0.4970  0.8734 -0.2707
  109SAPE   O1111227   4.580   3.291   2.615  0.0059 -0.5332 -0.0671
  109SAPE    C111228   4.577   3.357   2.740 -1.0525 -0.1822  0.1341
  109SAPE    HA11229   4.630   3.282   2.803 -1.1550  1.1561  1.8874
  109SAPE    HB11230   4.634   3.452   2.743 -2.2233  0.5549 -0.5384
  109SAPE    C211231   4.443   3.378   2.799  0.0128 -0.1103  0.0802
  109SAPE    HS11232   4.412   3.480   2.766  0.9898  1.2962  3.0982
  109SAPE   O2111233   4.450   3.368   2.945 -0.3149 -0.1372  0.2676
  109SAPE   C2111234   4.475   3.489   2.994 -0.1822 -0.5951 -0.0207
  109SAPE   O2211235   4.515   3.589   2.934  0.4410 -0.2198  0.4912
  109SAPE   C2211236   4.442   3.494   3.139  0.4443  0.1665  0.3397
  109SAPE   H2R11237   4.336   3.462   3.147  0.7964 -0.7501  1.8705
  109SAPE   H2S11238   4.514   3.428   3.192 -0.0014 -1.3835 -0.8996
  109SAPE    C311239   4.344   3.278   2.746 -0.6214 -0.1623  1.1526
  109SAPE    HX11240   4.397   3.185   2.779 -0.3671  0.1066  1.5050
  109SAPE    HY11241   4.356   3.308   2.640  2.0837  2.2558  2.0063
  109SAPE   O3111242   4.213   3.273   2.807  0.9091  0.0682  0.2706
  109SAPE   C3111243   4.124   3.367   2.760 -1.1905  0.4816 -1.0499
  109SAPE   O3211244   4.142   3.449   2.674  0.5518  0.6198 -0.1565
  109SAPE   C3211245   3.997   3.367   2.847 -0.1535  0.1575 -0.3135
  109SAPE   H2X11246   3.972   3.263   2.875 -1.1705  0.3023 -0.6336
  109SAPE   H2Y11247   3.919   3.423   2.790  0.0063  1.2134  0.4767
  109SAPE   C2311248   4.468   3.644   3.187  0.9787  0.0449  0.1416
  109SAPE   H3R11249   4.388   3.696   3.130  0.8381 -1.2899 -0.9403
  109SAPE   H3S11250   4.564   3.693   3.162 -0.8980  3.1230 -1.6262
  109SAPE   C2411251   4.433   3.664   3.337 -0.5324  0.1987 -0.5872
  109SAPE   H4R11252   4.323   3.651   3.338 -0.7448  1.4340 -2.8959
  109SAPE   H4S11253   4.465   3.766   3.366  1.4106 -0.7456  0.8287
  109SAPE   C2511254   4.498   3.575   3.442  0.0439  0.1160 -0.6880
  109SAPE   H5R11255   4.593   3.526   3.417 -0.0108  0.5330 -1.7540
  109SAPE   C2611256   4.446   3.548   3.566 -0.9005  0.5198  0.0798
  109SAPE   H6R11257   4.495   3.481   3.638  0.6329  0.7653 -0.7039
  109SAPE   C2711258   4.323   3.612   3.617 -0.1199 -0.6007 -0.1705
  109SAPE   H7R11259   4.285   3.544   3.696 -1.3071 -0.9312 -0.9839
  109SAPE   H7S11260   4.242   3.618   3.541 -0.4113 -1.1495  0.0920
  109SAPE   C2811261   4.360   3.743   3.678 -0.0554  0.3401  0.5758
  109SAPE   H8R11262   4.363   3.827   3.606 -0.1439 -0.8520 -0.8697
  109SAPE   C2911263   4.386   3.766   3.812 -0.6806  0.0596  0.3549
  109SAPE   H9R11264   4.408   3.866   3.851 -1.8938  0.6691 -0.4594
  109SAPE  C21011265   4.381   3.667   3.928  0.2069 -0.7112  0.4594
  109SAPE  H10R11266   4.342   3.566   3.905 -1.9303  0.0338  0.5984
  109SAPE  H10S11267   4.317   3.717   4.003 -0.8087  0.4294 -1.1187
  109SAPE  C21111268   4.521   3.648   3.975  0.2815 -0.6531  0.0811
  109SAPE  H11R11269   4.594   3.626   3.897  0.3301 -0.7022  0.1402
  109SAPE  C21211270   4.560   3.659   4.107 -0.3712 -0.1528  0.2943
  109SAPE  H12R11271   4.663   3.648   4.142 -0.2483 -0.4568 -0.1480
  109SAPE  C21311272   4.459   3.683   4.215 -0.8616 -0.4283 -0.8115
  109SAPE  H13R11273   4.409   3.585   4.235 -0.1582 -0.6309  0.0571
  109SAPE  H13S11274   4.375   3.751   4.194 -0.3694  0.3844 -0.2115
  109SAPE  C21411275   4.524   3.712   4.347  0.2872  0.3048 -0.3278
  109SAPE  H14R11276   4.632   3.693   4.351  0.4790  1.3829 -0.0771
  109SAPE  C21511277   4.475   3.778   4.455 -0.5244  1.0612  0.1374
  109SAPE  H15R11278   4.540   3.773   4.544  1.1256 -2.7164 -1.0569
  109SAPE  C21611279   4.348   3.844   4.470  0.2852 -0.4039 -0.2393
  109SAPE  H16R11280   4.261   3.784   4.505  0.9614 -0.7372  0.8989
  109SAPE  H16S11281   4.328   3.889   4.370 -1.3940  0.5257  0.4708
  109SAPE  C21711282   4.353   3.959   4.570 -0.2672  0.1722 -0.6174
  109SAPE  H17R11283   4.289   4.045   4.541  0.4377  0.4656 -1.3317
  109SAPE  H17S11284   4.457   3.998   4.582 -1.1967  2.7645 -0.2614
  109SAPE  C21811285   4.312   3.932   4.722 -0.4019  0.0601  0.4451
  109SAPE  H18R11286   4.383   3.858   4.766 -2.2746 -2.0352  0.1511
  109SAPE  H18S11287   4.209   3.890   4.725 -1.0269  0.9330 -3.4558
  109SAPE  C21911288   4.303   4.063   4.806 -0.0814  0.8510 -0.4168
  109SAPE  H19R11289   4.201   4.100   4.784 -0.9049  0.3045  2.0797
  109SAPE  H19S11290   4.376   4.138   4.767  0.2230  1.2334  0.8231
  109SAPE  C22011291   4.321   4.036   4.956  0.3981  0.1192 -0.2057
  109SAPE  H20R11292   4.261   3.949   4.988  1.0440  0.1168  1.0596
  109SAPE  H20S11293   4.292   4.120   5.023 -4.1584 -1.1542 -0.2432
  109SAPE  H20T11294   4.427   4.008   4.975  0.0691  0.1654  1.9287
  109SAPE   C3311295   4.026   3.432   2.987  0.0516  0.0801 -0.5093
  109SAPE   H3X11296   3.984   3.534   2.999 -0.8073 -0.3599  0.4575
  109SAPE   H3Y11297   4.134   3.450   3.006  0.2956 -1.2888 -0.4862
  109SAPE   C3411298   3.985   3.342   3.102  0.0727  0.1799  0.2248
  109SAPE   H4X11299   4.039   3.246   3.111 -1.9304 -1.2081 -1.4613
  109SAPE   H4Y11300   3.881   3.303   3.093  1.1217 -3.0362  0.8802
  109SAPE   C3511301   4.002   3.431   3.234  0.1130  0.2376 -0.6702
  109SAPE   H5X11302   3.931   3.516   3.232 -0.0321  0.1914  1.1819
  109SAPE   H5Y11303   4.106   3.467   3.242 -0.2807  1.0782  0.9087
  109SAPE   C3611304   3.972   3.338   3.355 -0.0942  0.1831  0.1246
  109SAPE   H6X11305   4.027   3.243   3.336  0.0194  0.1320  0.6843
  109SAPE   H6Y11306   3.861   3.333   3.358 -0.2032  2.2311  1.1913
  109SAPE   C3711307   4.023   3.385   3.490  0.1604 -0.1316 -0.3791
  109SAPE   H7X11308   3.960   3.474   3.510  2.6869  1.4384  1.3799
  109SAPE   H7Y11309   4.126   3.426   3.474  0.3451 -0.2236  0.4910
  109SAPE   C3811310   4.022   3.279   3.606 -0.2812  0.4840  0.5478
  109SAPE   H8X11311   4.102   3.203   3.590 -1.6451 -0.9503  0.2732
  109SAPE   H8Y11312   3.923   3.229   3.601  0.0323 -0.3824  2.2526
  109SAPE   C3911313   4.033   3.337   3.747  0.3426  0.3471  0.9666
  109SAPE   H9X11314   4.131   3.381   3.774  1.0604 -0.0013 -0.8969
  109SAPE   H9Y11315   4.022   3.251   3.816 -0.8319  1.0693  1.7097
  109SAPE  C31011316   3.913   3.433   3.782  0.2992  0.0976 -0.0927
  109SAPE  H10X11317   3.820   3.381   3.752  0.4776  0.2385 -0.9402
  109SAPE  H10Y11318   3.913   3.522   3.714 -0.1294  2.1280  2.4294
  109SAPE  C31111319   3.915   3.483   3.927  0.2743  0.9624  0.0882
  109SAPE  H11X11320   3.896   3.391   3.986  0.0095  0.7690 -0.3015
  109SAPE  H11Y11321   3.832   3.555   3.946 -1.0321 -0.5009  0.1316
  109SAPE  C31211322   4.039   3.562   3.976  0.3731 -0.0554  0.1596
  109SAPE  H12X11323   4.064   3.644   3.905 -0.8253 -1.4577 -1.9999
  109SAPE  H12Y11324   4.127   3.493   3.980  1.2789  1.0199 -0.7204
  109SAPE  C31311325   4.024   3.626   4.115  0.1262 -0.4488  0.1604
  109SAPE  H13X11326   3.919   3.662   4.115 -0.1486 -1.2363  0.3133
  109SAPE  H13Y11327   4.095   3.711   4.125  0.2742 -0.5219 -0.2527
  109SAPE  C31411328   4.044   3.517   4.227 -0.7601  0.5501  0.4382
  109SAPE  H14X11329   4.139   3.461   4.215 -0.9150  0.7483 -2.3631
  109SAPE  H14Y11330   3.964   3.439   4.222 -1.6100  1.4171  0.1927
  109SAPE  C31511331   4.049   3.570   4.375 -0.0022  0.3376  0.7115
  109SAPE  H15X11332   4.140   3.634   4.380  0.0559  0.2333  1.0054
  109SAPE  H15Y11333   4.061   3.488   4.448 -1.9361  0.6633  1.4570
  109SAPE  C31611334   3.936   3.674   4.406 -0.4082 -0.0775  0.3053
  109SAPE  H16X11335   3.835   3.633   4.389  0.1765 -1.4036 -0.1101
  109SAPE  H16Y11336   3.952   3.757   4.333 -0.0848 -1.0534 -0.7504
  109SAPE  C31711337   3.942   3.723   4.552  0.0914 -0.2233  0.0005
  109SAPE  H17X11338   4.046   3.753   4.575  0.7461 -1.0303 -1.6885
  109SAPE  H17Y11339   3.919   3.638   4.619 -0.7819  0.6168  0.7848
  109SAPE  C31811340   3.836   3.829   4.581  0.8547 -0.1235  0.1564
  109SAPE  H18X11341   3.838   3.869   4.685 -1.7137 -1.2863  0.7475
  109SAPE  H18Y11342   3.733   3.787   4.574  0.5736  0.3530  1.1648
  109SAPE  H18Z11343   3.844   3.906   4.502  1.7051 -0.5277 -0.1585
  110SAPE     N11344   3.104   3.244   2.263  0.2197 -0.0996 -0.7979
  110SAPE   HN111345   3.057   3.167   2.316 -0.5026 -1.3726 -3.0942
  110SAPE   HN211346   3.078   3.329   2.316 -0.8802 -1.1237  0.3892
  110SAPE   HN311347   3.059   3.229   2.170  1.0063  2.4588 -1.6836
  110SAPE   C1211348   3.255   3.229   2.268 -0.0107  0.2279  0.3890
  110SAPE  H12A11349   3.309   3.324   2.251  0.8235 -0.3878 -0.4759
  110SAPE  H12B11350   3.277   3.155   2.188  0.1912  1.7026 -0.9866
  110SAPE   C1111351   3.303   3.177   2.396 -0.8234  0.4137 -0.6471
  110SAPE  H11A11352   3.285   3.251   2.476 -2.0574 -0.5535  0.0114
  110SAPE  H11B11353   3.413   3.163   2.405 -0.9818  0.0761  1.2489
  110SAPE     P11354   3.274   2.920   2.390  0.0184 -0.2068  0.4566
  110SAPE   O1311355   3.144   2.850   2.393 -0.0067  0.6478  0.5707
  110SAPE   O1411356   3.333   2.930   2.254  0.0637  0.2199 -0.3960
  110SAPE   O1211357   3.237   3.058   2.447  0.3651  0.0274  0.1214
  110SAPE   O1111358   3.385   2.862   2.480  0.5494 -0.2082 -0.5209
  110SAPE    C111359   3.352   2.803   2.608  0.2035  0.3433 -0.1880
  110SAPE    HA11360   3.264   2.736   2.604 -0.7830  1.5966  0.0793
  110SAPE    HB11361   3.445   2.749   2.638 -0.6107 -0.3880  1.0668
  110SAPE    C211362   3.337   2.908   2.715  0.2311  0.2709  0.2373
  110SAPE    HS11363   3.345   3.008   2.668 -1.6948  0.7756  0.9105
  110SAPE   O2111364   3.447   2.883   2.812  0.1483 -0.9150 -0.8086
  110SAPE   C2111365   3.548   2.972   2.808  0.2367  1.1729  0.0353
  110SAPE   O2211366   3.568   3.056   2.722 -0.0398  0.4149  0.4276
  110SAPE   C2211367   3.643   2.945   2.927  0.2871  0.4330  0.3293
  110SAPE   H2R11368   3.612   3.022   3.001 -0.1375 -2.0285  2.9095
  110SAPE   H2S11369   3.620   2.855   2.988 -0.0578  0.5827  0.4229
  110SAPE    C311370   3.194   2.896   2.778  0.1119  0.3289 -0.4253
  110SAPE    HX11371   3.159   2.989   2.827  1.3303  0.5453  0.0762
  110SAPE    HY11372   3.132   2.882   2.687 -0.1693 -1.5922  0.0140
  110SAPE   O3111373   3.174   2.771   2.855 -0.9996  0.5705 -0.0898
  110SAPE   C3111374   3.184   2.796   2.986  0.7714  0.5200 -0.0309
  110SAPE   O3211375   3.205   2.903   3.047 -0.4293 -0.1515 -0.0690
  110SAPE   C3211376   3.186   2.658   3.039 -0.3703  0.4144  0.2000
  110SAPE   H2X11377   3.264   2.603   2.981 -0.3926  0.4476  0.1387
  110SAPE   H2Y11378   3.089   2.606   3.026 -0.1660  0.0727  0.0249
  110SAPE   C2311379   3.787   2.950   2.888  0.1814  0.4750 -0.3322
  110SAPE   H3R11380   3.805   3.048   2.838  0.4724  0.3827 -0.4110
  110SAPE   H3S11381   3.821   2.877   2.811  1.5740 -0.5710  1.2072
  110SAPE   C2411382   3.884   2.946   3.012 -0.0095 -0.7578  0.1578
  110SAPE   H4R11383   3.855   3.026   3.083 -2.5729  0.5683 -2.1899
  110SAPE   H4S11384   3.984   2.975   2.972 -0.1516 -0.9467 -0.3440
  110SAPE   C2511385   3.900   2.806   3.066 -0.3891  0.7816  0.5162
  110SAPE   H5R11386   3.924   2.738   2.983 -0.8194  1.8299 -0.4976
  110SAPE   C2611387   3.890   2.759   3.189 -0.1320 -0.0933 -0.5363
  110SAPE   H6R11388   3.900   2.652   3.215 -1.7181  0.4475  2.8207
  110SAPE   C2711389   3.865   2.847   3.310  0.4117 -0.4155 -0.5762
  110SAPE   H7R11390   3.811   2.787   3.386  0.2969  1.9993  1.3669
  110SAPE   H7S11391   3.792   2.924   3.277 -2.1853 -2.7132 -0.5339
  110SAPE   C2811392   3.995   2.906   3.361  0.4105 -0.0809  0.9733
  110SAPE   H8R11393   4.040   2.979   3.292  2.2160 -2.4308 -0.4713
  110SAPE   C2911394   4.055   2.878   3.478  0.2174  0.0867 -0.0346
  110SAPE   H9R11395   4.151   2.929   3.499  0.9763 -1.4109  0.2337
  110SAPE  C21011396   4.013   2.787   3.587 -0.0199 -0.9254  0.7576
  110SAPE  H10R11397   4.093   2.777   3.664 -0.3744 -0.1520  1.2392
  110SAPE  H10S11398   3.999   2.684   3.549 -2.4032 -0.3409 -0.1008
  110SAPE  C21111399   3.879   2.835   3.653 -0.1587  0.2629 -0.5712
  110SAPE  H11R11400   3.794   2.828   3.583  0.5991  1.6424 -1.6736
  110SAPE  C21211401   3.854   2.854   3.782 -0.1490  0.7590  0.0411
  110SAPE  H12R11402   3.752   2.874   3.818 -0.9182 -2.6970  0.1003
  110SAPE  C21311403   3.947   2.838   3.899 -0.3398 -0.4542 -0.5659
  110SAPE  H13R11404   3.957   2.938   3.945  0.6491 -1.2019  0.9386
  110SAPE  H13S11405   4.051   2.804   3.878 -0.5642 -1.1716 -0.5362
  110SAPE  C21411406   3.906   2.745   4.008  0.1150 -0.3485  0.0492
  110SAPE  H14R11407   3.844   2.658   3.984 -1.4651  0.2310  1.7427
  110SAPE  C21511408   3.935   2.758   4.139  0.6624  0.1254 -0.8774
  110SAPE  H15R11409   3.910   2.674   4.206 -2.3401  0.1627 -1.8281
  110SAPE  C21611410   4.018   2.862   4.206  0.3731  0.2083  0.0467
  110SAPE  H16R11411   4.071   2.934   4.140 -1.5198  0.4847 -1.2481
  110SAPE  H16S11412   4.095   2.810   4.267 -0.3488 -1.0233 -0.0759
  110SAPE  C21711413   3.913   2.940   4.291  0.2700 -0.1550  0.1571
  110SAPE  H17R11414   3.876   2.884   4.380  0.2983 -2.0045 -0.9238
  110SAPE  H17S11415   3.825   2.966   4.228  0.8087  1.7616  0.1373
  110SAPE  C21811416   3.964   3.072   4.351  0.2508  0.0995  0.7287
  110SAPE  H18R11417   3.888   3.127   4.410 -0.5043  2.6142 -2.3332
  110SAPE  H18S11418   3.978   3.137   4.262  1.9675 -0.6402  0.4156
  110SAPE  C21911419   4.091   3.051   4.433 -0.1120 -0.2627  0.6906
  110SAPE  H19R11420   4.174   3.025   4.364  0.4030 -0.3959  1.3463
  110SAPE  H19S11421   4.085   2.954   4.487  0.4004 -0.4395  0.4323
  110SAPE  C22011422   4.125   3.162   4.533 -0.1338  0.2484 -0.9036
  110SAPE  H20R11423   4.230   3.147   4.565  0.2831 -0.8714 -2.6930
  110SAPE  H20S11424   4.064   3.179   4.624  0.3242  2.5750 -0.9540
  110SAPE  H20T11425   4.127   3.257   4.474 -1.6940  0.9422  0.1059
  110SAPE   C3311426   3.226   2.643   3.183  0.1740 -0.3025 -0.5891
  110SAPE   H3X11427   3.201   2.535   3.192 -0.5582 -0.0243  1.0123
  110SAPE   H3Y11428   3.155   2.695   3.250  0.4299  0.6979 -1.0884
  110SAPE   C3411429   3.375   2.660   3.214  0.5241  0.2446  0.6267
  110SAPE   H4X11430   3.401   2.768   3.213 -0.6536  0.5416  0.7878
  110SAPE   H4Y11431   3.442   2.604   3.144  2.1005  1.5364  1.0488
  110SAPE   C3511432   3.403   2.617   3.355 -0.0941 -0.0304  0.0494
  110SAPE   H5X11433   3.374   2.511   3.371 -0.3953  0.4669  3.4606
  110SAPE   H5Y11434   3.341   2.678   3.423  1.4347  1.0957  0.4979
  110SAPE   C3611435   3.553   2.634   3.385  0.1717  0.6375 -0.3997
  110SAPE   H6X11436   3.586   2.740   3.376  0.6341  0.5116 -0.2122
  110SAPE   H6Y11437   3.599   2.580   3.300 -1.0417 -0.3796 -0.4518
  110SAPE   C3711438   3.587   2.566   3.520 -0.1001  0.3626  0.2551
  110SAPE   H7X11439   3.697   2.553   3.532  0.0973 -0.0975 -1.6153
  110SAPE   H7Y11440   3.539   2.467   3.514  0.3874  0.1923 -1.7262
  110SAPE   C3811441   3.535   2.645   3.641  0.0404 -0.0882 -0.4765
  110SAPE   H8X11442   3.431   2.677   3.618  0.3456  1.1734 -0.1676
  110SAPE   H8Y11443   3.609   2.725   3.658  0.8228 -0.8515 -0.2153
  110SAPE   C3911444   3.535   2.560   3.770 -0.7792 -0.8238  0.1700
  110SAPE   H9X11445   3.639   2.524   3.786 -0.2511  0.5447 -0.0802
  110SAPE   H9Y11446   3.469   2.471   3.775  1.4332 -2.5182  1.1732
  110SAPE  C31011447   3.510   2.654   3.883 -0.1085  0.4287 -0.1230
  110SAPE  H10X11448   3.407   2.695   3.871 -0.1389  0.8784  1.3696
  110SAPE  H10Y11449   3.575   2.742   3.905  1.5055 -0.1968 -2.0692
  110SAPE  C31111450   3.511   2.581   4.019  0.0984  0.1477 -0.0663
  110SAPE  H11X11451   3.613   2.537   4.031  0.6094  1.4649  0.5966
  110SAPE  H11Y11452   3.443   2.493   4.012 -0.2890  0.5076 -0.9637
  110SAPE  C31211453   3.480   2.658   4.145 -0.2525  0.3295 -0.6590
  110SAPE  H12X11454   3.376   2.695   4.146 -1.4231 -2.6059 -1.5791
  110SAPE  H12Y11455   3.560   2.735   4.146  1.1747 -1.0438  1.7226
  110SAPE  C31311456   3.498   2.573   4.269  0.3911  0.1311 -0.2458
  110SAPE  H13X11457   3.601   2.543   4.296 -0.3466 -0.6343  1.8923
  110SAPE  H13Y11458   3.455   2.472   4.250  1.1181 -0.4738  1.1861
  110SAPE  C31411459   3.441   2.646   4.394 -1.0161  0.3374  0.5643
  110SAPE  H14X11460   3.331   2.640   4.383 -0.8246  1.6720 -3.8219
  110SAPE  H14Y11461   3.476   2.751   4.404  0.0842  0.0201  0.2409
  110SAPE  C31511462   3.478   2.566   4.524 -1.0547 -0.1286 -0.2632
  110SAPE  H15X11463   3.589   2.563   4.533 -1.0443  1.2751  0.2869
  110SAPE  H15Y11464   3.444   2.461   4.507 -0.0316 -0.6962  0.9953
  110SAPE  C31611465   3.424   2.632   4.656  0.4231 -0.8579 -0.1685
  110SAPE  H16X11466   3.316   2.652   4.637  0.8770  1.6853 -0.3487
  110SAPE  H16Y11467   3.469   2.733   4.668  0.8162 -0.9881 -0.5191
  110SAPE  C31711468   3.462   2.556   4.784  0.1501 -0.3657 -0.5746
  110SAPE  H17X11469   3.573   2.561   4.791  0.2101  0.5687 -1.7203
  110SAPE  H17Y11470   3.423   2.453   4.796 -1.2117  0.4267  2.9292
  110SAPE  C31811471   3.400   2.636   4.900 -0.1122  0.3951  0.5210
  110SAPE  H18X11472   3.289   2.642   4.901 -0.1024  1.3804 -0.8807
  110SAPE  H18Y11473   3.431   2.742   4.912 -2.5139  1.0336  1.9662
  110SAPE  H18Z11474   3.418   2.572   4.989 -0.9396 -0.7099 -0.0667
  111SAPE     N11475   2.684   3.825   2.286  0.0120  0.1402 -0.3687
  111SAPE   HN111476   2.627   3.739   2.299 -2.0322  1.7249  2.1083
  111SAPE   HN211477   2.665   3.893   2.362  2.4140 -0.9310  1.2845
  111SAPE   HN311478   2.651   3.865   2.195  1.2395 -0.7765 -1.2536
  111SAPE   C1211479   2.830   3.787   2.292  0.8096 -0.0405 -0.5133
  111SAPE  H12A11480   2.895   3.876   2.281  1.5486 -0.5538 -0.4011
  111SAPE  H12B11481   2.854   3.722   2.205  0.6338 -0.0255 -0.5736
  111SAPE   C1111482   2.864   3.708   2.419  0.1643  0.4913 -0.2702
  111SAPE  H11A11483   2.846   3.772   2.508  2.1697 -0.4902  0.9162
  111SAPE  H11B11484   2.973   3.686   2.421  0.5296  2.2099  0.1330
  111SAPE     P11485   2.842   3.447   2.435  0.0273  0.0603 -0.0707
  111SAPE   O1311486   2.756   3.366   2.347 -0.2958 -0.1067 -0.0956
  111SAPE   O1411487   2.983   3.451   2.406  0.4601  0.0446 -0.2923
  111SAPE   O1211488   2.782   3.593   2.439  0.1043  0.1243 -0.0284
  111SAPE   O1111489   2.827   3.404   2.580  0.9825  0.2665 -0.2795
  111SAPE    C111490   2.712   3.339   2.629  0.4094  0.0321 -0.1130
  111SAPE    HA11491   2.620   3.353   2.569  0.9711  0.9495 -0.8011
  111SAPE    HB11492   2.741   3.232   2.625  1.4961  0.2179  1.6080
  111SAPE    C211493   2.673   3.372   2.777  0.2323 -0.4021  0.2564
  111SAPE    HS11494   2.612   3.465   2.784 -0.5460 -0.8636 -0.1952
  111SAPE   O2111495   2.792   3.373   2.855 -0.2979 -0.1793 -0.2373
  111SAPE   C2111496   2.850   3.480   2.897 -0.3390 -0.2930  0.1672
  111SAPE   O2211497   2.804   3.595   2.883  0.0363  0.8227  0.3607
  111SAPE   C2211498   2.988   3.448   2.966  0.0265 -0.2579  0.6454
  111SAPE   H2R11499   2.979   3.353   3.023  2.0064 -0.7490  0.2335
  111SAPE   H2S11500   3.046   3.422   2.875 -0.1740 -3.0233  1.2057
  111SAPE    C311501   2.569   3.267   2.824  0.0825 -0.1383 -0.5839
  111SAPE    HX11502   2.633   3.181   2.850  1.0239  0.4561 -0.8908
  111SAPE    HY11503   2.501   3.235   2.742  1.0403  0.4050 -1.6084
  111SAPE   O3111504   2.502   3.322   2.941 -0.0894  0.0794 -0.1134
  111SAPE   C3111505   2.390   3.392   2.915  0.2243  0.8298 -0.3116
  111SAPE   O3211506   2.351   3.421   2.802 -0.8391  0.1652  0.3600
  111SAPE   C3211507   2.325   3.439   3.043 -0.1778 -0.3411  0.6132
  111SAPE   H2X11508   2.277   3.537   3.022  1.8233  0.7337  0.7443
  111SAPE   H2Y11509   2.408   3.455   3.116  1.4072  3.1334 -1.6597
  111SAPE   C2311510   3.051   3.570   3.038 -0.1606  0.0226  0.1993
  111SAPE   H3R11511   3.056   3.666   2.983  0.2369 -0.8766 -1.3939
  111SAPE   H3S11512   3.148   3.531   3.075 -0.0342 -2.2265 -2.1542
  111SAPE   C2411513   2.971   3.603   3.166  0.1012  0.1984 -0.0704
  111SAPE   H4R11514   2.951   3.510   3.223  0.2446 -0.4665 -1.0756
  111SAPE   H4S11515   2.875   3.650   3.135 -1.4256 -1.7173  1.4682
  111SAPE   C2511516   3.054   3.703   3.246  0.2578  0.5858 -1.2180
  111SAPE   H5R11517   3.056   3.806   3.208  0.9430  1.0018 -0.1081
  111SAPE   C2611518   3.122   3.682   3.368 -0.4259 -0.5949 -0.2831
  111SAPE   H6R11519   3.160   3.765   3.429 -2.0999  0.8489 -1.0963
  111SAPE   C2711520   3.126   3.545   3.435  0.3487 -0.3272  0.7466
  111SAPE   H7R11521   3.170   3.472   3.364  1.2666  0.3347  0.6103
  111SAPE   H7S11522   3.026   3.508   3.467 -0.1977 -1.3500 -1.8341
  111SAPE   C2811523   3.219   3.555   3.551  0.8932 -0.2746 -0.1313
  111SAPE   H8R11524   3.323   3.582   3.527  1.4223 -0.7244  1.5713
  111SAPE   C2911525   3.196   3.521   3.684 -0.2132 -0.0117  0.5748
  111SAPE   H9R11526   3.275   3.523   3.761  1.5720  0.3269 -1.1782
  111SAPE  C21011527   3.054   3.496   3.740  0.2938  0.6556 -0.2725
  111SAPE  H10R11528   3.058   3.428   3.827  1.4330  0.8421 -0.1618
  111SAPE  H10S11529   3.003   3.433   3.663 -0.2643  0.6541  0.0961
  111SAPE  C21111530   2.970   3.620   3.765 -0.1839  0.0496 -0.1401
  111SAPE  H11R11531   2.967   3.683   3.674 -1.4512  0.1877 -0.0256
  111SAPE  C21211532   2.873   3.640   3.852  0.7053 -0.2156 -0.0120
  111SAPE  H12R11533   2.820   3.737   3.854 -0.4654 -0.8276 -0.7215
  111SAPE  C21311534   2.843   3.565   3.983 -0.5091  0.1809  0.7684
  111SAPE  H13R11535   2.816   3.462   3.948  0.4011  0.8064 -2.0105
  111SAPE  H13S11536   2.750   3.610   4.023 -0.6828  1.4851 -0.9973
  111SAPE  C21411537   2.956   3.572   4.086  0.2715 -0.1677  0.6567
  111SAPE  H14R11538   3.055   3.604   4.051  0.0603  0.3418  0.5117
  111SAPE  C21511539   2.947   3.539   4.211  0.8544 -0.3037 -0.5085
  111SAPE  H15R11540   3.037   3.543   4.274  0.0739 -2.9891  0.9354
  111SAPE  C21611541   2.820   3.480   4.283 -0.1256  0.7978  0.7983
  111SAPE  H16R11542   2.820   3.371   4.260  0.3772  1.0763 -0.6202
  111SAPE  H16S11543   2.727   3.525   4.242 -1.1803 -1.7359  0.1724
  111SAPE  C21711544   2.833   3.473   4.436 -0.0776 -0.9310  0.0133
  111SAPE  H17R11545   2.924   3.417   4.465  0.1176 -0.5604  0.1291
  111SAPE  H17S11546   2.740   3.430   4.479 -0.5048 -1.4069 -1.3342
  111SAPE  C21811547   2.835   3.619   4.483 -0.3138  0.6677 -0.3840
  111SAPE  H18R11548   2.931   3.664   4.451 -0.7178  1.3700 -0.6299
  111SAPE  H18S11549   2.840   3.623   4.594 -0.6696 -0.5461 -0.3002
  111SAPE  C21911550   2.718   3.710   4.452  0.5668 -0.0930  0.4975
  111SAPE  H19R11551   2.732   3.739   4.346  2.8728  3.0100  1.5106
  111SAPE  H19S11552   2.725   3.807   4.505 -0.4102  1.6336 -2.3478
  111SAPE  C22011553   2.576   3.650   4.471 -0.7280  0.5908  0.3743
  111SAPE  H20R11554   2.487   3.706   4.436 -0.2779 -0.0768 -2.0110
  111SAPE  H20S11555   2.570   3.627   4.580 -0.1290 -0.2177  0.2488
  111SAPE  H20T11556   2.562   3.553   4.418  2.6211  0.2977 -0.1711
  111SAPE   C3311557   2.217   3.337   3.098 -0.2175  0.0021 -0.4233
  111SAPE   H3X11558   2.149   3.301   3.017 -0.0495 -0.2525 -0.4516
  111SAPE   H3Y11559   2.152   3.394   3.168  0.2222 -1.8838  1.6061
  111SAPE   C3411560   2.265   3.226   3.197 -0.2755 -0.5062 -0.0780
  111SAPE   H4X11561   2.363   3.182   3.170  0.3412 -0.2428  1.5998
  111SAPE   H4Y11562   2.195   3.139   3.193  1.6494 -2.1847  0.8119
  111SAPE   C3511563   2.255   3.252   3.344  0.2879 -0.1960 -0.1037
  111SAPE   H5X11564   2.147   3.255   3.373  0.2954 -0.2653 -0.0685
  111SAPE   H5Y11565   2.329   3.331   3.367 -1.1319  0.7189  1.6583
  111SAPE   C3611566   2.305   3.128   3.424 -0.8854 -0.4998 -0.0191
  111SAPE   H6X11567   2.403   3.088   3.389 -1.8892 -3.1367 -0.0773
  111SAPE   H6Y11568   2.249   3.034   3.406 -2.4729  0.4137 -0.0400
  111SAPE   C3711569   2.304   3.154   3.577  0.8105 -0.3652 -0.7089
  111SAPE   H7X11570   2.203   3.195   3.601  1.1929  0.1477  0.0757
  111SAPE   H7Y11571   2.372   3.239   3.599 -0.1199  0.3666 -0.5862
  111SAPE   C3811572   2.338   3.038   3.660  0.1480 -0.2836  0.0291
  111SAPE   H8X11573   2.346   3.079   3.763  1.0255  1.6815 -0.7751
  111SAPE   H8Y11574   2.434   2.996   3.624 -0.0074  1.7386 -3.0144
  111SAPE   C3911575   2.242   2.918   3.651  0.6138 -0.1483 -0.2822
  111SAPE   H9X11576   2.285   2.850   3.729 -2.6071 -1.5445  0.4461
  111SAPE   H9Y11577   2.245   2.872   3.550  0.3203  0.3763 -0.5326
  111SAPE  C31011578   2.095   2.947   3.689 -0.3407  0.2372 -0.3296
  111SAPE  H10X11579   2.056   2.845   3.668  2.9115 -1.2135 -0.0064
  111SAPE  H10Y11580   2.054   3.012   3.609 -0.6937  0.7938  0.2940
  111SAPE  C31111581   2.069   3.002   3.824 -0.6331 -0.6045 -0.9314
  111SAPE  H11X11582   1.961   3.020   3.843 -0.2678  0.0578  0.7410
  111SAPE  H11Y11583   2.117   3.100   3.843 -1.5799  0.0287 -1.6850
  111SAPE  C31211584   2.102   2.914   3.942  0.2983 -0.2020 -0.3227
  111SAPE  H12X11585   2.213   2.914   3.952  0.1003 -0.3595  2.7073
  111SAPE  H12Y11586   2.066   2.810   3.928 -1.7617  0.4122  0.1167
  111SAPE  C31311587   2.040   2.975   4.069  0.2880 -0.0245 -0.2972
  111SAPE  H13X11588   1.937   3.013   4.054 -0.0170 -0.9620 -0.6905
  111SAPE  H13Y11589   2.112   3.059   4.082 -0.7474  0.8295 -0.0230
  111SAPE  C31411590   2.046   2.878   4.187  0.4222 -0.6716  0.1416
  111SAPE  H14X11591   2.148   2.835   4.202  1.1137 -0.1613 -2.6086
  111SAPE  H14Y11592   1.975   2.795   4.163  0.9330 -0.8840 -0.6684
  111SAPE  C31511593   2.004   2.933   4.318  0.0193 -0.1978 -0.0751
  111SAPE  H15X11594   1.894   2.949   4.316  0.1862  0.9481 -0.9169
  111SAPE  H15Y11595   2.056   3.028   4.341  1.5860 -1.1822  0.6384
  111SAPE  C31611596   2.044   2.835   4.432  0.0210 -0.6363  0.4287
  111SAPE  H16X11597   2.038   2.729   4.400  1.2299 -0.3985 -0.6460
  111SAPE  H16Y11598   1.969   2.848   4.513 -0.0294  2.4548 -0.0069
  111SAPE  C31711599   2.176   2.872   4.498  0.3095  0.0741  0.0266
  111SAPE  H17X11600   2.179   2.979   4.524  0.1545 -0.1358  0.9443
  111SAPE  H17Y11601   2.254   2.853   4.421  0.1347 -0.8283  0.0524
  111SAPE  C31811602   2.210   2.791   4.630 -0.0540 -0.1998 -0.0166
  111SAPE  H18X11603   2.120   2.786   4.694  1.7824 -1.6666  2.6506
  111SAPE  H18Y11604   2.289   2.851   4.680 -0.1261  2.8981 -3.1438
  111SAPE  H18Z11605   2.242   2.687   4.609 -0.1643 -0.1022 -0.7193
  112SAPE     N11606   6.524   4.035   2.583 -0.3850  0.1796 -0.4297
  112SAPE   HN111607   6.597   4.007   2.514  0.3910  0.2432  0.3399
  112SAPE   HN211608   6.470   4.109   2.534 -0.8295  0.1092 -0.0522
  112SAPE   HN311609   6.580   4.076   2.660  1.1479 -0.1352 -1.3313
  112SAPE   C1211610   6.434   3.928   2.645 -0.0183  0.2442  0.8794
  112SAPE  H12A11611   6.390   3.976   2.735  2.5641  2.5213  1.0609
  112SAPE  H12B11612   6.489   3.839   2.681 -2.1727 -1.4795  0.1719
  112SAPE   C1111613   6.335   3.884   2.532 -0.5064  0.0890 -0.3402
  112SAPE  H11A11614   6.287   3.967   2.476 -0.5877 -0.0030 -0.4081
  112SAPE  H11B11615   6.250   3.832   2.583 -1.3260  0.9169 -0.8337
  112SAPE     P11616   6.371   3.776   2.294  0.0641  0.0561  0.5049
  112SAPE   O1311617   6.371   3.915   2.235 -0.2621  0.1875 -0.1717
  112SAPE   O1411618   6.456   3.677   2.221 -0.3682  0.3620  0.1787
  112SAPE   O1211619   6.403   3.786   2.448  0.3001  0.2056  0.4556
  112SAPE   O1111620   6.221   3.724   2.296 -0.2523  0.4667  0.5313
  112SAPE    C111621   6.140   3.636   2.366 -0.2823  0.0484 -0.3999
  112SAPE    HA11622   6.137   3.536   2.318 -1.0772 -0.0433 -0.1804
  112SAPE    HB11623   6.178   3.619   2.469 -2.7567 -0.1701  0.5468
  112SAPE    C211624   5.994   3.696   2.393 -0.7152  0.1865 -0.0904
  112SAPE    HS11625   5.957   3.703   2.288  0.5896  0.5065 -0.5425
  112SAPE   O2111626   6.019   3.820   2.459  0.5846  0.8269  0.3514
  112SAPE   C2111627   5.912   3.879   2.491  0.4975 -0.5784  0.1155
  112SAPE   O2211628   5.798   3.859   2.455  0.2770 -0.3427  0.3143
  112SAPE   C2211629   5.947   3.992   2.584 -0.6190 -0.7085 -0.5011
  112SAPE   H2R11630   6.057   3.999   2.598  0.0659 -1.5472 -4.2823
  112SAPE   H2S11631   5.917   4.089   2.538 -0.3718 -0.9951 -1.2924
  112SAPE    C311632   5.913   3.589   2.472 -0.5509  0.1525  0.5644
  112SAPE    HX11633   5.946   3.493   2.427  0.9420  1.3220 -0.9640
  112SAPE    HY11634   5.803   3.594   2.457 -0.3759 -1.4067 -1.8197
  112SAPE   O3111635   5.953   3.593   2.611  0.6982 -0.1699 -0.3886
  112SAPE   C3111636   5.898   3.502   2.681 -0.4293 -0.1026 -1.3274
  112SAPE   O3211637   5.847   3.399   2.648  0.5332  0.5231 -0.3628
  112SAPE   C3211638   5.904   3.549   2.830  0.0932 -0.0880  0.3596
  112SAPE   H2X11639   5.917   3.659   2.835 -1.1838  0.0195  3.0777
  112SAPE   H2Y11640   5.992   3.495   2.871  0.6166  0.7299  0.3384
  112SAPE   C2311641   5.866   3.956   2.715 -0.4064 -1.4770  0.6007
  112SAPE   H3R11642   5.923   3.873   2.762  0.8652 -0.9600  0.0426
  112SAPE   H3S11643   5.767   3.912   2.689 -0.3932 -0.9623 -0.3905
  112SAPE   C2411644   5.845   4.090   2.800  0.7990  0.5759 -0.1669
  112SAPE   H4R11645   5.770   4.060   2.876  0.5464 -0.3222 -0.7570
  112SAPE   H4S11646   5.804   4.169   2.734 -0.9915 -0.5368 -0.4508
  112SAPE   C2511647   5.971   4.133   2.860  0.4468 -0.1048  0.2357
  112SAPE   H5R11648   6.057   4.125   2.792  0.4596  2.0853 -0.0935
  112SAPE   C2611649   5.983   4.179   2.983 -0.2040 -0.7197  0.2792
  112SAPE   H6R11650   6.085   4.208   3.013  0.0471 -0.7050 -0.5684
  112SAPE   C2711651   5.879   4.191   3.088  0.3074  1.0066  0.5719
  112SAPE   H7R11652   5.909   4.143   3.184  0.6212  0.9658  0.4550
  112SAPE   H7S11653   5.785   4.140   3.057  1.2112 -0.0318 -0.5604
  112SAPE   C2811654   5.820   4.325   3.126 -0.0988 -0.3270 -0.6086
  112SAPE   H8R11655   5.808   4.405   3.051  2.0059  2.5245  1.8616
  112SAPE   C2911656   5.750   4.345   3.237  0.3360 -0.2373 -0.5767
  112SAPE   H9R11657   5.719   4.446   3.265 -2.6673 -0.9678 -0.8455
  112SAPE  C21011658   5.719   4.247   3.348 -0.6757  0.3037  0.3077
  112SAPE  H10R11659   5.713   4.140   3.318  2.7792  0.9167 -3.3967
  112SAPE  H10S11660   5.620   4.268   3.395 -0.3144 -0.8622  1.6749
  112SAPE  C21111661   5.827   4.247   3.457 -0.3705 -0.8166 -0.7270
  112SAPE  H11R11662   5.929   4.229   3.419 -0.1257  1.7326 -1.5389
  112SAPE  C21211663   5.820   4.301   3.584  0.1857 -0.4191 -0.0788
  112SAPE  H12R11664   5.914   4.297   3.642  0.9467 -1.8787 -1.3299
  112SAPE  C21311665   5.701   4.340   3.675 -0.0932 -0.0009 -0.6782
  112SAPE  H13R11666   5.605   4.303   3.633  0.6017 -1.4651 -1.0324
  112SAPE  H13S11667   5.695   4.451   3.681 -1.3624 -0.0849  0.1405
  112SAPE  C21411668   5.716   4.282   3.813  0.5894  0.0236 -0.1330
  112SAPE  H14R11669   5.695   4.174   3.802 -1.0795  0.2392  0.5932
  112SAPE  C21511670   5.738   4.342   3.931  0.2460  0.1957 -0.1278
  112SAPE  H15R11671   5.741   4.278   4.020 -1.8724 -0.1819 -0.2594
  112SAPE  C21611672   5.764   4.485   3.961 -0.2825  0.6576  0.4928
  112SAPE  H16R11673   5.663   4.529   3.977 -0.4712  0.2775  0.3885
  112SAPE  H16S11674   5.805   4.543   3.875 -1.5410 -0.1464 -0.7098
  112SAPE  C21711675   5.845   4.536   4.083  1.1197 -0.3317  0.2656
  112SAPE  H17R11676   5.856   4.646   4.091  0.5072 -0.0041 -2.2701
  112SAPE  H17S11677   5.948   4.498   4.070  1.0134 -0.4119 -0.4343
  112SAPE  C21811678   5.770   4.509   4.216 -0.4161  0.4699 -0.5355
  112SAPE  H18R11679   5.821   4.420   4.260 -0.8905  0.1506 -0.6263
  112SAPE  H18S11680   5.673   4.470   4.180 -0.3260  1.6971 -2.2194
  112SAPE  C21911681   5.769   4.618   4.315  0.3060  0.3056 -0.0351
  112SAPE  H19R11682   5.728   4.708   4.264  1.7429  1.4038  0.6890
  112SAPE  H19S11683   5.873   4.636   4.350  0.2646  0.7328 -0.1243
  112SAPE  C22011684   5.672   4.568   4.431 -0.4638  0.2450 -0.8190
  112SAPE  H20R11685   5.701   4.646   4.505  2.5161 -0.3061 -1.2846
  112SAPE  H20S11686   5.695   4.476   4.489 -2.7299 -0.4884 -0.9940
  112SAPE  H20T11687   5.567   4.586   4.400 -0.0864  1.6203 -1.4032
  112SAPE   C3311688   5.780   3.522   2.920 -0.0718  0.7431 -0.0501
  112SAPE   H3X11689   5.756   3.414   2.908 -0.4773  0.9235 -0.9466
  112SAPE   H3Y11690   5.692   3.580   2.883 -1.1823 -1.8302 -1.7962
  112SAPE   C3411691   5.813   3.552   3.069 -0.2283 -0.2694  0.8485
  112SAPE   H4X11692   5.904   3.499   3.103  1.0414  2.0727  1.2867
  112SAPE   H4Y11693   5.726   3.510   3.125  0.2066 -2.5244 -0.0435
  112SAPE   C3511694   5.835   3.698   3.101  0.1885 -0.2138 -0.1907
  112SAPE   H5X11695   5.744   3.759   3.084  1.0278  0.7367 -1.4904
  112SAPE   H5Y11696   5.915   3.747   3.041  2.0764 -1.6859  0.9809
  112SAPE   C3611697   5.871   3.724   3.250 -0.3712 -0.1563  0.2523
  112SAPE   H6X11698   5.973   3.682   3.262 -0.6982 -1.2449 -0.6047
  112SAPE   H6Y11699   5.796   3.671   3.311 -1.0634  0.4297 -0.0682
  112SAPE   C3711700   5.886   3.867   3.286  0.2436 -0.3487 -0.6589
  112SAPE   H7X11701   5.789   3.919   3.276  1.4432  2.0804 -0.4127
  112SAPE   H7Y11702   5.963   3.906   3.215 -0.3864 -1.8562 -2.2593
  112SAPE   C3811703   5.942   3.886   3.430  0.3337 -0.2349  0.2295
  112SAPE   H8X11704   5.976   3.987   3.460  3.8249 -0.5111 -2.2802
  112SAPE   H8Y11705   6.035   3.826   3.421  0.4965  0.1003 -0.3156
  112SAPE   C3911706   5.853   3.828   3.546 -0.4302  0.1418  1.1628
  112SAPE   H9X11707   5.883   3.722   3.553  0.8052  0.5474  2.7450
  112SAPE   H9Y11708   5.747   3.841   3.514 -0.3549 -0.2641  0.7411
  112SAPE  C31011709   5.873   3.894   3.677  0.2007  0.0190  0.3307
  112SAPE  H10X11710   5.823   3.993   3.678 -1.9643 -1.0140  0.0924
  112SAPE  H10Y11711   5.983   3.897   3.691  0.1805  0.9728  0.3090
  112SAPE  C31111712   5.802   3.807   3.788 -0.3526 -0.9529 -0.2700
  112SAPE  H11X11713   5.835   3.701   3.786  3.8906  0.1272  1.8693
  112SAPE  H11Y11714   5.693   3.816   3.767 -0.1117  0.6915 -1.0166
  112SAPE  C31211715   5.843   3.870   3.929  0.8168  0.3351  0.3294
  112SAPE  H12X11716   5.806   3.975   3.934 -0.6176 -0.1887  1.6891
  112SAPE  H12Y11717   5.952   3.882   3.944  1.2124  0.1243 -2.0242
  112SAPE  C31311718   5.769   3.789   4.044  0.0848  0.3659 -0.9189
  112SAPE  H13X11719   5.811   3.686   4.041  1.3345  0.8188 -0.0065
  112SAPE  H13Y11720   5.660   3.785   4.023 -0.2105  1.1865  0.3179
  112SAPE  C31411721   5.789   3.859   4.183 -0.2934 -0.1723  0.0028
  112SAPE  H14X11722   5.723   3.947   4.200  0.8105  0.4940  1.0313
  112SAPE  H14Y11723   5.897   3.886   4.193 -0.1395 -0.7532 -0.0372
  112SAPE  C31511724   5.744   3.776   4.310  0.5191  0.3654 -0.6281
  112SAPE  H15X11725   5.808   3.685   4.319 -0.7210 -0.3788  1.2243
  112SAPE  H15Y11726   5.635   3.758   4.302  0.1301  1.2556  1.8571
  112SAPE  C31611727   5.756   3.869   4.430 -0.7903  0.0558  0.3373
  112SAPE  H16X11728   5.696   3.959   4.403  1.3594  1.8326  1.2031
  112SAPE  H16Y11729   5.864   3.889   4.441 -0.3634 -1.9152  0.1541
  112SAPE  C31711730   5.706   3.816   4.567 -0.3402 -0.3495  0.1314
  112SAPE  H17X11731   5.601   3.786   4.549 -0.1704  0.0908 -1.7882
  112SAPE  H17Y11732   5.693   3.897   4.642  1.1959 -0.4836  0.5747
  112SAPE  C31811733   5.800   3.707   4.628  0.2251 -0.8808  0.1814
  112SAPE  H18X11734   5.907   3.728   4.608 -0.0650 -0.6359 -1.3095
  112SAPE  H18Y11735   5.771   3.609   4.585 -1.5763 -0.2055 -0.2598
  112SAPE  H18Z11736   5.787   3.719   4.737 -0.5861  3.7585 -0.2024
  113SAPE     N11737   6.252   2.528   1.996  0.2756  0.2339 -0.1142
  113SAPE   HN111738   6.156   2.536   1.957  0.1666 -1.8649 -0.3599
  113SAPE   HN211739   6.261   2.429   2.025  0.6224  0.4562  0.5597
  113SAPE   HN311740   6.253   2.585   2.083 -2.2679  0.9587 -0.4681
  113SAPE   C1211741   6.355   2.565   1.904  0.0640 -0.6251  0.3618
  113SAPE  H12A11742   6.368   2.675   1.906 -0.6033 -0.5615  1.6060
  113SAPE  H12B11743   6.335   2.534   1.799 -2.9931  0.7029  0.4409
  113SAPE   C1111744   6.497   2.508   1.939  0.6876  0.0418  0.0146
  113SAPE  H11A11745   6.562   2.526   1.851 -0.2755 -2.4714 -1.3220
  113SAPE  H11B11746   6.491   2.397   1.942 -0.3702  0.0242 -1.2975
  113SAPE     P11747   6.689   2.513   2.111  0.1879 -0.1418  0.1577
  113SAPE   O1311748   6.757   2.448   1.997 -0.1177  0.3984  0.1750
  113SAPE   O1411749   6.771   2.616   2.180  0.7928 -0.1086 -0.0396
  113SAPE   O1211750   6.549   2.569   2.054 -0.2272  0.2204 -0.1894
  113SAPE   O1111751   6.656   2.402   2.219 -0.9883 -0.3749  0.0675
  113SAPE    C111752   6.524   2.369   2.265  0.1245  0.2692 -0.8172
  113SAPE    HA11753   6.443   2.417   2.207  0.1109 -0.2261 -1.2161
  113SAPE    HB11754   6.505   2.260   2.256 -0.8411  0.2155  1.3738
  113SAPE    C211755   6.495   2.397   2.415  0.1891  0.3101  0.3602
  113SAPE    HS11756   6.524   2.504   2.429 -0.9539  0.5769  0.8164
  113SAPE   O2111757   6.584   2.312   2.492 -0.1348 -0.1134 -0.0818
  113SAPE   C2111758   6.612   2.364   2.607  0.5311  0.1862  0.0422
  113SAPE   O2211759   6.569   2.471   2.647 -0.0091 -0.0759  0.7686
  113SAPE   C2211760   6.708   2.277   2.680  0.0649  1.1514  0.0013
  113SAPE   H2R11761   6.655   2.181   2.700  0.1594  1.0490 -0.2329
  113SAPE   H2S11762   6.791   2.267   2.607 -0.8392 -0.9038 -0.8212
  113SAPE    C311763   6.343   2.371   2.448  0.2905  0.1189  0.3171
  113SAPE    HX11764   6.338   2.261   2.466  3.0753  0.0358  1.0577
  113SAPE    HY11765   6.284   2.407   2.361 -0.2299  1.4776  1.2177
  113SAPE   O3111766   6.302   2.433   2.571  0.2421 -0.3634  0.4868
  113SAPE   C3111767   6.270   2.557   2.565 -0.0342 -0.0693 -0.5339
  113SAPE   O3211768   6.258   2.623   2.462 -0.8952 -0.7079 -0.2373
  113SAPE   C3211769   6.260   2.597   2.709 -0.0124  0.2817 -0.4971
  113SAPE   H2X11770   6.353   2.576   2.767 -0.6858 -0.9695  0.1679
  113SAPE   H2Y11771   6.179   2.540   2.758  0.1526  0.1072 -0.4260
  113SAPE   C2311772   6.748   2.329   2.818 -1.3188  0.2683 -0.2252
  113SAPE   H3R11773   6.667   2.344   2.892 -0.0086 -3.9956  2.4588
  113SAPE   H3S11774   6.803   2.424   2.800  0.1005 -0.7196 -1.2990
  113SAPE   C2411775   6.844   2.239   2.899  0.0705 -0.3827 -0.3827
  113SAPE   H4R11776   6.881   2.297   2.986 -1.0987  0.4886 -0.4335
  113SAPE   H4S11777   6.929   2.211   2.833  0.2209 -1.7777  0.3673
  113SAPE   C2511778   6.763   2.126   2.952  0.0285  0.1080  0.1332
  113SAPE   H5R11779   6.706   2.074   2.874  1.6381 -0.7944 -0.4998
  113SAPE   C2611780   6.735   2.096   3.083  0.0179 -0.7848  0.4642
  113SAPE   H6R11781   6.670   2.010   3.102 -0.9102  0.0686  1.2384
  113SAPE   C2711782   6.777   2.183   3.204  0.2621  0.1620  0.0657
  113SAPE   H7R11783   6.688   2.192   3.270  0.5260 -1.8635  0.7587
  113SAPE   H7S11784   6.819   2.282   3.174  0.1340  0.7384  1.6910
  113SAPE   C2811785   6.883   2.115   3.289 -0.4025  0.3601 -0.1398
  113SAPE   H8R11786   6.964   2.060   3.238 -0.8603 -0.7674  0.3221
  113SAPE   C2911787   6.910   2.136   3.421 -0.0220  0.3866 -0.2282
  113SAPE   H9R11788   6.979   2.063   3.465  0.7437  0.3614 -1.4311
  113SAPE  C21011789   6.832   2.215   3.525  0.2125  0.2184 -0.6305
  113SAPE  H10R11790   6.777   2.141   3.588 -0.0767 -1.2397 -2.5123
  113SAPE  H10S11791   6.752   2.284   3.492 -1.0017 -1.8616 -2.2990
  113SAPE  C21111792   6.920   2.284   3.625  0.3659  0.5662  0.1361
  113SAPE  H11R11793   6.958   2.383   3.596  2.1903  0.3525  1.6135
  113SAPE  C21211794   6.973   2.233   3.737  0.1671  0.1797 -0.1252
  113SAPE  H12R11795   7.043   2.295   3.794  1.3084 -1.0037 -0.2047
  113SAPE  C21311796   6.949   2.092   3.788  1.1064 -0.7435 -0.5719
  113SAPE  H13R11797   7.046   2.062   3.834 -0.2463  0.6046  3.5751
  113SAPE  H13S11798   6.917   2.022   3.708  1.6355 -0.9216 -0.6340
  113SAPE  C21411799   6.843   2.097   3.901 -0.3119  0.0576  0.4465
  113SAPE  H14R11800   6.741   2.096   3.860  0.3267 -0.1303 -1.2350
  113SAPE  C21511801   6.868   2.084   4.030 -0.4769 -0.3425 -1.6837
  113SAPE  H15R11802   6.780   2.094   4.096  1.6851  2.7208  1.0302
  113SAPE  C21611803   6.994   2.073   4.115  0.2270  0.6045  0.1742
  113SAPE  H16R11804   6.989   2.114   4.218 -1.7537 -2.0953  1.2593
  113SAPE  H16S11805   7.072   2.123   4.053 -1.5500  1.6121 -1.3475
  113SAPE  C21711806   7.062   1.936   4.132 -0.6561  0.4373 -1.1727
  113SAPE  H17R11807   7.063   1.877   4.038  2.2385 -0.3805 -0.7397
  113SAPE  H17S11808   7.010   1.880   4.212 -0.7526 -0.6238 -1.9522
  113SAPE  C21811809   7.206   1.950   4.159 -0.4503 -0.2960 -0.1435
  113SAPE  H18R11810   7.224   2.043   4.218 -0.6079 -1.2884  1.5472
  113SAPE  H18S11811   7.253   1.978   4.062 -1.5198  0.1901 -0.5361
  113SAPE  C21911812   7.280   1.844   4.237 -0.4604  0.3906 -0.3871
  113SAPE  H19R11813   7.382   1.881   4.259 -0.0925 -0.9133  0.1706
  113SAPE  H19S11814   7.289   1.751   4.178  0.4425  1.7843 -2.5698
  113SAPE  C22011815   7.224   1.816   4.375  0.0081  0.4195 -0.2633
  113SAPE  H20R11816   7.237   1.909   4.435  0.8812  0.1934 -0.0835
  113SAPE  H20S11817   7.278   1.739   4.434 -0.3091  1.6575  1.7328
  113SAPE  H20T11818   7.114   1.802   4.374  0.1741 -1.0479  0.1570
  113SAPE   C3311819   6.245   2.751   2.722 -0.0623 -0.0279 -0.2714
  113SAPE   H3X11820   6.162   2.782   2.654 -0.3312 -0.1730 -0.0143
  113SAPE   H3Y11821   6.340   2.802   2.695 -0.0714  0.3465  0.3916
  113SAPE   C3411822   6.202   2.801   2.863 -0.0677  0.4460 -0.8391
  113SAPE   H4X11823   6.103   2.759   2.891  0.4237  0.7683  1.6754
  113SAPE   H4Y11824   6.196   2.912   2.854 -0.4100  0.3980 -1.1838
  113SAPE   C3511825   6.309   2.770   2.977 -0.1520  0.0343  0.0517
  113SAPE   H5X11826   6.407   2.821   2.964 -1.4588  2.7396  0.0965
  113SAPE   H5Y11827   6.329   2.662   2.962 -0.1439  0.0687 -0.1968
  113SAPE   C3611828   6.255   2.792   3.119 -0.3732 -0.3960 -0.1957
  113SAPE   H6X11829   6.164   2.728   3.129 -2.2158  2.2573  1.2855
  113SAPE   H6Y11830   6.234   2.901   3.129  1.6399  0.5757 -4.3474
  113SAPE   C3711831   6.362   2.767   3.229 -0.1630  0.4368 -0.4872
  113SAPE   H7X11832   6.446   2.834   3.200  0.7338 -0.5432 -0.2471
  113SAPE   H7Y11833   6.402   2.663   3.228  2.2423  1.2655 -2.3632
  113SAPE   C3811834   6.306   2.799   3.369  0.6230  0.0356 -0.0039
  113SAPE   H8X11835   6.288   2.907   3.384 -2.2816 -0.3128 -0.5264
  113SAPE   H8Y11836   6.208   2.748   3.366 -0.4796  2.1204 -0.9498
  113SAPE   C3911837   6.391   2.746   3.488  0.3863 -0.1883 -0.2346
  113SAPE   H9X11838   6.492   2.791   3.495 -0.5723  1.9411  0.9252
  113SAPE   H9Y11839   6.405   2.636   3.483 -0.2055 -0.2589 -0.4754
  113SAPE  C31011840   6.327   2.795   3.619 -0.5713  0.4653  0.4964
  113SAPE  H10X11841   6.225   2.754   3.633  1.0922 -4.2169  0.5312
  113SAPE  H10Y11842   6.318   2.906   3.617 -1.5423  0.4370  1.8020
  113SAPE  C31111843   6.402   2.750   3.740 -0.3804  0.3070 -0.1622
  113SAPE  H11X11844   6.349   2.786   3.830  0.6596 -2.3085  1.6331
  113SAPE  H11Y11845   6.506   2.786   3.754  0.8276 -3.3290  1.6754
  113SAPE  C31211846   6.421   2.601   3.765 -0.0615 -0.0400  0.1452
  113SAPE  H12X11847   6.483   2.565   3.680 -0.9162  0.7266 -0.8314
  113SAPE  H12Y11848   6.328   2.541   3.773  1.2908 -2.1362  0.9946
  113SAPE  C31311849   6.503   2.572   3.896  0.5589  0.5107  0.3572
  113SAPE  H13X11850   6.440   2.606   3.981 -2.6140 -0.1617 -1.5647
  113SAPE  H13Y11851   6.602   2.617   3.874  1.1688 -1.4495 -1.2161
  113SAPE  C31411852   6.530   2.417   3.914 -1.1053  0.8400 -0.2256
  113SAPE  H14X11853   6.584   2.383   3.823  1.5057  1.6272  0.9327
  113SAPE  H14Y11854   6.436   2.360   3.924  1.4157 -3.7204 -0.0224
  113SAPE  C31511855   6.610   2.385   4.042  0.8687 -0.4213 -0.9643
  113SAPE  H15X11856   6.707   2.438   4.032  1.0094 -0.2378  0.9664
  113SAPE  H15Y11857   6.630   2.276   4.047 -3.4729 -1.3358 -0.0707
  113SAPE  C31611858   6.549   2.432   4.172 -0.4920  0.3837 -0.5083
  113SAPE  H16X11859   6.450   2.389   4.194 -1.5639  2.3173 -1.2745
  113SAPE  H16Y11860   6.504   2.532   4.153 -2.0429 -0.3740 -0.9648
  113SAPE  C31711861   6.639   2.428   4.297 -0.0567 -0.1223  0.6222
  113SAPE  H17X11862   6.722   2.498   4.276  0.5937 -0.6157  1.4601
  113SAPE  H17Y11863   6.671   2.321   4.296 -0.5938 -0.3069 -1.6895
  113SAPE  C31811864   6.555   2.461   4.416  0.3667 -0.4242 -0.5367
  113SAPE  H18X11865   6.605   2.421   4.507  1.0047 -1.4151 -1.3079
  113SAPE  H18Y11866   6.457   2.408   4.422  1.0127 -1.7558 -1.3450
  113SAPE  H18Z11867   6.544   2.570   4.431  0.5155 -0.3269 -1.1280
  114SAPE     N11868   0.373   3.679   2.194  0.5269  0.1753  0.2523
  114SAPE   HN111869   0.442   3.757   2.198  1.9685 -0.9316 -1.3082
  114SAPE   HN211870   0.393   3.606   2.265  0.2859  0.6749  0.8441
  114SAPE   HN311871   0.397   3.648   2.097  2.2914  1.0831  0.3464
  114SAPE   C1211872   0.232   3.729   2.212  0.3315 -0.0929  0.1706
  114SAPE  H12A11873   0.158   3.657   2.172 -1.4789  2.5403 -1.5396
  114SAPE  H12B11874   0.216   3.809   2.137 -0.1286 -0.3086  0.0332
  114SAPE   C1111875   0.205   3.779   2.359  0.5117 -0.0575  0.0942
  114SAPE  H11A11876   0.296   3.835   2.389  1.1935 -0.8030 -0.5304
  114SAPE  H11B11877   0.210   3.698   2.435 -0.2319 -0.3741 -0.1780
  114SAPE     P11878  -0.053   3.847   2.345  0.3668  0.4109 -0.1712
  114SAPE   O1311879  -0.120   3.962   2.410  0.4674 -0.4113 -0.3037
  114SAPE   O1411880  -0.076   3.829   2.198  0.4447 -0.0756 -0.3599
  114SAPE   O1211881   0.095   3.872   2.366 -0.1465  0.6607  0.1798
  114SAPE   O1111882  -0.075   3.726   2.445  0.5523 -0.2928  0.5896
  114SAPE    C111883  -0.043   3.723   2.579 -0.4140  0.4814  0.1863
  114SAPE    HA11884   0.066   3.738   2.595 -0.4684 -0.3005  1.4637
  114SAPE    HB11885  -0.097   3.804   2.631  1.4994  1.7588  0.2742
  114SAPE    C211886  -0.077   3.586   2.642  0.0925  0.1495  0.0077
  114SAPE    HS11887  -0.041   3.509   2.571  0.2637  1.3550 -1.2412
  114SAPE   O2111888  -0.219   3.587   2.654  0.0569  0.1978  0.1611
  114SAPE   C2111889  -0.269   3.474   2.696 -0.0909 -0.7600 -0.4507
  114SAPE   O2211890  -0.210   3.366   2.711  0.1301 -0.2367  0.4329
  114SAPE   C2211891  -0.406   3.504   2.757 -0.1490 -0.6885 -0.0618
  114SAPE   H2R11892  -0.464   3.569   2.688 -0.9853 -0.8995  0.4265
  114SAPE   H2S11893  -0.457   3.406   2.758 -1.9663  0.2190  0.4160
  114SAPE    C311894  -0.011   3.561   2.786  0.8552 -0.4572  0.1004
  114SAPE    HX11895   0.098   3.580   2.774  0.0501  3.5501 -2.9371
  114SAPE    HY11896  -0.019   3.456   2.821  1.5165  0.3946  3.1394
  114SAPE   O3111897  -0.066   3.661   2.884 -0.0073  0.6987 -0.8664
  114SAPE   C3111898  -0.014   3.636   3.002 -0.1124  1.1841 -0.5756
  114SAPE   O3211899   0.066   3.550   3.033 -0.1814  0.5889 -0.2098
  114SAPE   C3211900  -0.070   3.733   3.102 -0.0804 -0.3451  0.1676
  114SAPE   H2X11901  -0.181   3.728   3.099 -0.0651 -1.2203  0.7084
  114SAPE   H2Y11902  -0.045   3.839   3.080  0.3408 -0.5606 -0.3994
  114SAPE   C2311903  -0.411   3.566   2.900 -0.2530  0.1671  0.4946
  114SAPE   H3R11904  -0.350   3.658   2.915  2.1105 -1.2180 -0.0017
  114SAPE   H3S11905  -0.367   3.502   2.980 -0.4150  0.1595  0.5771
  114SAPE   C2411906  -0.552   3.607   2.951  0.3662  0.7776  0.3635
  114SAPE   H4R11907  -0.540   3.622   3.060  0.8084  0.2955  0.3810
  114SAPE   H4S11908  -0.610   3.513   2.942 -0.4118  1.1929  0.9108
  114SAPE   C2511909  -0.621   3.718   2.874 -0.7026  0.3553 -0.6180
  114SAPE   H5R11910  -0.668   3.697   2.777  0.3651 -0.0451 -1.0636
  114SAPE   C2611911  -0.615   3.844   2.918  0.3623  0.3078 -0.4858
  114SAPE   H6R11912  -0.688   3.914   2.875 -0.3429 -1.8960 -3.1769
  114SAPE   C2711913  -0.559   3.890   3.051  0.4969  0.3173 -0.0126
  114SAPE   H7R11914  -0.479   3.821   3.085  0.5912  1.4488  2.3028
  114SAPE   H7S11915  -0.639   3.882   3.129  0.8009  0.7083  0.3464
  114SAPE   C2811916  -0.487   4.023   3.036  0.8082 -0.2197 -0.1041
  114SAPE   H8R11917  -0.436   4.037   2.940 -0.9838 -0.2936 -1.1128
  114SAPE   C2911918  -0.488   4.123   3.127 -0.1568  0.2614  0.0063
  114SAPE   H9R11919  -0.437   4.215   3.095 -0.3557 -0.2387 -1.8523
  114SAPE  C21011920  -0.564   4.120   3.256 -0.0412 -0.4447 -0.1152
  114SAPE  H10R11921  -0.640   4.040   3.265 -0.2781 -0.0467  1.9097
  114SAPE  H10S11922  -0.622   4.214   3.266 -0.1934 -0.6256  0.7721
  114SAPE  C21111923  -0.455   4.121   3.361 -0.4964 -0.4675 -0.2985
  114SAPE  H11R11924  -0.373   4.050   3.345 -0.7706 -1.2687  1.5632
  114SAPE  C21211925  -0.455   4.182   3.483 -0.1375 -0.2503 -0.0883
  114SAPE  H12R11926  -0.366   4.168   3.546  0.5786  0.9323 -0.8088
  114SAPE  C21311927  -0.567   4.256   3.545  0.1494  0.6035  0.0565
  114SAPE  H13R11928  -0.641   4.176   3.567  2.6289 -0.9239  3.7784
  114SAPE  H13S11929  -0.620   4.316   3.467  0.5647  0.3622 -0.4206
  114SAPE  C21411930  -0.540   4.330   3.673  0.1124  0.3746 -0.2081
  114SAPE  H14R11931  -0.518   4.436   3.652  1.3013  0.2735  0.4533
  114SAPE  C21511932  -0.559   4.287   3.802 -0.3978 -0.7041 -0.0601
  114SAPE  H15R11933  -0.537   4.363   3.878  0.7242  0.6028 -1.6331
  114SAPE  C21611934  -0.593   4.144   3.842  0.4800  0.0831  0.6255
  114SAPE  H16R11935  -0.513   4.088   3.895 -0.2342 -0.9972  0.5923
  114SAPE  H16S11936  -0.630   4.093   3.751 -0.4974  1.2714  0.3331
  114SAPE  C21711937  -0.711   4.142   3.942  0.0196  0.4080 -0.0140
  114SAPE  H17R11938  -0.760   4.045   3.918 -1.2882  1.0431 -0.0057
  114SAPE  H17S11939  -0.779   4.230   3.930  0.1113  0.1674 -2.7950
  114SAPE  C21811940  -0.660   4.150   4.087  0.3686  0.0024  0.1136
  114SAPE  H18R11941  -0.586   4.231   4.097  1.8422 -1.3374  0.5230
  114SAPE  H18S11942  -0.610   4.055   4.118 -1.1680 -1.4323 -1.5859
  114SAPE  C21911943  -0.775   4.177   4.191  0.1705 -1.0548 -0.1927
  114SAPE  H19R11944  -0.828   4.086   4.226  3.2864 -2.3811  1.4627
  114SAPE  H19S11945  -0.843   4.240   4.131 -1.8544 -1.6707  1.3572
  114SAPE  C22011946  -0.718   4.254   4.316 -0.9155 -0.2560  0.3163
  114SAPE  H20R11947  -0.638   4.206   4.376 -0.3682  2.8436  2.2671
  114SAPE  H20S11948  -0.795   4.294   4.385 -1.7766  0.6103 -1.0851
  114SAPE  H20T11949  -0.667   4.339   4.267 -0.1497 -1.0160 -0.2543
  114SAPE   C3311950  -0.040   3.695   3.247  0.3653  0.7059  0.7548
  114SAPE   H3X11951   0.069   3.712   3.262  0.5123  1.4316 -0.9197
  114SAPE   H3Y11952  -0.041   3.584   3.257 -0.6756  0.1308 -3.5817
  114SAPE   C3411953  -0.124   3.763   3.353  0.0643 -0.2343 -0.4063
  114SAPE   H4X11954  -0.231   3.734   3.346 -0.0775 -0.2448  1.3479
  114SAPE   H4Y11955  -0.122   3.874   3.346  0.8456 -0.1473  0.9456
  114SAPE   C3511956  -0.070   3.750   3.498 -0.2251 -0.1131  0.2177
  114SAPE   H5X11957   0.039   3.774   3.500 -0.3655  0.6144  3.1015
  114SAPE   H5Y11958  -0.088   3.647   3.537  0.4915 -0.7224 -1.0059
  114SAPE   C3611959  -0.124   3.839   3.607 -0.3636  0.0613  0.1197
  114SAPE   H6X11960  -0.233   3.821   3.617 -0.7722  1.1520 -1.6926
  114SAPE   H6Y11961  -0.123   3.945   3.571 -0.9843  0.3081  0.8133
  114SAPE   C3711962  -0.039   3.832   3.732 -0.3791  0.2661 -0.6103
  114SAPE   H7X11963  -0.026   3.935   3.771  1.8755 -0.4942  0.8300
  114SAPE   H7Y11964   0.067   3.812   3.702 -0.5703  0.4436 -1.4448
  114SAPE   C3811965  -0.089   3.729   3.836  0.4545  0.1960  0.7495
  114SAPE   H8X11966  -0.062   3.625   3.805  0.3456  0.3510  0.1201
  114SAPE   H8Y11967  -0.200   3.738   3.840  0.3272  0.8278 -2.2023
  114SAPE   C3911968  -0.011   3.750   3.966  0.2070 -1.2252  0.5885
  114SAPE   H9X11969  -0.027   3.851   4.009  1.6875 -0.6309 -0.1712
  114SAPE   H9Y11970   0.098   3.740   3.946  0.5646 -2.0348  2.6698
  114SAPE  C31011971  -0.061   3.654   4.074  0.0517  0.2014  0.3523
  114SAPE  H10X11972  -0.065   3.552   4.029 -0.2325  0.8631 -1.2210
  114SAPE  H10Y11973  -0.167   3.680   4.089  0.3223  1.0364  0.8406
  114SAPE  C31111974   0.017   3.667   4.205  0.7243  0.7904  0.2454
  114SAPE  H11X11975   0.125   3.683   4.186  0.8643  0.0040  0.3273
  114SAPE  H11Y11976   0.017   3.572   4.263  0.7276  0.5560 -0.1355
  114SAPE  C31211977  -0.032   3.783   4.286 -0.6600 -0.4419  0.2035
  114SAPE  H12X11978  -0.140   3.772   4.311 -0.8217  2.0904  0.8952
  114SAPE  H12Y11979  -0.020   3.879   4.233 -0.7654  1.4711  3.4264
  114SAPE  C31311980   0.036   3.804   4.422 -0.1262  0.4974  0.7453
  114SAPE  H13X11981   0.137   3.834   4.388  0.2004 -0.1695  1.0990
  114SAPE  H13Y11982   0.025   3.698   4.454 -4.1475  0.2060 -1.0164
  114SAPE  C31411983  -0.026   3.902   4.520  0.4418 -0.6032  0.2540
  114SAPE  H14X11984   0.016   4.001   4.493 -2.2266  0.3235 -0.9200
  114SAPE  H14Y11985   0.019   3.888   4.620  3.0456  1.3996 -0.5276
  114SAPE  C31511986  -0.179   3.905   4.537 -0.0511 -0.0034 -0.3431
  114SAPE  H15X11987  -0.213   3.806   4.576 -0.7676 -0.5533 -2.2507
  114SAPE  H15Y11988  -0.237   3.918   4.443 -1.4576 -1.0299  0.3326
  114SAPE  C31611989  -0.223   4.012   4.639 -0.4454 -0.7151  0.4157
  114SAPE  H16X11990  -0.222   4.107   4.582  1.4072 -0.7214  0.3590
  114SAPE  H16Y11991  -0.144   4.033   4.714 -1.5704  3.0497  0.7125
  114SAPE  C31711992  -0.366   4.001   4.693 -0.1273  0.4708 -0.1694
  114SAPE  H17X11993  -0.361   4.024   4.801 -0.2933 -0.2586 -0.0029
  114SAPE  H17Y11994  -0.404   3.898   4.675  0.1276 -0.0012  1.7523
  114SAPE  C31811995  -0.466   4.103   4.639 -0.2971 -0.3054 -0.1000
  114SAPE  H18X11996  -0.564   4.084   4.689 -0.2382 -0.1496  0.0772
  114SAPE  H18Y11997  -0.495   4.102   4.532 -1.2107  1.7489  0.0702
  114SAPE  H18Z11998  -0.429   4.206   4.658 -1.0178  0.4454 -2.4695
  115SAPE     N11999   1.110   4.372   2.345  0.2172  0.3709 -0.6475
  115SAPE   HN112000   1.146   4.361   2.442 -0.9451 -1.2104 -0.3527
  115SAPE   HN212001   1.146   4.298   2.281 -1.0445  0.1999 -1.1870
  115SAPE   HN312002   1.150   4.462   2.312 -1.2298  0.3955 -2.5007
  115SAPE   C1212003   0.964   4.372   2.359 -0.1984 -0.0608 -0.2291
  115SAPE  H12A12004   0.936   4.455   2.428 -0.2405 -1.8027  1.9925
  115SAPE  H12B12005   0.933   4.276   2.407  0.0099 -0.0564 -0.0856
  115SAPE   C1112006   0.898   4.397   2.224  0.0357  0.1435  0.5608
  115SAPE  H11A12007   0.788   4.396   2.241 -0.2193 -0.9231 -0.9455
  115SAPE  H11B12008   0.926   4.314   2.156 -0.1467  0.9679 -0.5556
  115SAPE     P12009   0.875   4.651   2.155  0.0636  0.2343  0.0819
  115SAPE   O1312010   0.955   4.754   2.090 -0.1405 -0.0625  0.4093
  115SAPE   O1412011   0.747   4.614   2.089 -0.4558 -0.4030  0.1536
  115SAPE   O1212012   0.952   4.512   2.155 -0.2261  0.4533 -0.1473
  115SAPE   O1112013   0.859   4.678   2.309  0.4882  0.6004  0.4245
  115SAPE    C112014   0.920   4.788   2.379 -0.2807  0.5935 -0.5107
  115SAPE    HA12015   1.015   4.823   2.335  0.3824  1.1685  1.2863
  115SAPE    HB12016   0.854   4.877   2.382 -0.9709  0.2333 -3.0135
  115SAPE    C212017   0.959   4.745   2.525 -0.4091 -1.2526 -0.0993
  115SAPE    HS12018   1.011   4.647   2.515 -0.8033 -1.3488 -1.4006
  115SAPE   O2112019   0.845   4.730   2.605  0.1957  0.2638  0.5418
  115SAPE   C2112020   0.850   4.616   2.681  0.6829 -0.0997 -0.2950
  115SAPE   O2212021   0.938   4.529   2.685 -0.2188 -0.3771  0.3376
  115SAPE   C2212022   0.719   4.631   2.766 -0.3520 -0.3263  0.0204
  115SAPE   H2R12023   0.727   4.733   2.811 -0.5321 -0.1666 -0.3121
  115SAPE   H2S12024   0.629   4.623   2.703 -0.8319 -1.2627  0.8000
  115SAPE    C312025   1.065   4.839   2.590 -0.0285 -0.0060  0.1514
  115SAPE    HX12026   1.018   4.939   2.600  0.6828  0.3270  0.2014
  115SAPE    HY12027   1.145   4.865   2.518  0.4238  0.2260  0.7340
  115SAPE   O3112028   1.113   4.785   2.714 -0.2327  0.9714 -0.0063
  115SAPE   C3112029   1.184   4.871   2.788  0.5937  0.1689 -0.5967
  115SAPE   O3212030   1.214   4.984   2.759  0.3216 -0.5822 -0.0532
  115SAPE   C3212031   1.225   4.813   2.921  0.7698  0.5965 -0.2145
  115SAPE   H2X12032   1.283   4.887   2.981  1.0483 -1.0062  1.5697
  115SAPE   H2Y12033   1.305   4.737   2.905  0.8981  0.7790 -0.4611
  115SAPE   C2312034   0.712   4.526   2.884  0.2285 -0.2790 -0.0651
  115SAPE   H3R12035   0.812   4.528   2.932  1.0298 -2.3410 -1.4645
  115SAPE   H3S12036   0.695   4.434   2.823  0.8574  0.1440 -0.8908
  115SAPE   C2412037   0.596   4.539   2.981 -0.2006  0.4252  0.0056
  115SAPE   H4R12038   0.507   4.546   2.915 -0.5899  0.5911  0.5428
  115SAPE   H4S12039   0.615   4.636   3.032 -1.1684  0.6292 -0.0044
  115SAPE   C2512040   0.595   4.420   3.074  0.3780 -0.1407 -0.0020
  115SAPE   H5R12041   0.613   4.321   3.028  0.3157 -1.2261  2.1436
  115SAPE   C2612042   0.578   4.423   3.208  0.1901  0.2341 -0.0486
  115SAPE   H6R12043   0.578   4.330   3.268  2.3143 -0.4491 -0.9995
  115SAPE   C2712044   0.554   4.547   3.294  0.2761  0.2863  0.4356
  115SAPE   H7R12045   0.454   4.542   3.340  1.0257 -1.0623  2.0094
  115SAPE   H7S12046   0.550   4.636   3.228 -0.2812  0.4025  0.6297
  115SAPE   C2812047   0.653   4.574   3.401  0.2665  0.3447 -0.2797
  115SAPE   H8R12048   0.738   4.633   3.364  0.4454 -1.3242 -2.7334
  115SAPE   C2912049   0.648   4.533   3.530  0.1428 -0.1663  0.0727
  115SAPE   H9R12050   0.728   4.566   3.598  1.1842  1.6146 -1.9041
  115SAPE  C21012051   0.545   4.440   3.590 -0.6224  0.1252 -0.0160
  115SAPE  H10R12052   0.490   4.386   3.509  0.5719  1.0672 -1.5276
  115SAPE  H10S12053   0.470   4.491   3.653 -0.8405 -0.0694 -0.1189
  115SAPE  C21112054   0.614   4.347   3.687 -0.4431 -0.4038 -0.4122
  115SAPE  H11R12055   0.654   4.257   3.636  1.9933  0.5171 -0.2623
  115SAPE  C21212056   0.618   4.355   3.822 -0.1147 -0.6849 -0.0935
  115SAPE  H12R12057   0.662   4.274   3.883 -3.6278 -1.7231  1.2897
  115SAPE  C21312058   0.569   4.473   3.907 -0.1214  0.7877 -0.2893
  115SAPE  H13R12059   0.559   4.557   3.834  0.1116  1.8721  0.8954
  115SAPE  H13S12060   0.652   4.498   3.976  0.3139  2.2408 -1.2676
  115SAPE  C21412061   0.437   4.454   3.971 -0.3413 -0.3087  0.0189
  115SAPE  H14R12062   0.355   4.406   3.914 -1.0143 -0.6393  1.2274
  115SAPE  C21512063   0.401   4.508   4.088 -0.3623  0.8310 -0.6492
  115SAPE  H15R12064   0.306   4.481   4.138 -0.6598 -2.8720 -2.8256
  115SAPE  C21612065   0.501   4.574   4.175 -0.2938  0.2156  0.0134
  115SAPE  H16R12066   0.447   4.653   4.232  1.2105 -0.1199  2.0042
  115SAPE  H16S12067   0.581   4.623   4.115  0.4643  0.0278  0.8643
  115SAPE  C21712068   0.570   4.478   4.271  0.2930 -0.4591 -0.1661
  115SAPE  H17R12069   0.628   4.400   4.217  0.4917 -0.0489 -0.5520
  115SAPE  H17S12070   0.493   4.428   4.334 -0.9205 -2.2122 -2.8527
  115SAPE  C21812071   0.655   4.551   4.370  0.2313  0.8077 -0.5641
  115SAPE  H18R12072   0.625   4.655   4.394 -0.3447  0.6909 -0.7686
  115SAPE  H18S12073   0.745   4.575   4.309 -0.5226 -0.3468 -2.1934
  115SAPE  C21912074   0.698   4.460   4.485 -0.7481 -1.0788 -0.4035
  115SAPE  H19R12075   0.751   4.375   4.436  3.1478 -0.8073  2.7774
  115SAPE  H19S12076   0.616   4.408   4.538  1.7561 -4.3074  0.6458
  115SAPE  C22012077   0.797   4.528   4.581 -0.2228 -0.9291 -0.2461
  115SAPE  H20R12078   0.856   4.458   4.643  0.9551  0.7841  0.6362
  115SAPE  H20S12079   0.755   4.616   4.635  2.5217  0.2889  0.0572
  115SAPE  H20T12080   0.870   4.580   4.515 -0.9567 -0.3266 -0.6139
  115SAPE   C3312081   1.102   4.761   2.998  0.4411  1.4689  0.2230
  115SAPE   H3X12082   1.074   4.661   2.960  2.8944  1.3095 -1.4682
  115SAPE   H3Y12083   1.009   4.817   2.975 -1.4775 -1.1552  1.1380
  115SAPE   C3412084   1.126   4.746   3.153  0.1282 -0.3662 -0.5045
  115SAPE   H4X12085   1.162   4.845   3.186 -1.5232  0.1008 -0.0161
  115SAPE   H4Y12086   1.209   4.676   3.175 -0.0386 -0.3741  0.1172
  115SAPE   C3512087   0.994   4.707   3.228  0.1703  0.7541  0.5210
  115SAPE   H5X12088   0.965   4.610   3.182  0.3118  2.0235 -2.4719
  115SAPE   H5Y12089   0.914   4.779   3.201 -1.5186 -1.8644 -2.0585
  115SAPE   C3612090   1.026   4.677   3.378 -1.0400  0.1277  0.0181
  115SAPE   H6X12091   0.932   4.680   3.437 -0.1112 -1.6285  1.6941
  115SAPE   H6Y12092   1.090   4.762   3.410  0.8777 -1.2811  0.1537
  115SAPE   C3712093   1.083   4.533   3.397 -0.5057  0.4711  0.2901
  115SAPE   H7X12094   1.149   4.505   3.312 -0.6921 -3.3645  1.2258
  115SAPE   H7Y12095   0.992   4.469   3.392 -1.2874  1.4087  1.9386
  115SAPE   C3812096   1.149   4.499   3.538  0.2066  0.3720  0.3319
  115SAPE   H8X12097   1.236   4.567   3.551 -1.2762  2.2026  1.1006
  115SAPE   H8Y12098   1.179   4.392   3.529  2.0764  0.8026  0.8794
  115SAPE   C3912099   1.052   4.524   3.654  0.2485 -0.0601  0.2018
  115SAPE   H9X12100   0.957   4.474   3.625  0.0025 -0.0880  1.0531
  115SAPE   H9Y12101   1.032   4.633   3.656  1.0293  0.1635 -1.6701
  115SAPE  C31012102   1.096   4.465   3.785  0.6197 -0.3679 -0.4584
  115SAPE  H10X12103   1.182   4.520   3.827 -1.8918  2.1717  1.8288
  115SAPE  H10Y12104   1.130   4.360   3.770 -0.3519 -0.6010 -1.1643
  115SAPE  C31112105   0.980   4.460   3.886 -0.0857 -0.5405 -0.0819
  115SAPE  H11X12106   0.905   4.387   3.851  0.0533 -1.2897  1.1458
  115SAPE  H11Y12107   0.934   4.560   3.897  2.6968  0.6436  2.0169
  115SAPE  C31212108   1.031   4.407   4.021 -0.2969  0.2338 -0.1295
  115SAPE  H12X12109   1.087   4.482   4.081 -2.8511 -0.1100  2.9999
  115SAPE  H12Y12110   1.109   4.331   4.001 -1.4421 -1.4468  1.4585
  115SAPE  C31312111   0.925   4.351   4.103  0.1497 -0.7924  0.0297
  115SAPE  H13X12112   0.858   4.294   4.035 -1.5341  1.0084  0.0859
  115SAPE  H13Y12113   0.864   4.434   4.144 -3.5202 -3.1262 -0.3268
  115SAPE  C31412114   0.969   4.252   4.210 -0.5004 -0.1241 -0.1038
  115SAPE  H14X12115   1.027   4.173   4.156 -0.1462  0.9032 -1.2866
  115SAPE  H14Y12116   0.882   4.219   4.270 -0.7395 -0.0116 -0.3883
  115SAPE  C31512117   1.066   4.313   4.317 -0.0277  0.6815  0.2897
  115SAPE  H15X12118   1.003   4.385   4.373 -0.1785  1.4130 -0.7760
  115SAPE  H15Y12119   1.151   4.366   4.270  0.1174  1.4834  1.4201
  115SAPE  C31612120   1.121   4.211   4.416 -0.0258 -0.6212 -0.4228
  115SAPE  H16X12121   1.166   4.133   4.350  1.4371  0.3767 -0.6734
  115SAPE  H16Y12122   1.045   4.167   4.484 -1.5285  2.8666  0.4047
  115SAPE  C31712123   1.217   4.270   4.515  0.2702 -0.4678 -0.1101
  115SAPE  H17X12124   1.292   4.328   4.456 -0.0584 -0.8278 -0.8941
  115SAPE  H17Y12125   1.276   4.200   4.579  0.0002 -0.3596  0.2613
  115SAPE  C31812126   1.142   4.364   4.609  0.5860  0.0811  0.2683
  115SAPE  H18X12127   1.059   4.309   4.658  0.1072 -0.5408 -1.1900
  115SAPE  H18Y12128   1.088   4.441   4.550  0.1793 -0.9330 -0.7186
  115SAPE  H18Z12129   1.218   4.405   4.680 -0.2871 -1.7446  2.4084
  116SAPE     N12130   0.313   1.159   2.224  0.6400 -0.4039 -0.0461
  116SAPE   HN112131   0.284   1.243   2.279 -1.4529  0.9056 -2.8547
  116SAPE   HN212132   0.310   1.188   2.124 -1.9052  0.3164  0.1677
  116SAPE   HN312133   0.242   1.084   2.237 -2.2199  2.0231 -0.4523
  116SAPE   C1212134   0.452   1.096   2.249 -0.4779 -0.0968  0.4428
  116SAPE  H12A12135   0.450   1.074   2.358 -2.3942  0.8899  0.6513
  116SAPE  H12B12136   0.536   1.167   2.231  0.7442 -1.5910  0.0510
  116SAPE   C1112137   0.470   0.968   2.159 -0.4243 -0.1741  0.0510
  116SAPE  H11A12138   0.572   0.924   2.168 -0.0504  0.8250  0.9556
  116SAPE  H11B12139   0.453   1.010   2.057 -1.8411 -0.6063  0.1000
  116SAPE     P12140   0.391   0.767   2.304  0.1489  0.1891 -0.0907
  116SAPE   O1312141   0.275   0.782   2.401 -0.1504 -0.4470  0.4695
  116SAPE   O1412142   0.398   0.632   2.243 -0.2266 -0.2795  0.4195
  116SAPE   O1212143   0.370   0.871   2.187  0.0170  0.0419  0.0833
  116SAPE   O1112144   0.528   0.810   2.361  0.5850  0.1752 -0.4872
  116SAPE    C112145   0.599   0.758   2.473  0.2056  0.0138 -0.4696
  116SAPE    HA12146   0.548   0.684   2.538  1.4090  0.5411  1.1402
  116SAPE    HB12147   0.679   0.693   2.432 -0.3084  0.1276 -1.6869
  116SAPE    C212148   0.644   0.873   2.568  0.2217  0.2675  0.6304
  116SAPE    HS12149   0.709   0.829   2.647  0.5121 -0.8584 -0.2116
  116SAPE   O2112150   0.542   0.946   2.629 -0.0478 -0.1286  0.2465
  116SAPE   C2112151   0.463   0.886   2.703  0.6473  0.1535 -0.3679
  116SAPE   O2212152   0.488   0.780   2.759  0.0631  0.2135  0.2473
  116SAPE   C2212153   0.328   0.960   2.711  0.3763  0.6941 -0.4509
  116SAPE   H2R12154   0.335   1.070   2.728 -0.0825  0.5542  0.7408
  116SAPE   H2S12155   0.286   0.948   2.609 -0.1901  1.4845 -0.3238
  116SAPE    C312156   0.749   0.975   2.509  0.7857  0.2875  0.3533
  116SAPE    HX12157   0.696   1.041   2.437 -0.1926  0.4534  1.2021
  116SAPE    HY12158   0.826   0.923   2.448  0.7834  0.9640 -0.2409
  116SAPE   O3112159   0.812   1.062   2.608  0.3542  0.3468  0.3652
  116SAPE   C3112160   0.924   1.029   2.675  0.6596 -0.1804  0.4570
  116SAPE   O3212161   0.987   0.924   2.659  0.2508 -0.6850  0.3966
  116SAPE   C3212162   0.965   1.154   2.768  0.4312  0.1569  0.3894
  116SAPE   H2X12163   1.004   1.229   2.697 -0.7032  1.0907  0.7410
  116SAPE   H2Y12164   1.040   1.117   2.842 -1.6687 -1.5692  1.8110
  116SAPE   C2312165   0.217   0.898   2.801 -0.2149 -0.0489 -0.1235
  116SAPE   H3R12166   0.214   0.792   2.769  0.7961  0.2707 -1.4130
  116SAPE   H3S12167   0.118   0.945   2.784 -0.1021  0.8186  1.3979
  116SAPE   C2412168   0.250   0.906   2.947 -0.6223  0.5925  0.0219
  116SAPE   H4R12169   0.323   0.832   2.987  0.6133  1.2667 -0.9130
  116SAPE   H4S12170   0.157   0.872   2.998 -0.2818  0.5346  0.6178
  116SAPE   C2512171   0.281   1.041   3.011 -0.2227  0.2032 -1.0027
  116SAPE   H5R12172   0.370   1.093   2.973 -0.5885  1.6630  0.0344
  116SAPE   C2612173   0.207   1.119   3.089  0.1362  0.7086 -0.1163
  116SAPE   H6R12174   0.246   1.215   3.127  4.3584 -0.8950  0.1571
  116SAPE   C2712175   0.071   1.089   3.143 -0.2364  0.1307 -0.3273
  116SAPE   H7R12176   0.053   1.165   3.222 -1.9756 -1.0980  0.5201
  116SAPE   H7S12177   0.077   0.989   3.192 -1.6992 -0.6984 -1.7252
  116SAPE   C2812178  -0.044   1.099   3.048  0.1869 -0.0294  0.7333
  116SAPE   H8R12179  -0.019   1.060   2.948 -0.4965  0.2677  0.4364
  116SAPE   C2912180  -0.163   1.159   3.070  0.3286  0.0004  0.3135
  116SAPE   H9R12181  -0.242   1.157   2.993  1.7082 -1.1649 -1.1360
  116SAPE  C21012182  -0.215   1.197   3.209 -0.0276 -0.2309  0.2629
  116SAPE  H10R12183  -0.267   1.295   3.203 -1.7307 -1.0125  1.3716
  116SAPE  H10S12184  -0.137   1.195   3.288 -1.3109 -0.9611  1.5470
  116SAPE  C21112185  -0.323   1.110   3.267 -0.0689 -0.2886  0.2108
  116SAPE  H11R12186  -0.384   1.053   3.195  1.5555 -1.2997 -0.4353
  116SAPE  C21212187  -0.350   1.098   3.398  0.8024 -0.1662 -0.7121
  116SAPE  H12R12188  -0.429   1.025   3.421  0.5076 -0.1740 -1.6960
  116SAPE  C21312189  -0.278   1.163   3.514  0.1192 -0.4161  0.2355
  116SAPE  H13R12190  -0.232   1.259   3.484  0.2440 -1.0571 -1.8003
  116SAPE  H13S12191  -0.191   1.102   3.548  0.4134 -0.4507 -0.5565
  116SAPE  C21412192  -0.376   1.185   3.625 -0.1693 -0.3231 -0.2960
  116SAPE  H14R12193  -0.431   1.278   3.607 -0.0503 -0.1659  0.1459
  116SAPE  C21512194  -0.425   1.101   3.718 -0.1617 -0.4538  0.2558
  116SAPE  H15R12195  -0.489   1.154   3.790  0.7573  1.9149 -0.5594
  116SAPE  C21612196  -0.361   0.971   3.757 -0.0203 -0.1757  0.0072
  116SAPE  H16R12197  -0.279   0.951   3.684 -0.8685 -1.7537 -0.5602
  116SAPE  H16S12198  -0.440   0.894   3.750  0.9103 -1.0183 -3.5194
  116SAPE  C21712199  -0.296   0.962   3.898  0.2955  0.4334  0.1356
  116SAPE  H17R12200  -0.202   1.020   3.908 -0.7774  2.0196  1.6948
  116SAPE  H17S12201  -0.247   0.862   3.893  2.0868  1.3059 -0.3281
  116SAPE  C21812202  -0.383   0.996   4.021  0.3057  0.4385  0.5336
  116SAPE  H18R12203  -0.400   1.106   4.020  2.0608  0.7503 -0.7828
  116SAPE  H18S12204  -0.331   0.967   4.115  1.8444  2.4130  0.3656
  116SAPE  C21912205  -0.519   0.921   4.029 -0.0961 -0.0527 -0.2696
  116SAPE  H19R12206  -0.499   0.811   4.030 -1.0590 -0.2377 -0.2617
  116SAPE  H19S12207  -0.573   0.945   3.935 -0.9994 -0.4968  0.1274
  116SAPE  C22012208  -0.596   0.958   4.154 -0.5164  0.7266  0.3310
  116SAPE  H20R12209  -0.613   1.066   4.176 -2.6736 -0.0167  2.9407
  116SAPE  H20S12210  -0.554   0.898   4.238  1.6685  1.6123 -0.0580
  116SAPE  H20T12211  -0.700   0.922   4.138 -0.5182  1.3129 -1.1473
  116SAPE   C3312212   0.853   1.216   2.848  0.0688 -0.2542 -0.1898
  116SAPE   H3X12213   0.775   1.237   2.772 -0.6654  1.1545  0.9094
  116SAPE   H3Y12214   0.895   1.312   2.884  0.6346 -0.8334  0.7433
  116SAPE   C3412215   0.784   1.137   2.963  0.3921 -0.5220 -0.8378
  116SAPE   H4X12216   0.693   1.195   2.988  1.2407  0.3958  0.2345
  116SAPE   H4Y12217   0.846   1.134   3.056 -1.1798 -0.3388  0.2554
  116SAPE   C3512218   0.742   0.997   2.926  0.2383  0.1658 -0.4355
  116SAPE   H5X12219   0.831   0.931   2.919 -1.1892 -1.7032 -2.2267
  116SAPE   H5Y12220   0.691   1.006   2.828 -0.5099 -0.2099 -0.0963
  116SAPE   C3612221   0.633   0.946   3.023 -0.2245  0.1897  0.2761
  116SAPE   H6X12222   0.584   0.862   2.970 -0.0636 -0.1463  0.6478
  116SAPE   H6Y12223   0.553   1.023   3.029 -1.7754 -1.4094  0.8338
  116SAPE   C3712224   0.688   0.893   3.162 -0.6858 -0.3215  0.5077
  116SAPE   H7X12225   0.757   0.972   3.198  0.2650 -0.3447 -1.1407
  116SAPE   H7Y12226   0.749   0.804   3.135  1.4229  1.6983 -1.9010
  116SAPE   C3812227   0.577   0.867   3.261 -0.5745 -1.1248  0.2603
  116SAPE   H8X12228   0.510   0.801   3.201  0.2063  0.0726 -2.0485
  116SAPE   H8Y12229   0.529   0.953   3.312  0.3469 -0.8883  0.7451
  116SAPE   C3912230   0.623   0.766   3.368 -0.4016  0.8873 -0.0537
  116SAPE   H9X12231   0.719   0.810   3.402  1.1879 -0.7976 -2.0314
  116SAPE   H9Y12232   0.645   0.670   3.317  0.9048  0.9475  0.3580
  116SAPE  C31012233   0.524   0.741   3.477 -0.0381 -0.0754 -0.5627
  116SAPE  H10X12234   0.430   0.701   3.432  0.6472 -2.0493 -0.3536
  116SAPE  H10Y12235   0.506   0.837   3.531 -0.5771 -0.8277  0.6519
  116SAPE  C31112236   0.583   0.651   3.577  0.3292  0.7278  0.2721
  116SAPE  H11X12237   0.685   0.681   3.609 -0.3857  0.4100  3.0925
  116SAPE  H11Y12238   0.599   0.553   3.528 -2.9961  1.0644 -1.9075
  116SAPE  C31212239   0.506   0.627   3.705 -0.0589  0.0856 -0.5677
  116SAPE  H12X12240   0.419   0.563   3.679  0.4283 -1.2991  1.0263
  116SAPE  H12Y12241   0.463   0.719   3.748 -0.7882 -0.1063 -0.8806
  116SAPE  C31312242   0.591   0.561   3.809  0.1447 -0.5602 -0.0601
  116SAPE  H13X12243   0.678   0.629   3.821 -1.3257  1.0771  1.9535
  116SAPE  H13Y12244   0.629   0.463   3.772  0.0972 -0.3728 -0.6026
  116SAPE  C31412245   0.520   0.559   3.942  0.6212  0.2548 -0.3939
  116SAPE  H14X12246   0.423   0.506   3.931  1.1651 -0.6836 -0.7331
  116SAPE  H14Y12247   0.503   0.667   3.965  1.4008  0.2392  0.3141
  116SAPE  C31512248   0.617   0.489   4.048 -0.2177 -0.3388  0.6196
  116SAPE  H15X12249   0.628   0.382   4.022  1.8883  0.0449 -0.2792
  116SAPE  H15Y12250   0.575   0.491   4.151  0.5010 -1.3102  0.9458
  116SAPE  C31612251   0.751   0.560   4.065  0.8037 -0.0821 -0.5461
  116SAPE  H16X12252   0.749   0.663   4.108 -0.1320  0.2301 -1.3007
  116SAPE  H16Y12253   0.810   0.547   3.972  1.4756 -1.2964  0.0269
  116SAPE  C31712254   0.828   0.489   4.171 -0.2393  0.1453  0.1293
  116SAPE  H17X12255   0.843   0.384   4.137 -1.9281  0.7101 -2.7282
  116SAPE  H17Y12256   0.792   0.490   4.276 -1.1931  0.0285 -0.1859
  116SAPE  C31812257   0.966   0.564   4.187  0.6269 -0.2515 -0.2645
  116SAPE  H18X12258   0.949   0.653   4.250  0.5492 -0.1207 -0.4703
  116SAPE  H18Y12259   1.005   0.593   4.087 -1.3011 -0.2762 -1.0619
  116SAPE  H18Z12260   1.039   0.503   4.245  2.5328  2.0884 -0.0173
  117SOPE     N12261   4.836   5.608   6.971  0.6841  0.4331  0.3836
  117SOPE   HN112262   4.766   5.532   6.962 -2.4925  3.2985 -1.4218
  117SOPE   HN212263   4.923   5.576   6.925 -1.1056 -3.0104 -0.9460
  117SOPE   HN312264   4.854   5.620   7.073  1.4250 -0.1586  0.3272
  117SOPE   C1212265   4.798   5.717   6.876 -0.0995 -0.7548 -0.2056
  117SOPE  H12A12266   4.891   5.759   6.833  0.8936 -1.3167  1.3248
  117SOPE  H12B12267   4.735   5.789   6.933  0.2507 -1.1457  0.6900
  117SOPE   C1112268   4.727   5.652   6.752  0.1223 -0.6938 -0.2488
  117SOPE  H11A12269   4.704   5.738   6.685 -1.2822 -1.4245 -0.7267
  117SOPE  H11B12270   4.626   5.617   6.780 -0.6698  2.1097  0.7625
  117SOPE     P12271   4.761   5.459   6.588 -0.2310  0.1244 -0.0989
  117SOPE   O1312272   4.652   5.382   6.648 -0.6446  0.3945  0.5389
  117SOPE   O1412273   4.883   5.381   6.549  0.1142  0.2972  0.3391
  117SOPE   O1212274   4.813   5.560   6.691  0.2608  0.0172 -0.0557
  117SOPE   O1112275   4.710   5.544   6.466  0.0697  0.1007  0.1796
  117SOPE    C112276   4.802   5.633   6.400 -0.7801  0.1410 -0.1757
  117SOPE    HA12277   4.909   5.609   6.419 -0.2655  1.7098 -0.9073
  117SOPE    HB12278   4.798   5.737   6.441 -0.8978 -0.1442  0.5597
  117SOPE    C212279   4.794   5.627   6.244  0.3002 -0.3919  0.0338
  117SOPE    HS12280   4.861   5.711   6.215 -1.4115  0.3171 -2.1614
  117SOPE   O2112281   4.658   5.651   6.204  0.2931  0.1383  0.7914
  117SOPE   C2112282   4.612   5.772   6.215 -0.3764 -0.6834  0.3633
  117SOPE   O2212283   4.683   5.868   6.248  0.2680 -0.0161 -0.1482
  117SOPE   C2212284   4.469   5.778   6.167  0.0017  0.4473 -0.6277
  117SOPE   H2R12285   4.409   5.808   6.256  1.4199 -2.6495  1.6056
  117SOPE   H2S12286   4.427   5.679   6.138  3.5788 -1.8385  1.1658
  117SOPE    C312287   4.838   5.489   6.182 -0.1975 -0.4981 -0.6144
  117SOPE    HX12288   4.779   5.406   6.226 -0.7459 -1.5214 -3.1249
  117SOPE    HY12289   4.948   5.480   6.198  0.0692 -0.3784 -2.2007
  117SOPE   O3112290   4.809   5.485   6.041  0.0262  0.2104  0.7736
  117SOPE   C3112291   4.874   5.401   5.965 -0.4142  0.3737  0.9579
  117SOPE   O3212292   4.956   5.318   6.010  0.5545  0.1248  0.3584
  117SOPE   C3212293   4.818   5.400   5.824  0.1829 -0.1938  0.1442
  117SOPE   H2X12294   4.790   5.503   5.793  2.3189  0.7384  1.1165
  117SOPE   H2Y12295   4.726   5.342   5.845 -0.9494  1.4205 -0.1148
  117SOPE   C2312296   4.433   5.875   6.055  0.0574  0.0915 -0.3017
  117SOPE   H3R12297   4.481   5.972   6.080  2.0577 -1.3464  1.9037
  117SOPE   H3S12298   4.324   5.899   6.059  0.4684  2.0674  0.2837
  117SOPE   C2412299   4.484   5.838   5.916 -0.4892 -0.2883 -0.1339
  117SOPE   H4R12300   4.445   5.739   5.885  0.3635 -0.3785 -0.9547
  117SOPE   H4S12301   4.443   5.899   5.834  1.2346  1.7546  0.4335
  117SOPE   C2512302   4.634   5.828   5.918  0.4943  0.1593 -0.4152
  117SOPE   H5R12303   4.672   5.909   5.984 -0.6258  1.0429 -0.8199
  117SOPE   H5S12304   4.682   5.733   5.950  2.6204  0.8322 -1.4010
  117SOPE   C2612305   4.696   5.844   5.781 -0.3302 -0.2766  0.8260
  117SOPE   H6R12306   4.703   5.951   5.752  0.6560 -0.1434  1.5222
  117SOPE   H6S12307   4.802   5.813   5.793  0.0421  0.4209 -0.4902
  117SOPE   C2712308   4.638   5.768   5.660  0.1851  0.1572  0.1273
  117SOPE   H7R12309   4.631   5.662   5.691 -0.0303 -0.0084 -0.4891
  117SOPE   H7S12310   4.540   5.801   5.620 -0.9653 -3.3892 -0.2767
  117SOPE   C2812311   4.709   5.759   5.521  0.3804  0.4014 -0.6893
  117SOPE   H8R12312   4.812   5.718   5.537 -0.2030 -0.2569  1.7358
  117SOPE   H8S12313   4.666   5.670   5.470 -2.7897  0.1826  2.0199
  117SOPE   C2912314   4.713   5.879   5.439 -0.2626  0.4752 -0.2663
  117SOPE   H9112315   4.730   5.968   5.501  2.6992  0.1848 -0.5358
  117SOPE  C21012316   4.718   5.892   5.303 -0.4323 -0.0833  0.3707
  117SOPE  H10112317   4.720   5.994   5.263 -4.0398  0.4864  1.3028
  117SOPE  C21112318   4.724   5.773   5.205  0.0308 -0.3084  0.4664
  117SOPE  H11R12319   4.644   5.698   5.221 -0.6199 -0.1143 -1.5756
  117SOPE  H11S12320   4.826   5.729   5.219  2.9115  5.4511  0.5288
  117SOPE  C21212321   4.698   5.835   5.068 -0.3618  0.0603  0.0369
  117SOPE  H12R12322   4.784   5.896   5.032  1.0242  0.3651  3.5174
  117SOPE  H12S12323   4.608   5.900   5.069 -1.1098 -0.4194 -5.6223
  117SOPE  C21312324   4.666   5.722   4.964  0.0033  0.0036  0.0580
  117SOPE  H13R12325   4.566   5.685   4.994 -0.3099 -0.4473 -1.4821
  117SOPE  H13S12326   4.747   5.646   4.978  1.3369  1.4156  0.2488
  117SOPE  C21412327   4.661   5.763   4.821 -0.1145  0.1918  0.1745
  117SOPE  H14R12328   4.755   5.820   4.806  0.2252 -0.2703  0.5400
  117SOPE  H14S12329   4.578   5.834   4.800 -0.0375 -0.0333 -0.9370
  117SOPE  C21512330   4.646   5.637   4.727  0.2657  0.5529  0.2572
  117SOPE  H15R12331   4.558   5.576   4.756  0.8302 -1.5182 -2.1233
  117SOPE  H15S12332   4.740   5.583   4.747  1.0785  2.0210  0.5932
  117SOPE  C21612333   4.632   5.675   4.582  0.2556  0.5151 -0.5164
  117SOPE  H16R12334   4.569   5.765   4.568 -0.7102 -0.1555 -0.5959
  117SOPE  H16S12335   4.578   5.593   4.530 -1.1926  0.7328  0.5607
  117SOPE  C21712336   4.762   5.707   4.510  0.1888  0.8712 -0.3615
  117SOPE  H17R12337   4.822   5.782   4.567  1.1637  0.6045 -1.0329
  117SOPE  H17S12338   4.731   5.740   4.409  3.0748  0.2173 -1.5428
  117SOPE  C21812339   4.847   5.585   4.472  0.3074  0.7637  0.1539
  117SOPE  H18R12340   4.899   5.539   4.558 -1.2534 -2.5347 -0.5271
  117SOPE  H18S12341   4.927   5.621   4.404  1.5095 -0.3683  0.9253
  117SOPE  H18T12342   4.783   5.506   4.428  1.7067 -0.3949  0.1561
  117SOPE   C3312343   4.894   5.322   5.718 -0.1573  0.1907 -0.1049
  117SOPE   H3X12344   4.883   5.214   5.738 -2.0241  0.2369 -0.7305
  117SOPE   H3Y12345   5.002   5.345   5.706  0.2273 -1.7114 -0.6126
  117SOPE   C3412346   4.817   5.339   5.589  0.3055 -0.2987  0.0128
  117SOPE   H4X12347   4.819   5.441   5.546  0.1178 -1.7655 -3.8449
  117SOPE   H4Y12348   4.711   5.328   5.618  0.2403  0.2818 -0.0011
  117SOPE   C3512349   4.856   5.251   5.465 -0.0615  0.1305 -0.2296
  117SOPE   H5X12350   4.881   5.154   5.513  2.9588  0.2468 -1.3741
  117SOPE   H5Y12351   4.946   5.290   5.413 -0.1121  1.5646  0.6798
  117SOPE   C3612352   4.745   5.234   5.355 -0.6416 -0.1143  0.2770
  117SOPE   H6X12353   4.647   5.202   5.397 -2.1503  1.2736 -1.9453
  117SOPE   H6Y12354   4.788   5.160   5.284  0.0459 -0.2473  0.8230
  117SOPE   C3712355   4.710   5.367   5.287  0.3931  0.2306 -0.8440
  117SOPE   H7X12356   4.799   5.418   5.244  0.3550  0.0093 -1.1859
  117SOPE   H7Y12357   4.651   5.431   5.356 -1.4323 -1.4040 -0.8073
  117SOPE   C3812358   4.616   5.360   5.158 -0.1539  0.3366  0.0359
  117SOPE   H8X12359   4.600   5.464   5.121 -1.5842  0.0799 -0.1159
  117SOPE   H8Y12360   4.518   5.315   5.183  0.5867 -2.8460 -2.1160
  117SOPE   C3912361   4.670   5.274   5.040  0.3413  0.5523 -0.5526
  117SOPE   H9X12362   4.658   5.169   5.075  0.2463 -0.4250 -3.2702
  117SOPE   H9Y12363   4.778   5.288   5.015  0.0155 -1.3941 -3.6032
  117SOPE  C31012364   4.603   5.281   4.906  0.3858  0.0591 -0.4572
  117SOPE  H10X12365   4.604   5.390   4.884 -3.0964  0.1213 -0.8117
  117SOPE  H10Y12366   4.499   5.242   4.912  0.6798 -0.6494  0.3442
  117SOPE  C31112367   4.674   5.198   4.804  0.6868 -0.4253  0.5508
  117SOPE  H11X12368   4.647   5.094   4.830  1.4433 -0.3052  1.9239
  117SOPE  H11Y12369   4.784   5.215   4.814  0.3446  1.2972  1.7739
  117SOPE  C31212370   4.625   5.234   4.659 -0.9302 -0.0760 -0.2270
  117SOPE  H12X12371   4.645   5.342   4.649  0.8459 -0.5719 -3.8298
  117SOPE  H12Y12372   4.515   5.217   4.659 -1.3473  2.2737  0.8607
  117SOPE  C31312373   4.685   5.151   4.546 -0.0209  0.3768 -0.2908
  117SOPE  H13X12374   4.653   5.045   4.549 -2.9123  1.1638 -0.7295
  117SOPE  H13Y12375   4.796   5.160   4.554 -0.2268  1.1784  2.4349
  117SOPE  C31412376   4.622   5.197   4.414 -0.1717  0.7804  0.2984
  117SOPE  H14X12377   4.662   5.296   4.382  1.2400  0.8577  2.1331
  117SOPE  H14Y12378   4.512   5.201   4.426 -0.1330 -1.2697  1.7083
  117SOPE  C31512379   4.674   5.100   4.310 -0.2555  0.8457  1.3290
  117SOPE  H15X12380   4.636   4.996   4.320  1.2939  0.2816  1.7509
  117SOPE  H15Y12381   4.785   5.092   4.317 -0.2993 -1.6626  0.2851
  117SOPE  C31612382   4.642   5.154   4.172 -0.3431 -0.3441  0.8007
  117SOPE  H16X12383   4.704   5.243   4.151  3.3824 -3.3414 -2.4631
  117SOPE  H16Y12384   4.535   5.181   4.161 -0.3440 -0.0719  1.4674
  117SOPE  C31712385   4.669   5.048   4.066  0.4692  0.9065 -0.4349
  117SOPE  H17X12386   4.594   4.966   4.066  0.0940  1.1862  1.5562
  117SOPE  H17Y12387   4.762   4.992   4.090  0.0663  0.7138  0.7463
  117SOPE  C31812388   4.689   5.105   3.925  0.2861 -0.0413  0.0809
  117SOPE  H18X12389   4.749   5.198   3.929  0.4895 -0.0916 -1.3028
  117SOPE  H18Y12390   4.590   5.133   3.883  0.6145  1.9043  0.5347
  117SOPE  H18Z12391   4.741   5.029   3.862  0.4998  0.5505 -0.4647
  118SOPE     N12392   5.331   6.791   6.775  0.3654  0.6953  0.0864
  118SOPE   HN112393   5.391   6.850   6.836 -1.2148 -0.5045  3.0159
  118SOPE   HN212394   5.234   6.806   6.810  1.7132  5.5973  2.5999
  118SOPE   HN312395   5.362   6.692   6.785 -0.2553  0.1723 -2.3434
  118SOPE   C1212396   5.333   6.827   6.630 -0.1211 -0.0273  0.1163
  118SOPE  H12A12397   5.294   6.930   6.622 -1.3891 -0.6341 -3.6529
  118SOPE  H12B12398   5.265   6.751   6.585  0.2773 -0.7087  0.6318
  118SOPE   C1112399   5.470   6.809   6.565  0.9925 -0.4623 -0.0567
  118SOPE  H11A12400   5.463   6.818   6.455 -0.4618  3.7308  0.2109
  118SOPE  H11B12401   5.491   6.702   6.588 -1.1360 -0.9304 -0.0845
  118SOPE     P12402   5.712   6.909   6.581 -0.3061  0.0414 -0.1739
  118SOPE   O1312403   5.797   6.787   6.589 -0.0280 -0.1830  0.1533
  118SOPE   O1412404   5.765   7.031   6.652 -0.2815 -0.4444 -0.4784
  118SOPE   O1212405   5.569   6.886   6.628  0.5569 -0.7445 -0.7981
  118SOPE   O1112406   5.682   6.939   6.429  0.3009  0.2564 -0.0237
  118SOPE    C112407   5.633   7.074   6.400 -0.4282  0.3792  0.8283
  118SOPE    HA12408   5.707   7.151   6.430 -0.0710 -0.3451  1.9163
  118SOPE    HB12409   5.533   7.093   6.445 -0.1659 -0.1241  1.6700
  118SOPE    C212410   5.628   7.100   6.240  0.0104  0.3551 -0.4273
  118SOPE    HS12411   5.608   7.207   6.221 -1.0488  0.3821  0.7002
  118SOPE   O2112412   5.533   7.006   6.178 -0.5206  0.2294  0.1701
  118SOPE   C2112413   5.409   7.048   6.198  0.3701  0.5178 -0.1373
  118SOPE   O2212414   5.379   7.146   6.266 -0.6652 -0.0852 -0.1607
  118SOPE   C2212415   5.306   6.957   6.134  0.1084  0.4178  0.1259
  118SOPE   H2R12416   5.246   6.910   6.215  0.3589 -0.1083  0.0133
  118SOPE   H2S12417   5.359   6.870   6.090  4.3995  2.1990  1.2459
  118SOPE    C312418   5.767   7.089   6.171 -0.3048  0.1338 -0.5402
  118SOPE    HX12419   5.816   6.993   6.198  0.9353  0.7580 -0.5046
  118SOPE    HY12420   5.840   7.160   6.215  1.3015 -0.4991 -2.0522
  118SOPE   O3112421   5.762   7.086   6.031 -0.6318  0.1184 -0.3520
  118SOPE   C3112422   5.715   7.194   5.975  0.4033  0.0437 -0.4732
  118SOPE   O3212423   5.680   7.295   6.032  0.3860 -0.1701 -0.1666
  118SOPE   C3212424   5.701   7.173   5.828 -0.1984 -0.1173  0.2435
  118SOPE   H2X12425   5.612   7.110   5.808  0.3404 -1.1302  0.9618
  118SOPE   H2Y12426   5.790   7.117   5.793 -0.6384 -1.6159  1.4200
  118SOPE   C2312427   5.212   7.031   6.048 -0.3273  0.3010  0.0602
  118SOPE   H3R12428   5.181   7.125   6.098  1.9594  0.9619  0.3398
  118SOPE   H3S12429   5.119   6.974   6.028 -2.0256  3.3380 -1.4079
  118SOPE   C2412430   5.265   7.078   5.906  1.0275  0.6017 -0.5953
  118SOPE   H4R12431   5.350   7.148   5.923  0.7690  0.6164  0.7231
  118SOPE   H4S12432   5.278   6.996   5.833  0.9786  0.4662 -0.4519
  118SOPE   C2512433   5.156   7.168   5.830 -0.1373  0.4607  0.0295
  118SOPE   H5R12434   5.069   7.106   5.799  1.1492 -1.2448 -0.3186
  118SOPE   H5S12435   5.112   7.245   5.897  1.9786  2.0649 -0.3172
  118SOPE   C2612436   5.222   7.242   5.717  0.2155  0.0342 -0.4545
  118SOPE   H6R12437   5.256   7.341   5.755 -0.5528  0.2049 -0.1972
  118SOPE   H6S12438   5.319   7.194   5.692  1.0091  1.0798  0.4965
  118SOPE   C2712439   5.139   7.288   5.595  0.2312 -0.1608 -0.0418
  118SOPE   H7R12440   5.077   7.201   5.564  1.0858 -0.7117 -0.2749
  118SOPE   H7S12441   5.066   7.364   5.627  0.2997  0.2316 -0.7835
  118SOPE   C2812442   5.223   7.335   5.477 -0.5691 -0.2998  0.6641
  118SOPE   H8R12443   5.168   7.400   5.406 -0.8930 -1.4153 -0.1323
  118SOPE   H8S12444   5.300   7.399   5.524 -2.2558  1.2979  1.4016
  118SOPE   C2912445   5.275   7.219   5.401 -0.8429 -0.0087  0.5175
  118SOPE   H9112446   5.362   7.170   5.447 -1.3280  0.0307  1.4842
  118SOPE  C21012447   5.216   7.161   5.290  0.2998  0.3274 -0.2975
  118SOPE  H10112448   5.257   7.069   5.248  0.8340 -0.4839  1.8685
  118SOPE  C21112449   5.095   7.204   5.215 -0.0925  0.2055 -0.1527
  118SOPE  H11R12450   5.071   7.304   5.256  1.1044  0.9025 -1.0774
  118SOPE  H11S12451   5.017   7.128   5.237 -0.0276  0.2410  0.2024
  118SOPE  C21212452   5.107   7.220   5.057  0.3352 -0.3772  0.4798
  118SOPE  H12R12453   5.011   7.196   5.007  0.1182  3.8826 -1.6088
  118SOPE  H12S12454   5.190   7.154   5.026 -0.0125  0.0285 -1.4603
  118SOPE  C21312455   5.154   7.354   5.005 -0.4582  0.0365 -0.1305
  118SOPE  H13R12456   5.251   7.372   5.056 -0.5419 -0.7416  0.3267
  118SOPE  H13S12457   5.082   7.432   5.039 -0.9385 -0.2184 -0.5615
  118SOPE  C21412458   5.168   7.362   4.857  0.9542  0.5915  0.6010
  118SOPE  H14R12459   5.079   7.409   4.810 -0.2157 -2.6698 -0.7657
  118SOPE  H14S12460   5.163   7.257   4.820  1.4762  0.0627  1.9499
  118SOPE  C21512461   5.296   7.425   4.820 -0.0303 -0.5916 -0.3314
  118SOPE  H15R12462   5.375   7.356   4.856  1.3667  1.2535  0.2732
  118SOPE  H15S12463   5.303   7.526   4.866 -2.8146  0.1264 -1.2965
  118SOPE  C21612464   5.304   7.454   4.667 -0.3634  0.4247  0.0481
  118SOPE  H16R12465   5.397   7.514   4.655 -0.9947  1.5491  0.6256
  118SOPE  H16S12466   5.219   7.520   4.637  1.2106  1.8192 -1.6684
  118SOPE  C21712467   5.319   7.326   4.578 -0.1871  0.1307  0.3040
  118SOPE  H17R12468   5.249   7.242   4.598  1.8244 -1.9787 -1.0206
  118SOPE  H17S12469   5.427   7.303   4.590  0.2984  1.3876 -1.3456
  118SOPE  C21812470   5.296   7.367   4.433 -0.7271  0.6782  0.1327
  118SOPE  H18R12471   5.356   7.459   4.416  0.9129 -0.2684  0.5264
  118SOPE  H18S12472   5.189   7.392   4.420 -0.1223  2.5737 -1.7083
  118SOPE  H18T12473   5.342   7.292   4.366  1.6469 -1.7566  4.0445
  118SOPE   C3312474   5.688   7.314   5.745  0.2002  0.2452  0.7823
  118SOPE   H3X12475   5.763   7.390   5.776 -2.1942  2.4539  1.4894
  118SOPE   H3Y12476   5.602   7.361   5.797  1.3129  2.5808  0.6659
  118SOPE   C3412477   5.662   7.312   5.591  0.3800 -0.3522 -1.5456
  118SOPE   H4X12478   5.621   7.410   5.559  1.1385 -0.1646 -1.9713
  118SOPE   H4Y12479   5.578   7.242   5.570  1.0753 -1.8279  0.2785
  118SOPE   C3512480   5.793   7.287   5.513 -0.2361  0.6711 -0.0875
  118SOPE   H5X12481   5.849   7.196   5.544  2.3214  2.0982 -0.1542
  118SOPE   H5Y12482   5.865   7.370   5.533  2.5235 -1.4952 -0.3711
  118SOPE   C3612483   5.777   7.308   5.359  0.3222 -1.0340  0.0648
  118SOPE   H6X12484   5.733   7.410   5.346 -0.2951 -1.4434 -1.2813
  118SOPE   H6Y12485   5.697   7.235   5.334 -0.3370 -0.0160 -0.8929
  118SOPE   C3712486   5.888   7.285   5.270 -1.3538  0.1397  0.2051
  118SOPE   H7X12487   5.962   7.212   5.308 -2.1987 -1.4736 -1.0956
  118SOPE   H7Y12488   5.943   7.381   5.261 -1.6043  0.1032 -2.3205
  118SOPE   C3812489   5.834   7.254   5.129  0.8902  0.1353 -0.5957
  118SOPE   H8X12490   5.751   7.181   5.134  0.4876  0.5717 -0.8703
  118SOPE   H8Y12491   5.910   7.225   5.053  0.5259 -1.2704 -0.4398
  118SOPE   C3912492   5.762   7.370   5.055 -0.5886  0.3526  0.0509
  118SOPE   H9X12493   5.698   7.432   5.122  0.6107  0.7572  0.8449
  118SOPE   H9Y12494   5.703   7.319   4.976  0.8800 -1.0925 -0.1807
  118SOPE  C31012495   5.858   7.469   5.008 -0.7137  0.5631  0.0237
  118SOPE  H10X12496   5.940   7.423   4.949 -1.9116  0.8428 -1.9450
  118SOPE  H10Y12497   5.897   7.510   5.103 -1.9828 -2.1700  1.8732
  118SOPE  C31112498   5.804   7.580   4.923 -0.3475  0.3128  0.2557
  118SOPE  H11X12499   5.881   7.660   4.920 -0.3301  0.2758 -1.0414
  118SOPE  H11Y12500   5.716   7.626   4.972 -0.5013 -1.6119  1.8983
  118SOPE  C31212501   5.765   7.553   4.779  0.0797 -0.3194  0.5825
  118SOPE  H12X12502   5.673   7.492   4.767 -0.7553  1.0684 -0.4460
  118SOPE  H12Y12503   5.849   7.487   4.748 -0.5549 -2.1300  2.5132
  118SOPE  C31312504   5.743   7.671   4.684 -0.2966 -0.3627 -0.0901
  118SOPE  H13X12505   5.741   7.638   4.578 -0.9398  2.6893 -1.1426
  118SOPE  H13Y12506   5.840   7.725   4.694 -0.2698 -0.8517  3.7868
  118SOPE  C31412507   5.623   7.753   4.716 -0.1973 -0.0718 -0.8724
  118SOPE  H14X12508   5.645   7.813   4.806  2.0952  0.1178 -1.4932
  118SOPE  H14Y12509   5.524   7.702   4.725  0.1068 -0.3312  1.3910
  118SOPE  C31512510   5.597   7.857   4.604  0.7038 -0.0364 -0.8151
  118SOPE  H15X12511   5.682   7.860   4.532 -0.6104 -1.2310 -2.5017
  118SOPE  H15Y12512   5.598   7.959   4.647  1.0017 -0.9087  1.3912
  118SOPE  C31612513   5.461   7.831   4.529 -0.2738 -0.4973 -0.3610
  118SOPE  H16X12514   5.435   7.724   4.515 -0.4250 -0.3356 -1.3609
  118SOPE  H16Y12515   5.487   7.869   4.428  0.8958  0.9070  0.4151
  118SOPE  C31712516   5.336   7.903   4.582 -0.0176  0.0087 -0.1046
  118SOPE  H17X12517   5.360   8.009   4.607  1.6153 -0.2302 -0.5707
  118SOPE  H17Y12518   5.308   7.859   4.680 -1.5327  0.1528 -0.4425
  118SOPE  C31812519   5.211   7.880   4.503 -0.3135 -0.7025  0.2870
  118SOPE  H18X12520   5.215   7.932   4.405 -0.0498  1.5549  1.4158
  118SOPE  H18Y12521   5.129   7.924   4.565  0.2737 -0.3462  0.8207
  118SOPE  H18Z12522   5.182   7.773   4.499 -2.8574 -0.0451 -1.1129
  119SOPE     N12523   0.374   0.593   6.726  0.8167  0.1051  0.2408
  119SOPE   HN112524   0.373   0.626   6.627 -0.1842  1.2336  0.6016
  119SOPE   HN212525   0.306   0.645   6.785  0.3836 -0.4964  0.2809
  119SOPE   HN312526   0.470   0.603   6.764  0.9370 -0.6136  0.1335
  119SOPE   C1212527   0.323   0.455   6.731  0.1535  0.4273  0.0936
  119SOPE  H12A12528   0.388   0.384   6.674  0.6306 -0.6214  1.8495
  119SOPE  H12B12529   0.229   0.459   6.671  1.5932  3.3091 -2.2029
  119SOPE   C1112530   0.288   0.409   6.869  0.4344 -0.4929  0.4251
  119SOPE  H11A12531   0.264   0.301   6.867 -0.2550 -0.3901 -2.5610
  119SOPE  H11B12532   0.189   0.455   6.894  0.7088  0.0794  0.4776
  119SOPE     P12533   0.518   0.350   6.981  0.2172 -0.0021 -0.1565
  119SOPE   O1312534   0.502   0.270   7.107  0.2537 -0.3732  0.7014
  119SOPE   O1412535   0.642   0.425   6.974 -0.5298 -0.4104  0.1308
  119SOPE   O1212536   0.392   0.443   6.963  0.2311  0.2469  0.2326
  119SOPE   O1112537   0.501   0.256   6.855  0.4957  0.1000 -0.4023
  119SOPE    C112538   0.598   0.149   6.837 -0.0939 -0.6958 -0.1036
  119SOPE    HA12539   0.566   0.069   6.767  0.9800  0.1789 -1.6602
  119SOPE    HB12540   0.628   0.107   6.936 -0.5676 -1.0968 -0.1306
  119SOPE    C212541   0.734   0.199   6.772  0.6763 -0.3952 -0.8307
  119SOPE    HS12542   0.788   0.259   6.848 -0.7937 -0.1876  0.0905
  119SOPE   O2112543   0.699   0.282   6.666  0.0869  0.3918  0.5163
  119SOPE   C2112544   0.803   0.361   6.625  0.3681  0.6815  1.0070
  119SOPE   O2212545   0.908   0.372   6.686 -0.4174  0.2976 -0.2415
  119SOPE   C2212546   0.774   0.418   6.482 -0.4944  0.2359 -0.0357
  119SOPE   H2R12547   0.859   0.381   6.421  0.6558  1.6400  0.6448
  119SOPE   H2S12548   0.783   0.529   6.481 -1.7910  0.4157 -3.0198
  119SOPE    C312549   0.814   0.077   6.727  0.0299  0.2240  0.0898
  119SOPE    HX12550   0.828   0.012   6.816  1.0328 -1.9160 -1.5419
  119SOPE    HY12551   0.917   0.114   6.706  0.6476 -0.7734  1.2024
  119SOPE   O3112552   0.751   0.009   6.613  0.3444 -0.2428  0.2935
  119SOPE   C3112553   0.798   0.034   6.492 -0.4959 -0.4642  0.3544
  119SOPE   O3212554   0.900   0.087   6.456  0.1900 -0.2856 -0.1216
  119SOPE   C3212555   0.698  -0.020   6.386  0.4673  0.0468  0.4114
  119SOPE   H2X12556   0.609   0.040   6.412  0.5624 -0.2743  1.5385
  119SOPE   H2Y12557   0.675  -0.125   6.410 -0.3610 -0.0717 -0.7807
  119SOPE   C2312558   0.638   0.377   6.419  0.5228 -0.1666  0.1268
  119SOPE   H3R12559   0.555   0.406   6.486 -0.3568 -1.5217 -0.3357
  119SOPE   H3S12560   0.626   0.268   6.406 -0.5823 -0.3458  2.3225
  119SOPE   C2412561   0.614   0.457   6.292  0.2601  0.4458  0.1788
  119SOPE   H4R12562   0.505   0.453   6.272  0.5567 -1.1967 -1.3925
  119SOPE   H4S12563   0.658   0.559   6.298  0.8911  0.2884 -1.2701
  119SOPE   C2512564   0.692   0.410   6.159 -0.1517 -0.7924  0.0103
  119SOPE   H5R12565   0.802   0.416   6.169 -0.2033 -0.8726  0.6894
  119SOPE   H5S12566   0.672   0.302   6.142 -2.2198 -0.2791 -1.2526
  119SOPE   C2612567   0.653   0.487   6.033 -0.0199  0.0354  0.6648
  119SOPE   H6R12568   0.544   0.465   6.033  0.2631 -1.7433 -1.4913
  119SOPE   H6S12569   0.674   0.594   6.051  1.4785  0.1347 -1.3186
  119SOPE   C2712570   0.711   0.424   5.905 -0.2380 -0.7961 -0.5749
  119SOPE   H7R12571   0.820   0.439   5.917 -0.2075 -1.6750  0.4166
  119SOPE   H7S12572   0.699   0.314   5.912 -1.7905 -0.6601 -0.5413
  119SOPE   C2812573   0.657   0.493   5.790  0.1996  0.6820 -0.5070
  119SOPE   H8R12574   0.675   0.424   5.705 -0.0365 -0.6668  0.5035
  119SOPE   H8S12575   0.547   0.500   5.803 -0.0295  1.4759 -2.4653
  119SOPE   C2912576   0.712   0.631   5.767 -0.7406  0.5381 -0.3660
  119SOPE   H9112577   0.733   0.685   5.861 -0.7643 -2.2989  1.3868
  119SOPE  C21012578   0.751   0.687   5.649  0.4094  0.1640 -0.0953
  119SOPE  H10112579   0.798   0.786   5.649 -1.1985  0.9842  1.6385
  119SOPE  C21112580   0.733   0.615   5.517  0.2480 -0.2648  0.7685
  119SOPE  H11R12581   0.756   0.506   5.511  4.2248  0.4796 -2.7634
  119SOPE  H11S12582   0.806   0.641   5.437  1.0060 -1.2241  1.1139
  119SOPE  C21212583   0.592   0.636   5.458  1.0999 -0.4660  0.1467
  119SOPE  H12R12584   0.585   0.743   5.433  1.9706  0.2368  2.6102
  119SOPE  H12S12585   0.508   0.633   5.531  0.6288 -0.5212 -0.3902
  119SOPE  C21312586   0.562   0.545   5.347 -0.2403  0.2564 -0.1542
  119SOPE  H13R12587   0.544   0.439   5.376  4.3314 -1.0047 -1.0075
  119SOPE  H13S12588   0.651   0.535   5.280 -0.2921 -0.9118 -0.0764
  119SOPE  C21412589   0.456   0.612   5.259  0.2198  0.3077  0.7307
  119SOPE  H14R12590   0.466   0.717   5.224 -1.2745 -0.8777 -3.9302
  119SOPE  H14S12591   0.362   0.619   5.318  0.2776 -0.5837  0.9417
  119SOPE  C21512592   0.421   0.540   5.129 -0.5607 -0.6777 -0.2831
  119SOPE  H15R12593   0.378   0.439   5.146  0.0627 -0.7532  0.9833
  119SOPE  H15S12594   0.514   0.541   5.067 -1.5628  2.1497 -1.9387
  119SOPE  C21612595   0.321   0.624   5.045 -0.3861  1.2362  0.4578
  119SOPE  H16R12596   0.371   0.720   5.023  1.0815  0.6601  1.1243
  119SOPE  H16S12597   0.229   0.656   5.098 -0.8107 -1.3147  1.4243
  119SOPE  C21712598   0.282   0.550   4.908 -0.4797 -0.7242 -0.3739
  119SOPE  H17R12599   0.373   0.546   4.844 -0.0698 -1.0574  0.2203
  119SOPE  H17S12600   0.211   0.618   4.856 -1.4175 -1.0727  0.4000
  119SOPE  C21812601   0.211   0.418   4.915  0.0294 -0.0485 -0.2102
  119SOPE  H18R12602   0.266   0.350   4.984 -0.4417 -1.7549 -1.4539
  119SOPE  H18S12603   0.200   0.379   4.812 -0.0851 -2.2345  0.5787
  119SOPE  H18T12604   0.118   0.443   4.970 -0.3548 -0.6266 -0.5742
  119SOPE   C3312605   0.731   0.009   6.239  0.2162 -0.1239  0.0525
  119SOPE   H3X12606   0.754   0.117   6.231 -1.4564  0.3558  1.1688
  119SOPE   H3Y12607   0.641  -0.022   6.181  0.1558 -0.1759  0.1735
  119SOPE   C3412608   0.843  -0.082   6.187  0.5615 -0.0524 -0.9272
  119SOPE   H4X12609   0.814  -0.188   6.207  0.5392  0.2196  0.6225
  119SOPE   H4Y12610   0.942  -0.063   6.234 -0.2181  0.7211  0.4809
  119SOPE   C3512611   0.847  -0.073   6.030  0.9741  0.2104 -0.2023
  119SOPE   H5X12612   0.866   0.029   5.991  1.8880  0.5916  1.1553
  119SOPE   H5Y12613   0.746  -0.098   5.990  0.8480  0.3761  0.0073
  119SOPE   C3612614   0.947  -0.179   5.978  0.0644 -0.4620  0.7851
  119SOPE   H6X12615   0.909  -0.283   5.984  0.4803 -0.7231 -0.6364
  119SOPE   H6Y12616   1.044  -0.173   6.033 -0.9816 -1.4858  2.8442
  119SOPE   C3712617   0.977  -0.174   5.830 -0.4754  0.1684  0.1573
  119SOPE   H7X12618   1.041  -0.261   5.804  0.1367  0.1738  1.5252
  119SOPE   H7Y12619   1.030  -0.078   5.810  0.2033 -0.2666 -0.1845
  119SOPE   C3812620   0.854  -0.181   5.735  0.2601 -0.3271  0.0839
  119SOPE   H8X12621   0.790  -0.091   5.747  0.2474 -0.3994  0.5826
  119SOPE   H8Y12622   0.784  -0.267   5.746 -1.4017  0.8280 -0.8880
  119SOPE   C3912623   0.900  -0.180   5.588  0.2495  0.6122  0.0630
  119SOPE   H9X12624   0.989  -0.247   5.586  0.2191  0.5862 -0.7883
  119SOPE   H9Y12625   0.936  -0.078   5.564  1.2749  0.3213  0.2738
  119SOPE  C31012626   0.796  -0.222   5.481  0.4174  0.5511  0.6334
  119SOPE  H10X12627   0.700  -0.171   5.504  0.3823  0.8443 -0.1222
  119SOPE  H10Y12628   0.791  -0.332   5.492  3.7502  0.0746 -1.2587
  119SOPE  C31112629   0.844  -0.173   5.343  0.0940  0.3742  0.7327
  119SOPE  H11X12630   0.949  -0.209   5.335 -0.9090 -2.4707 -0.5588
  119SOPE  H11Y12631   0.847  -0.062   5.328 -0.0628  0.3139  0.2393
  119SOPE  C31212632   0.768  -0.232   5.218 -0.5555 -0.2865  0.5470
  119SOPE  H12X12633   0.675  -0.172   5.206 -0.9527 -1.1665 -0.9929
  119SOPE  H12Y12634   0.727  -0.332   5.244 -1.1854  0.2087  1.5398
  119SOPE  C31312635   0.850  -0.239   5.091 -0.0447 -1.2323 -0.3649
  119SOPE  H13X12636   0.803  -0.309   5.019 -1.1004 -0.3379 -0.5590
  119SOPE  H13Y12637   0.950  -0.278   5.120 -0.9093 -2.3899  1.2717
  119SOPE  C31412638   0.869  -0.107   5.022 -0.2751 -0.7460 -0.2555
  119SOPE  H14X12639   0.932  -0.050   5.094 -0.7885 -0.7459  0.2042
  119SOPE  H14Y12640   0.772  -0.060   4.995 -0.5492 -1.5656 -0.7315
  119SOPE  C31512641   0.951  -0.111   4.886  0.9084 -0.3722  0.0049
  119SOPE  H15X12642   0.893  -0.172   4.814 -2.0290  2.2341 -0.0644
  119SOPE  H15Y12643   1.047  -0.162   4.907  0.9574 -0.5374 -0.6189
  119SOPE  C31612644   0.981   0.018   4.829  0.2694 -0.4715  0.4985
  119SOPE  H16X12645   1.048   0.078   4.894  1.5145  0.7387 -1.7791
  119SOPE  H16Y12646   0.895   0.089   4.829  1.1864  0.7831 -1.9110
  119SOPE  C31712647   1.021   0.008   4.681  0.3291 -0.5026  0.2345
  119SOPE  H17X12648   0.946  -0.038   4.614  0.2916  0.6213 -0.5178
  119SOPE  H17Y12649   1.120  -0.042   4.681  0.2611 -0.7743 -2.2774
  119SOPE  C31812650   1.044   0.138   4.619  0.4036  0.4023  0.0807
  119SOPE  H18X12651   1.131   0.193   4.660 -0.8984  3.3082 -0.8056
  119SOPE  H18Y12652   0.958   0.207   4.632  1.2886  1.9023 -1.6475
  119SOPE  H18Z12653   1.068   0.123   4.512 -0.5396 -0.3872 -0.0418
  120SOPE     N12654   0.749   3.582   6.789  0.5544  0.2076  0.2547
  120SOPE   HN112655   0.746   3.494   6.845  1.6781 -1.3956 -2.0419
  120SOPE   HN212656   0.820   3.643   6.832  2.1657  0.5851 -2.6783
  120SOPE   HN312657   0.656   3.628   6.796  0.8383  0.7606  0.3682
  120SOPE   C1212658   0.773   3.541   6.645 -0.0492 -0.9207 -0.1405
  120SOPE  H12A12659   0.683   3.560   6.584 -1.3399 -1.1978  1.5935
  120SOPE  H12B12660   0.787   3.431   6.647  0.0861 -0.9017  0.0931
  120SOPE   C1112661   0.908   3.602   6.579 -0.4617  0.9421  0.3207
  120SOPE  H11A12662   0.914   3.561   6.476  0.8987 -0.0730  0.7726
  120SOPE  H11B12663   1.004   3.561   6.615  0.8233  2.4201 -1.2812
  120SOPE     P12664   0.954   3.833   6.685 -0.0665 -0.1979 -0.0008
  120SOPE   O1312665   0.907   3.786   6.818 -0.0113  0.6462 -1.1111
  120SOPE   O1412666   0.921   3.973   6.656  0.4811 -0.4054  0.1780
  120SOPE   O1212667   0.906   3.743   6.568 -0.0503 -0.6778  0.4638
  120SOPE   O1112668   1.112   3.816   6.692  0.1059  0.0131 -0.1988
  120SOPE    C112669   1.195   3.857   6.584  0.1984 -0.3178  0.4836
  120SOPE    HA12670   1.273   3.902   6.650 -0.3627 -1.7372  2.1895
  120SOPE    HB12671   1.142   3.932   6.521 -0.3672 -1.8362 -0.8927
  120SOPE    C212672   1.252   3.740   6.496  0.1884  0.5032 -0.8253
  120SOPE    HS12673   1.332   3.798   6.446  1.4595  0.4491  1.0243
  120SOPE   O2112674   1.155   3.682   6.407  0.0033  0.3058  0.0054
  120SOPE   C2112675   1.110   3.761   6.312  1.2608  0.1348 -0.8959
  120SOPE   O2212676   1.146   3.876   6.294  0.1322 -0.5049  0.4524
  120SOPE   C2212677   1.012   3.687   6.223  0.4640  1.0270  1.0572
  120SOPE   H2R12678   0.936   3.761   6.190  0.6691  2.1176  2.8909
  120SOPE   H2S12679   0.958   3.607   6.277  0.3365  0.4034  0.0279
  120SOPE    C312680   1.328   3.626   6.573 -0.3034 -0.2340 -0.3515
  120SOPE    HX12681   1.252   3.574   6.636 -0.5576 -1.0151 -1.2757
  120SOPE    HY12682   1.394   3.686   6.638  1.2086  0.6934 -2.6209
  120SOPE   O3112683   1.412   3.544   6.492  0.1185 -0.2339 -0.3193
  120SOPE   C3112684   1.368   3.427   6.458  0.3229 -0.0623  0.4352
  120SOPE   O3212685   1.262   3.371   6.493  0.4421  0.1387  0.3312
  120SOPE   C3212686   1.453   3.374   6.342  0.0883  0.2869  0.8234
  120SOPE   H2X12687   1.547   3.337   6.389  0.8132  2.9110  1.6577
  120SOPE   H2Y12688   1.482   3.465   6.285 -3.1752  1.1750  0.4098
  120SOPE   C2312689   1.091   3.619   6.111 -0.6617  0.2775 -0.4181
  120SOPE   H3R12690   1.033   3.533   6.071 -2.9121  2.0322 -1.1168
  120SOPE   H3S12691   1.182   3.567   6.149  0.3976  3.2459  1.5034
  120SOPE   C2412692   1.124   3.701   5.991 -0.0158 -0.2954 -0.0182
  120SOPE   H4R12693   1.146   3.803   6.030 -2.2394  0.8232 -1.4731
  120SOPE   H4S12694   1.199   3.657   5.923 -0.6074 -0.4471 -0.5826
  120SOPE   C2512695   0.995   3.722   5.909 -0.5350 -0.2834 -0.7928
  120SOPE   H5R12696   0.963   3.624   5.869 -1.3441  0.3561 -1.7770
  120SOPE   H5S12697   0.915   3.753   5.981 -0.2349 -1.5628  0.1157
  120SOPE   C2612698   1.013   3.841   5.814 -0.4076  0.3354  0.3639
  120SOPE   H6R12699   0.910   3.865   5.782 -0.3967  0.6212  0.5405
  120SOPE   H6S12700   1.060   3.930   5.860 -0.1468 -0.0414  0.8403
  120SOPE   C2712701   1.098   3.805   5.692 -0.8294 -0.7741  0.3889
  120SOPE   H7R12702   1.157   3.715   5.717  1.3040  0.3899 -0.2084
  120SOPE   H7S12703   1.043   3.768   5.603  0.9400  2.3989 -2.2309
  120SOPE   C2812704   1.188   3.919   5.644  0.7699  0.5259 -0.0187
  120SOPE   H8R12705   1.256   3.963   5.721  2.5581  0.8212 -1.7057
  120SOPE   H8S12706   1.246   3.870   5.563 -0.5465 -0.0753 -0.6256
  120SOPE   C2912707   1.107   4.030   5.593 -0.6334  0.3160  0.6744
  120SOPE   H9112708   1.074   4.114   5.657 -0.4214  1.5046 -0.7151
  120SOPE  C21012709   1.068   4.050   5.462 -0.4636  0.0884  0.6142
  120SOPE  H10112710   1.025   4.146   5.432  2.1521  1.4403  0.8852
  120SOPE  C21112711   1.102   3.961   5.342 -0.5006 -0.1621  0.7139
  120SOPE  H11R12712   1.008   3.925   5.295  1.7425 -0.8592 -3.8036
  120SOPE  H11S12713   1.165   3.870   5.356 -2.2855 -1.1968  2.5441
  120SOPE  C21212714   1.168   4.037   5.227 -0.0841 -0.1731 -0.2704
  120SOPE  H12R12715   1.276   4.039   5.250  0.3200 -2.9168 -1.4522
  120SOPE  H12S12716   1.121   4.136   5.211 -1.8461 -1.2623 -2.4673
  120SOPE  C21312717   1.153   3.951   5.101 -0.0628 -0.6833  0.1645
  120SOPE  H13R12718   1.046   3.921   5.097 -1.3818  3.3904  0.4664
  120SOPE  H13S12719   1.208   3.857   5.123  0.9824 -0.0090  0.4846
  120SOPE  C21412720   1.210   4.033   4.986  0.7392 -0.0118  0.4144
  120SOPE  H14R12721   1.314   4.055   5.019  1.0227 -2.6674  1.5874
  120SOPE  H14S12722   1.150   4.126   4.974  2.1243  1.0452  1.3107
  120SOPE  C21512723   1.222   3.958   4.856  0.0944  0.0177 -0.5569
  120SOPE  H15R12724   1.262   3.855   4.867 -1.4661 -0.4195  1.6461
  120SOPE  H15S12725   1.291   4.018   4.793  2.0274 -1.0363  0.4281
  120SOPE  C21612726   1.081   3.945   4.797  0.4367 -0.0028  0.1247
  120SOPE  H16R12727   1.037   4.047   4.799  0.6169  0.0938 -0.5601
  120SOPE  H16S12728   1.015   3.876   4.853 -0.0567  0.7881  0.5319
  120SOPE  C21712729   1.066   3.886   4.656 -0.0794 -0.1037 -0.5093
  120SOPE  H17R12730   1.137   3.956   4.607 -0.6404  1.0573  0.2850
  120SOPE  H17S12731   0.960   3.885   4.622  0.5121 -2.0863 -2.5124
  120SOPE  C21812732   1.115   3.739   4.650  0.5597  0.6278  0.0265
  120SOPE  H18R12733   1.056   3.678   4.721  0.5242  2.2884  1.4963
  120SOPE  H18S12734   1.224   3.746   4.668  0.8135 -0.7350 -0.8616
  120SOPE  H18T12735   1.111   3.689   4.551  0.0251 -0.3034  0.5023
  120SOPE   C3312736   1.377   3.258   6.273  0.6508 -0.5710 -0.0805
  120SOPE   H3X12737   1.269   3.285   6.278  0.9388  1.2037 -1.9610
  120SOPE   H3Y12738   1.397   3.162   6.324 -2.1499 -1.1514  0.0875
  120SOPE   C3412739   1.424   3.250   6.124 -0.0542 -0.1715  0.1837
  120SOPE   H4X12740   1.388   3.148   6.098 -0.3962 -0.5713  2.0686
  120SOPE   H4Y12741   1.533   3.265   6.113 -0.5712  2.2505 -3.3746
  120SOPE   C3512742   1.347   3.340   6.032  0.1473  0.5433  0.8178
  120SOPE   H5X12743   1.383   3.444   6.045  0.2289  0.2586  3.4055
  120SOPE   H5Y12744   1.245   3.328   6.073  0.1292 -1.6437  0.2698
  120SOPE   C3612745   1.338   3.302   5.888 -0.1627  0.4835  0.3055
  120SOPE   H6X12746   1.288   3.203   5.885  0.4331  0.0516  2.7257
  120SOPE   H6Y12747   1.442   3.304   5.850 -0.2915  0.8586 -0.0405
  120SOPE   C3712748   1.256   3.398   5.797 -0.1696  0.1160 -0.4163
  120SOPE   H7X12749   1.305   3.497   5.785 -3.6811  1.9732 -0.5643
  120SOPE   H7Y12750   1.156   3.414   5.843  0.2228  0.3827  0.3633
  120SOPE   C3812751   1.237   3.342   5.651 -0.0514  0.5044 -0.6014
  120SOPE   H8X12752   1.219   3.233   5.656 -3.5428  0.9728 -0.6212
  120SOPE   H8Y12753   1.329   3.373   5.596  0.4639 -0.2645 -0.1943
  120SOPE   C3912754   1.120   3.407   5.591  0.2799 -0.5304  0.0383
  120SOPE   H9X12755   1.126   3.518   5.595  0.7234 -0.5035 -0.9726
  120SOPE   H9Y12756   1.022   3.375   5.632 -0.7499 -0.1491 -2.0101
  120SOPE  C31012757   1.121   3.378   5.432  0.0790 -0.5794 -0.5152
  120SOPE  H10X12758   1.151   3.273   5.412  1.1122 -0.3182 -0.3766
  120SOPE  H10Y12759   1.203   3.437   5.387  0.5250 -0.1978  0.7453
  120SOPE  C31112760   0.993   3.406   5.353  0.1161  0.4049  0.3675
  120SOPE  H11X12761   0.908   3.413   5.424 -0.4012 -2.5679  0.1852
  120SOPE  H11Y12762   0.970   3.325   5.280 -0.9077  0.7578  0.2938
  120SOPE  C31212763   1.002   3.533   5.255 -0.1095 -0.5329  0.7109
  120SOPE  H12X12764   1.107   3.545   5.221 -0.5574  2.2209  0.0976
  120SOPE  H12Y12765   0.971   3.618   5.319  0.9107  2.1866 -2.1304
  120SOPE  C31312766   0.923   3.517   5.125 -0.4739 -1.0348  0.4067
  120SOPE  H13X12767   0.822   3.477   5.149 -0.8525 -1.1054 -1.2175
  120SOPE  H13Y12768   0.970   3.443   5.056  0.2786 -1.4223  1.3107
  120SOPE  C31412769   0.917   3.651   5.043 -1.3428  0.5432 -0.4196
  120SOPE  H14X12770   1.020   3.673   5.008 -0.8751  1.2556  1.3068
  120SOPE  H14Y12771   0.884   3.733   5.110  0.2261  1.4328 -0.6932
  120SOPE  C31512772   0.823   3.646   4.926 -0.0847  0.0858  0.5793
  120SOPE  H15X12773   0.829   3.742   4.870 -0.6797 -0.7592 -0.9833
  120SOPE  H15Y12774   0.716   3.634   4.954 -0.9660  1.8784 -1.7360
  120SOPE  C31612775   0.841   3.530   4.830  0.2329  0.8712  0.7133
  120SOPE  H16X12776   0.797   3.436   4.868 -1.4638  1.2862 -0.1306
  120SOPE  H16Y12777   0.950   3.527   4.808  0.3934  0.5240  1.5277
  120SOPE  C31712778   0.774   3.555   4.691  0.2233 -0.6860  0.9332
  120SOPE  H17X12779   0.802   3.472   4.622  1.2835 -0.9442  1.6547
  120SOPE  H17Y12780   0.819   3.646   4.645 -1.0853 -0.6503 -0.3277
  120SOPE  C31812781   0.622   3.574   4.686  0.4827  0.2782  0.3090
  120SOPE  H18X12782   0.593   3.658   4.753  0.8193  1.7541 -1.3260
  120SOPE  H18Y12783   0.566   3.488   4.727 -1.7047  1.1333 -0.6891
  120SOPE  H18Z12784   0.592   3.602   4.582 -0.4669 -1.6606  0.0148
  121SOPE     N12785   1.265   1.066   7.112 -0.1637  0.2128  0.3740
  121SOPE   HN112786   1.196   1.108   7.178 -1.8105 -1.1832 -0.4019
  121SOPE   HN212787   1.293   0.970   7.140 -0.2747 -1.0430 -3.3465
  121SOPE   HN312788   1.351   1.124   7.097 -0.6345  0.9559  0.4894
  121SOPE   C1212789   1.203   1.079   6.971 -0.1955  0.2838  0.1194
  121SOPE  H12A12790   1.194   1.189   6.959  0.5687  0.3292 -0.1343
  121SOPE  H12B12791   1.103   1.032   6.973  0.3981 -1.2261 -2.2482
  121SOPE   C1112792   1.296   1.036   6.862 -0.5890 -0.0026  0.0095
  121SOPE  H11A12793   1.385   1.103   6.872  1.3917 -2.8072  2.8685
  121SOPE  H11B12794   1.241   1.043   6.766 -0.4568 -1.3633 -0.1814
  121SOPE     P12795   1.235   0.782   6.871  0.0585 -0.3545  0.1304
  121SOPE   O1312796   1.147   0.794   6.984  0.2815 -0.1125  0.6684
  121SOPE   O1412797   1.309   0.651   6.856  0.3744 -0.3282  0.0376
  121SOPE   O1212798   1.333   0.900   6.883 -0.6029 -0.7751  0.1856
  121SOPE   O1112799   1.161   0.807   6.736 -0.0990 -0.7042  0.1346
  121SOPE    C112800   1.248   0.793   6.624  0.0554 -0.4260  0.0548
  121SOPE    HA12801   1.290   0.691   6.629  2.0779  0.4325  2.5722
  121SOPE    HB12802   1.330   0.867   6.628 -0.6345  0.3859 -0.2530
  121SOPE    C212803   1.173   0.807   6.491  0.4954  0.3067  0.1677
  121SOPE    HS12804   1.247   0.779   6.414  1.8047  2.2439  0.6452
  121SOPE   O2112805   1.117   0.937   6.483  0.0827 -1.1333  0.5803
  121SOPE   C2112806   1.112   0.996   6.365  1.1352  0.5807 -0.0305
  121SOPE   O2212807   1.153   0.952   6.257  0.1691 -0.3336 -0.8285
  121SOPE   C2212808   1.010   1.114   6.381  1.1479  0.1412  0.5304
  121SOPE   H2R12809   1.068   1.209   6.379 -1.3068  1.7428 -0.1533
  121SOPE   H2S12810   0.958   1.106   6.479 -0.2382  0.3336 -0.1655
  121SOPE    C312811   1.062   0.703   6.479 -0.5312 -0.1008  0.1006
  121SOPE    HX12812   0.986   0.727   6.557 -0.7181 -2.1767  0.6048
  121SOPE    HY12813   1.098   0.602   6.506  0.5044 -0.7386 -3.3073
  121SOPE   O3112814   0.979   0.700   6.356 -0.6647 -0.3585 -0.1732
  121SOPE   C3112815   1.041   0.639   6.252  0.2254  0.1493 -0.8136
  121SOPE   O3212816   1.143   0.574   6.267 -0.3218 -0.0736  0.4144
  121SOPE   C3212817   0.957   0.666   6.121 -0.3988  0.2663 -0.4530
  121SOPE   H2X12818   0.863   0.718   6.149  0.5399  1.1999  1.1436
  121SOPE   H2Y12819   0.929   0.564   6.087 -2.7170  0.4369  0.7449
  121SOPE   C2312820   0.905   1.117   6.274  0.1467  0.1366 -0.3606
  121SOPE   H3R12821   0.824   1.186   6.307  0.8302  0.2952  1.0544
  121SOPE   H3S12822   0.857   1.017   6.281 -0.7590  0.5973  0.2462
  121SOPE   C2412823   0.951   1.154   6.128 -0.0791  0.8891  0.1746
  121SOPE   H4R12824   0.987   1.259   6.141 -0.6725  1.1188 -0.0230
  121SOPE   H4S12825   1.031   1.086   6.091 -0.1500  0.3971  0.9079
  121SOPE   C2512826   0.834   1.163   6.030 -0.3947 -0.6150  0.0265
  121SOPE   H5R12827   0.771   1.072   6.032 -2.5087  0.7789  2.6964
  121SOPE   H5S12828   0.766   1.242   6.066  0.4105  0.2812 -0.3747
  121SOPE   C2612829   0.876   1.202   5.888  0.0476 -0.3781 -0.0478
  121SOPE   H6R12830   0.941   1.292   5.896 -0.1753  0.0971 -2.7267
  121SOPE   H6S12831   0.924   1.111   5.846 -0.4006 -0.6708  0.0730
  121SOPE   C2712832   0.760   1.244   5.792  0.3669  0.7509  0.1505
  121SOPE   H7R12833   0.687   1.160   5.792  0.6539  0.4223 -2.4770
  121SOPE   H7S12834   0.709   1.330   5.841 -0.7184 -1.4384  3.2483
  121SOPE   C2812835   0.814   1.284   5.652 -0.6810 -0.2463  0.3261
  121SOPE   H8R12836   0.731   1.316   5.585  0.2573  0.6756 -0.4280
  121SOPE   H8S12837   0.886   1.366   5.669 -0.9814  0.1740 -0.3699
  121SOPE   C2912838   0.892   1.170   5.582 -0.2005 -0.6606 -0.2262
  121SOPE   H9112839   0.995   1.144   5.608  0.3207  0.1514 -1.4019
  121SOPE  C21012840   0.844   1.091   5.486 -0.1980  0.1911  0.2444
  121SOPE  H10112841   0.897   1.002   5.449 -1.1983 -0.3772  0.1575
  121SOPE  C21112842   0.700   1.093   5.429 -0.5783  0.9946  0.1853
  121SOPE  H11R12843   0.660   1.188   5.386 -4.8641 -0.5833  0.1983
  121SOPE  H11S12844   0.630   1.059   5.509  0.1767  0.0259  0.4428
  121SOPE  C21212845   0.693   0.974   5.322  0.1331 -0.5855  0.0319
  121SOPE  H12R12846   0.583   0.958   5.319 -0.0311  0.5671 -1.1086
  121SOPE  H12S12847   0.721   0.873   5.359  0.6711 -1.1009 -1.6866
  121SOPE  C21312848   0.745   1.005   5.184  0.3355 -0.1316  0.2767
  121SOPE  H13R12849   0.855   1.016   5.190  0.5462 -1.5474 -0.4652
  121SOPE  H13S12850   0.708   1.106   5.158 -1.7036 -0.5801  1.2168
  121SOPE  C21412851   0.717   0.898   5.077  0.3192  0.5096  0.3144
  121SOPE  H14R12852   0.663   0.818   5.132  1.5460  0.5091  1.5720
  121SOPE  H14S12853   0.813   0.851   5.048  0.7274  2.6580 -2.3058
  121SOPE  C21512854   0.651   0.941   4.948 -0.1246 -0.2214 -0.3404
  121SOPE  H15R12855   0.548   0.961   4.985  1.1570  0.6627  3.2211
  121SOPE  H15S12856   0.641   0.847   4.890 -0.6246 -1.3744  1.5214
  121SOPE  C21612857   0.720   1.058   4.873  0.1165  0.3224 -0.7477
  121SOPE  H16R12858   0.830   1.054   4.881  0.1269  2.1223  0.5460
  121SOPE  H16S12859   0.680   1.151   4.918  3.4501  1.1187  0.8558
  121SOPE  C21712860   0.685   1.054   4.725  0.3817  0.1696  0.6819
  121SOPE  H17R12861   0.742   0.968   4.683 -3.3706 -2.0165 -0.4015
  121SOPE  H17S12862   0.735   1.142   4.680  0.3984  0.1581  0.6775
  121SOPE  C21812863   0.535   1.034   4.689  0.4419  0.3348 -0.1703
  121SOPE  H18R12864   0.521   1.062   4.582  0.4179  0.8583 -0.0335
  121SOPE  H18S12865   0.469   1.098   4.752 -2.2867 -2.6480  0.2205
  121SOPE  H18T12866   0.510   0.927   4.699  0.1323  0.1645 -2.3305
  121SOPE   C3312867   1.030   0.752   6.021  0.5384  0.5184 -0.0905
  121SOPE   H3X12868   1.042   0.853   6.066 -1.1815  0.3935  0.7210
  121SOPE   H3Y12869   0.965   0.763   5.932  0.9389 -2.4071 -0.8298
  121SOPE   C3412870   1.167   0.701   5.979  0.5075  0.4746 -0.5665
  121SOPE   H4X12871   1.159   0.590   5.973  0.9384  0.2170  2.4021
  121SOPE   H4Y12872   1.244   0.719   6.057  0.3842  1.2588 -0.6122
  121SOPE   C3512873   1.224   0.744   5.847  0.4741  0.0485  0.1961
  121SOPE   H5X12874   1.318   0.690   5.822  0.6272  1.1749 -1.9613
  121SOPE   H5Y12875   1.237   0.854   5.860  0.9012 -0.3028  3.4432
  121SOPE   C3612876   1.139   0.709   5.724  0.4850 -0.0568  0.4920
  121SOPE   H6X12877   1.028   0.712   5.731  0.3764 -0.3959 -0.7439
  121SOPE   H6Y12878   1.157   0.602   5.700 -0.0141  0.6839 -4.1566
  121SOPE   C3712879   1.183   0.792   5.609 -0.3021 -0.3409  1.0765
  121SOPE   H7X12880   1.288   0.770   5.580 -0.4534  1.7161 -1.4274
  121SOPE   H7Y12881   1.176   0.902   5.624 -1.1542 -0.4009  1.1992
  121SOPE   C3812882   1.103   0.769   5.482  0.0723  0.7977  0.0704
  121SOPE   H8X12883   1.004   0.819   5.485  0.3168  1.2615  1.9104
  121SOPE   H8Y12884   1.090   0.659   5.474  0.5230  0.8249 -1.4143
  121SOPE   C3912885   1.184   0.814   5.351 -0.3454  0.3096  0.3099
  121SOPE   H9X12886   1.278   0.755   5.340 -0.2133  0.2501  1.6347
  121SOPE   H9Y12887   1.205   0.923   5.353  1.8628 -0.0778  0.8107
  121SOPE  C31012888   1.089   0.790   5.231  0.7132 -0.1466 -0.5553
  121SOPE  H10X12889   0.997   0.840   5.266  2.4359  1.2323  2.4388
  121SOPE  H10Y12890   1.068   0.681   5.223 -1.2041  0.1261  0.2853
  121SOPE  C31112891   1.124   0.830   5.096 -0.5060 -0.0676  0.0185
  121SOPE  H11X12892   1.032   0.816   5.034 -0.8313  0.8599  0.2765
  121SOPE  H11Y12893   1.212   0.771   5.061 -1.6468 -1.3891 -0.7324
  121SOPE  C31212894   1.161   0.979   5.080  0.0689  0.8734  0.1314
  121SOPE  H12X12895   1.255   1.016   5.127 -1.8384  3.2733  2.3699
  121SOPE  H12Y12896   1.079   1.036   5.129 -2.7230  0.1780 -3.2876
  121SOPE  C31312897   1.152   1.020   4.930 -0.2745 -0.4153  0.2453
  121SOPE  H13X12898   1.042   1.019   4.915 -0.7325  1.9697  2.6871
  121SOPE  H13Y12899   1.202   0.948   4.861  0.3323  0.2300  0.0009
  121SOPE  C31412900   1.173   1.168   4.925 -0.1771  0.2843  0.1610
  121SOPE  H14X12901   1.281   1.188   4.937 -0.1908 -0.6601  2.2734
  121SOPE  H14Y12902   1.116   1.225   5.002 -0.4599  0.3419 -0.0861
  121SOPE  C31512903   1.121   1.237   4.792 -0.1268 -0.5646  0.3779
  121SOPE  H15X12904   1.018   1.205   4.768  0.1739 -0.4006 -1.2690
  121SOPE  H15Y12905   1.178   1.188   4.710  0.8348 -0.3895  0.9245
  121SOPE  C31612906   1.150   1.389   4.784  0.2043  0.7428  0.0003
  121SOPE  H16X12907   1.257   1.419   4.788 -0.1650  2.2270 -0.5551
  121SOPE  H16Y12908   1.106   1.449   4.867 -1.8376  1.6225 -1.6375
  121SOPE  C31712909   1.092   1.457   4.658 -0.1861  0.9079  0.1025
  121SOPE  H17X12910   0.983   1.441   4.642  0.0473  0.1709 -0.8784
  121SOPE  H17Y12911   1.141   1.400   4.576 -0.0276  0.1059  0.7471
  121SOPE  C31812912   1.130   1.605   4.639  0.5523  0.7688  0.2764
  121SOPE  H18X12913   1.092   1.634   4.539 -0.3648 -1.6717 -0.1497
  121SOPE  H18Y12914   1.240   1.619   4.643  0.4534  1.4724  0.8172
  121SOPE  H18Z12915   1.082   1.653   4.727  1.2108 -1.1621  1.7640
  122SOPE     N12916   0.871   4.784   6.726 -0.4421  0.3715 -0.4244
  122SOPE   HN112917   0.950   4.766   6.661 -0.9159  0.1746 -0.9563
  122SOPE   HN212918   0.793   4.716   6.723 -0.1553 -0.3989  3.5695
  122SOPE   HN312919   0.826   4.875   6.703 -0.1563  0.6925  0.2617
  122SOPE   C1212920   0.914   4.796   6.873 -0.1346  0.5626 -0.6291
  122SOPE  H12A12921   0.945   4.691   6.891 -2.3225 -0.1042 -0.3857
  122SOPE  H12B12922   0.827   4.828   6.935  1.0759  1.9556  0.4244
  122SOPE   C1112923   1.041   4.889   6.886  0.4073  0.4399  0.8302
  122SOPE  H11A12924   1.064   4.891   6.995  0.5620  2.3396  0.8069
  122SOPE  H11B12925   1.011   4.990   6.850  2.9052  1.4029  1.2541
  122SOPE     P12926   1.204   4.893   6.680  0.0979 -0.7750 -0.4086
  122SOPE   O1312927   1.337   4.843   6.648  0.0047 -0.1258  0.1973
  122SOPE   O1412928   1.180   5.041   6.685 -0.2649 -0.0011 -0.3483
  122SOPE   O1212929   1.159   4.836   6.822 -0.1660 -0.2332  0.0793
  122SOPE   O1112930   1.105   4.814   6.591  0.0811 -0.1983  0.3639
  122SOPE    C112931   1.151   4.705   6.506  0.0270  0.4176 -0.4646
  122SOPE    HA12932   1.063   4.642   6.480  0.7645  0.5788 -3.7658
  122SOPE    HB12933   1.218   4.636   6.561 -2.5059  0.0494  2.4656
  122SOPE    C212934   1.221   4.747   6.371 -0.7668  0.3213  0.7258
  122SOPE    HS12935   1.310   4.811   6.391 -0.1230  0.9176 -3.1568
  122SOPE   O2112936   1.123   4.819   6.291 -0.5003 -0.1221  0.0013
  122SOPE   C2112937   1.165   4.919   6.206 -0.5648  0.4487 -0.0305
  122SOPE   O2212938   1.276   4.939   6.170  0.2307  0.4476 -0.0885
  122SOPE   C2212939   1.028   4.974   6.142 -0.1805 -0.1590  0.1922
  122SOPE   H2R12940   0.996   5.048   6.218  0.8426 -0.0253  0.4982
  122SOPE   H2S12941   0.951   4.894   6.151 -0.3119  0.1635  2.2828
  122SOPE    C312942   1.270   4.615   6.294  0.1848 -0.1278  0.1475
  122SOPE    HX12943   1.177   4.561   6.265  0.2430  0.3972 -1.0956
  122SOPE    HY12944   1.328   4.557   6.369 -1.1506 -0.7218  0.7428
  122SOPE   O3112945   1.340   4.653   6.174 -0.8324  0.2304 -0.3897
  122SOPE   C3112946   1.469   4.668   6.191  0.4806  0.4191  0.3256
  122SOPE   O3212947   1.528   4.634   6.291  0.2223 -0.4968 -0.5069
  122SOPE   C3212948   1.526   4.747   6.076 -0.0631  0.5737  0.4354
  122SOPE   H2X12949   1.461   4.836   6.063  1.4832  2.2083  2.9139
  122SOPE   H2Y12950   1.518   4.685   5.984  0.6056  1.8753 -0.5277
  122SOPE   C2312951   1.039   5.042   6.006 -0.2607 -0.2197  0.4022
  122SOPE   H3R12952   1.075   4.963   5.936 -1.3107  1.6681 -2.4917
  122SOPE   H3S12953   1.120   5.119   6.005 -0.1992 -0.2692  1.2511
  122SOPE   C2412954   0.911   5.094   5.937  0.0611 -0.3852 -0.3084
  122SOPE   H4R12955   0.865   5.162   6.011  0.6463 -1.0762  0.7247
  122SOPE   H4S12956   0.941   5.159   5.852  1.1385  0.9523  1.0489
  122SOPE   C2512957   0.813   4.980   5.907 -0.1532  0.0269 -0.1941
  122SOPE   H5R12958   0.859   4.907   5.838  0.5837 -0.8969  1.2191
  122SOPE   H5S12959   0.790   4.931   6.004 -0.3937  0.5697  0.0294
  122SOPE   C2612960   0.688   5.041   5.833 -0.0521  0.1133 -0.4900
  122SOPE   H6R12961   0.637   5.109   5.905 -0.0924 -1.9174  1.5400
  122SOPE   H6S12962   0.725   5.100   5.747 -1.7061  0.7515 -0.8101
  122SOPE   C2712963   0.587   4.927   5.798 -0.1278  0.3905 -0.2728
  122SOPE   H7R12964   0.567   4.865   5.887  2.2603 -2.8939 -1.8338
  122SOPE   H7S12965   0.491   4.975   5.767  0.8767  1.5508 -1.7313
  122SOPE   C2812966   0.620   4.826   5.688  0.1675  0.6062  0.3997
  122SOPE   H8R12967   0.686   4.747   5.731 -0.5512 -0.7265 -0.8861
  122SOPE   H8S12968   0.526   4.774   5.663  0.3072 -0.4845  1.9989
  122SOPE   C2912969   0.693   4.890   5.577  0.0224  0.2002  0.5537
  122SOPE   H9112970   0.799   4.913   5.593  0.5911 -0.6003 -1.7556
  122SOPE  C21012971   0.639   4.917   5.457 -0.3633 -0.1409  0.4794
  122SOPE  H10112972   0.705   4.959   5.380 -1.3430 -0.4210 -0.5428
  122SOPE  C21112973   0.498   4.906   5.417  0.8002 -0.4168  0.4586
  122SOPE  H11R12974   0.453   4.995   5.369  0.1573 -1.1451 -0.3031
  122SOPE  H11S12975   0.436   4.889   5.508 -0.9869  0.3916 -0.5572
  122SOPE  C21212976   0.466   4.795   5.316 -0.5540 -0.5540  1.3451
  122SOPE  H12R12977   0.358   4.769   5.328 -1.0901 -0.9076 -2.8675
  122SOPE  H12S12978   0.522   4.711   5.362  0.4160 -0.3550  0.5750
  122SOPE  C21312979   0.487   4.827   5.169 -0.3852  0.3382  0.4408
  122SOPE  H13R12980   0.595   4.823   5.142 -0.1269  0.3972  1.3997
  122SOPE  H13S12981   0.470   4.936   5.155 -0.4274  0.0823 -1.8122
  122SOPE  C21412982   0.407   4.745   5.064 -0.5608  0.5965 -0.1490
  122SOPE  H14R12983   0.422   4.790   4.964 -0.2986  0.4407 -0.1832
  122SOPE  H14S12984   0.298   4.752   5.084 -0.2370  2.1622  1.2943
  122SOPE  C21512985   0.457   4.602   5.056  0.2445  0.4585 -0.4979
  122SOPE  H15R12986   0.456   4.550   5.154  3.0297  1.2716  0.0276
  122SOPE  H15S12987   0.563   4.602   5.025  0.0907 -2.6547 -1.3744
  122SOPE  C21612988   0.370   4.530   4.957 -0.6882  1.3863  0.1948
  122SOPE  H16R12989   0.387   4.555   4.851  0.8802 -0.8644 -0.1606
  122SOPE  H16S12990   0.265   4.550   4.989 -0.4509  1.8939  0.6831
  122SOPE  C21712991   0.388   4.375   4.958  0.3858 -0.1378  0.1523
  122SOPE  H17R12992   0.385   4.330   5.059  1.7814 -5.2171 -1.7641
  122SOPE  H17S12993   0.485   4.342   4.915 -0.1316  1.5743 -2.6073
  122SOPE  C21812994   0.276   4.305   4.872 -0.5566  0.1211  0.5608
  122SOPE  H18R12995   0.278   4.194   4.873  1.0364  0.1365  1.1681
  122SOPE  H18S12996   0.271   4.346   4.769 -1.5365  1.2435  1.0262
  122SOPE  H18T12997   0.178   4.328   4.919  0.2080  3.1476  0.9023
  122SOPE   C3312998   1.667   4.800   6.096  0.0246 -1.2295  0.0825
  122SOPE   H3X12999   1.684   4.843   6.197  1.6769 -0.5460 -0.4542
  122SOPE   H3Y13000   1.671   4.888   6.027 -0.5465 -3.7588 -3.4883
  122SOPE   C3413001   1.780   4.706   6.063  0.8047 -0.6667 -0.2704
  122SOPE   H4X13002   1.793   4.638   6.150 -0.7136 -1.8420 -0.9195
  122SOPE   H4Y13003   1.878   4.757   6.052  0.1666  1.0265  1.3472
  122SOPE   C3513004   1.765   4.608   5.937  0.0562  0.6832 -0.3188
  122SOPE   H5X13005   1.689   4.528   5.956  0.9742 -0.5524 -1.5815
  122SOPE   H5Y13006   1.859   4.549   5.932 -0.0187  0.5310 -0.0181
  122SOPE   C3613007   1.738   4.678   5.799 -0.6657  0.0279 -0.7598
  122SOPE   H6X13008   1.813   4.760   5.792 -0.3838 -0.3325 -2.4159
  122SOPE   H6Y13009   1.638   4.726   5.804 -0.0998  1.1341  0.4062
  122SOPE   C3713010   1.738   4.600   5.669 -0.2940 -0.0149 -0.2361
  122SOPE   H7X13011   1.638   4.552   5.669  1.2655 -3.7013  2.1150
  122SOPE   H7Y13012   1.810   4.515   5.672 -1.4257 -1.0174 -0.7223
  122SOPE   C3813013   1.755   4.693   5.548  1.0786  0.3669 -0.1514
  122SOPE   H8X13014   1.864   4.703   5.527  0.8897  2.2295 -0.3430
  122SOPE   H8Y13015   1.714   4.794   5.562  1.3492  0.7205 -1.6361
  122SOPE   C3913016   1.688   4.630   5.423  0.4953 -0.1588 -0.3339
  122SOPE   H9X13017   1.590   4.582   5.440 -0.9904  2.5129 -0.8726
  122SOPE   H9Y13018   1.747   4.547   5.377  0.1452  0.5141 -2.1061
  122SOPE  C31013019   1.664   4.731   5.313  0.4442 -0.8952 -0.7630
  122SOPE  H10X13020   1.768   4.761   5.287  0.7125 -3.1277 -2.5800
  122SOPE  H10Y13021   1.602   4.819   5.340  1.5741 -0.2696 -0.0999
  122SOPE  C31113022   1.604   4.668   5.187 -0.3168  0.1102  0.5247
  122SOPE  H11X13023   1.497   4.648   5.205 -0.3170  1.1222  1.8018
  122SOPE  H11Y13024   1.659   4.572   5.174 -1.2951 -0.4268  0.2825
  122SOPE  C31213025   1.631   4.739   5.059  0.2914  0.0282 -0.0495
  122SOPE  H12X13026   1.598   4.676   4.974  0.5132  0.4089 -0.4237
  122SOPE  H12Y13027   1.742   4.745   5.053  0.3296  0.9671  1.2923
  122SOPE  C31313028   1.549   4.863   5.021 -0.0584  0.0863  0.6465
  122SOPE  H13X13029   1.446   4.859   5.062 -0.1342  1.4497  0.6320
  122SOPE  H13Y13030   1.545   4.859   4.910  0.9612 -1.5320  0.6355
  122SOPE  C31413031   1.609   4.996   5.072 -0.7991 -0.2903 -0.2867
  122SOPE  H14X13032   1.719   4.992   5.055  0.4096 -1.9422  5.5063
  122SOPE  H14Y13033   1.594   4.989   5.182  0.1666 -1.5109 -0.2095
  122SOPE  C31513034   1.546   5.123   5.020 -0.1067  0.2160  0.5083
  122SOPE  H15X13035   1.522   5.113   4.912 -0.5605  0.1861  0.6092
  122SOPE  H15Y13036   1.624   5.199   5.043 -1.7994  1.8032  1.1841
  122SOPE  C31613037   1.426   5.181   5.100  0.3543 -0.8476  0.9550
  122SOPE  H16X13038   1.438   5.183   5.210 -0.3657  0.6802  1.0298
  122SOPE  H16Y13039   1.343   5.114   5.071 -0.1699 -0.6013  1.8457
  122SOPE  C31713040   1.371   5.320   5.054  0.7689  0.2370 -0.2997
  122SOPE  H17X13041   1.451   5.398   5.055  0.4393  0.6125 -1.3269
  122SOPE  H17Y13042   1.296   5.341   5.133  1.6208 -0.6447  0.7632
  122SOPE  C31813043   1.310   5.319   4.910 -0.2221  0.0062 -0.3791
  122SOPE  H18X13044   1.319   5.423   4.872  0.0315  0.9934  2.1688
  122SOPE  H18Y13045   1.204   5.285   4.902  0.2429 -1.2004 -1.8516
  122SOPE  H18Z13046   1.362   5.252   4.839  0.5259 -1.2824  1.3238
  123SOPE     N13047   1.728   5.000   2.285 -0.2428 -1.0484  0.1623
  123SOPE   HN113048   1.624   5.011   2.293 -0.4046 -1.7373 -0.8296
  123SOPE   HN213049   1.762   4.990   2.188  1.3491  0.3902  0.5353
  123SOPE   HN313050   1.751   4.918   2.344 -1.4681 -1.0868  0.6240
  123SOPE   C1213051   1.787   5.123   2.340 -0.1162 -0.2272 -0.4547
  123SOPE  H12A13052   1.755   5.133   2.446  0.3155  0.6192 -0.3956
  123SOPE  H12B13053   1.751   5.215   2.289 -0.7869 -0.1277  0.1790
  123SOPE   C1113054   1.937   5.113   2.319 -0.1938 -0.5262  0.3424
  123SOPE  H11A13055   1.982   5.026   2.371  3.1176 -0.1239 -1.5508
  123SOPE  H11B13056   1.995   5.200   2.358  0.6030 -0.4259 -0.9926
  123SOPE     P13057   2.094   5.080   2.095  0.1363  0.3192 -0.2338
  123SOPE   O1313058   2.061   5.055   1.956 -0.1428 -0.6819  0.3164
  123SOPE   O1413059   2.191   4.988   2.161  0.4316 -0.8261  0.0320
  123SOPE   O1213060   1.958   5.100   2.178 -0.1789 -0.2942  0.2362
  123SOPE   O1113061   2.151   5.226   2.091 -0.2625  0.2940 -0.5085
  123SOPE    C113062   2.290   5.263   2.124  0.2374  0.4721  0.0428
  123SOPE    HA13063   2.326   5.340   2.053 -1.8309  0.4490 -1.1099
  123SOPE    HB13064   2.356   5.174   2.124 -0.5685 -0.1446  0.2615
  123SOPE    C213065   2.298   5.317   2.279  0.0459 -0.1761  0.7500
  123SOPE    HS13066   2.400   5.358   2.292  0.0099  1.4226 -2.6907
  123SOPE   O2113067   2.285   5.211   2.373 -0.7876  0.1499 -0.1405
  123SOPE   C2113068   2.388   5.121   2.375 -0.9096  0.4664 -0.1007
  123SOPE   O2213069   2.488   5.127   2.310 -0.3572  0.4941  0.7825
  123SOPE   C2213070   2.370   5.027   2.491 -0.2194  0.1372  0.2796
  123SOPE   H2R13071   2.470   5.002   2.532  0.3555 -0.1031 -1.2376
  123SOPE   H2S13072   2.326   4.929   2.461  1.1104  0.2042 -2.0735
  123SOPE    C313073   2.189   5.427   2.302 -0.5264 -1.3145 -0.2859
  123SOPE    HX13074   2.091   5.376   2.312  0.3567 -2.7064  2.0111
  123SOPE    HY13075   2.191   5.496   2.215 -0.7412 -0.0099  0.7171
  123SOPE   O3113076   2.224   5.515   2.412  0.0553 -0.0298  0.9100
  123SOPE   C3113077   2.147   5.526   2.518 -0.2953 -0.6153  0.2643
  123SOPE   O3213078   2.044   5.464   2.527 -0.0124 -0.2675 -0.2970
  123SOPE   C3213079   2.212   5.610   2.632 -0.2496 -1.3838 -0.1921
  123SOPE   H2X13080   2.250   5.700   2.579 -0.7200 -0.9377  0.2167
  123SOPE   H2Y13081   2.296   5.552   2.676 -2.2747 -1.7734  3.5740
  123SOPE   C2313082   2.278   5.084   2.605  0.8247  0.0959  0.7481
  123SOPE   H3R13083   2.275   5.003   2.681 -0.9768 -0.4625  0.1204
  123SOPE   H3S13084   2.177   5.106   2.566  0.6993  0.2057  1.1283
  123SOPE   C2413085   2.331   5.214   2.670  0.0408 -0.3592  0.3510
  123SOPE   H4R13086   2.441   5.199   2.671  0.0790 -0.4541 -1.8374
  123SOPE   H4S13087   2.295   5.302   2.612  0.1920 -0.9372 -0.6195
  123SOPE   C2513088   2.296   5.238   2.817  0.6872  0.2285 -0.3591
  123SOPE   H5R13089   2.186   5.254   2.813  0.7712  1.3933  1.1602
  123SOPE   H5S13090   2.304   5.147   2.880 -0.8927  0.2619 -0.0672
  123SOPE   C2613091   2.382   5.347   2.884  0.2005 -0.3922  0.0390
  123SOPE   H6R13092   2.484   5.308   2.862 -0.1642 -0.4631 -1.6984
  123SOPE   H6S13093   2.378   5.444   2.831  1.0857 -1.1207 -1.4542
  123SOPE   C2713094   2.365   5.372   3.034  0.5488 -0.3772  0.1163
  123SOPE   H7R13095   2.370   5.275   3.088 -2.4847 -0.8038 -0.1990
  123SOPE   H7S13096   2.457   5.425   3.067  0.9399 -0.7079 -0.4132
  123SOPE   C2813097   2.232   5.443   3.069  0.2295  0.6012 -0.3398
  123SOPE   H8R13098   2.245   5.469   3.176  2.8387 -0.3561 -0.3721
  123SOPE   H8S13099   2.227   5.537   3.010  0.2502  0.3850 -0.6868
  123SOPE   C2913100   2.103   5.360   3.044  0.2166 -0.4355 -0.1289
  123SOPE   H9113101   2.043   5.387   2.956  4.0477  0.4921 -2.6931
  123SOPE  C21013102   2.048   5.271   3.131 -0.2110 -0.5170  0.3303
  123SOPE  H10113103   1.949   5.232   3.104 -2.1113  3.2229  1.2352
  123SOPE  C21113104   2.097   5.222   3.262 -0.3900 -0.9080  0.5767
  123SOPE  H11R13105   2.202   5.258   3.274 -0.2830 -0.8721 -0.4094
  123SOPE  H11S13106   2.090   5.112   3.273 -2.0731 -0.7390  1.5282
  123SOPE  C21213107   2.013   5.266   3.389  0.5014  0.4872 -0.6842
  123SOPE  H12R13108   1.917   5.211   3.395  1.7258 -1.8748 -1.5246
  123SOPE  H12S13109   1.986   5.374   3.395  1.5885  0.6859  2.5674
  123SOPE  C21313110   2.098   5.248   3.513  0.3877  0.6415 -0.4937
  123SOPE  H13R13111   2.197   5.299   3.515  1.2287 -0.9143 -0.3005
  123SOPE  H13S13112   2.126   5.141   3.525  0.3441  0.7417  0.6110
  123SOPE  C21413113   2.014   5.276   3.645 -0.0935 -0.1372  0.1528
  123SOPE  H14R13114   1.917   5.224   3.631 -0.8388  1.0243  0.8176
  123SOPE  H14S13115   1.984   5.383   3.653 -1.0873 -0.4407  0.6223
  123SOPE  C21513116   2.082   5.232   3.778  0.7168 -0.6582 -0.2379
  123SOPE  H15R13117   2.104   5.124   3.785  1.5697 -0.5041 -0.3830
  123SOPE  H15S13118   2.017   5.256   3.865  0.2583 -2.8712  0.0944
  123SOPE  C21613119   2.226   5.293   3.791  0.4430 -0.3437 -0.5398
  123SOPE  H16R13120   2.218   5.403   3.776  2.1146 -0.0105  0.6560
  123SOPE  H16S13121   2.299   5.245   3.723  2.2130  2.3660 -0.7006
  123SOPE  C21713122   2.269   5.273   3.938 -0.1258 -0.0345 -0.5039
  123SOPE  H17R13123   2.264   5.164   3.958 -0.7297 -1.0712 -5.1828
  123SOPE  H17S13124   2.191   5.322   4.001  1.0059  1.4946 -0.2350
  123SOPE  C21813125   2.403   5.331   3.980  0.1636 -0.5960  0.6852
  123SOPE  H18R13126   2.428   5.308   4.086  4.0884 -0.0061  0.0241
  123SOPE  H18S13127   2.414   5.439   3.958  0.9554 -1.1158 -1.8159
  123SOPE  H18T13128   2.476   5.266   3.927  1.2329  0.9084  0.2478
  123SOPE   C3313129   2.106   5.643   2.736  0.2783 -0.5604  0.2939
  123SOPE   H3X13130   2.160   5.690   2.820 -1.2199  0.8732  0.5137
  123SOPE   H3Y13131   2.063   5.551   2.779 -0.7851 -0.5166 -0.6196
  123SOPE   C3413132   1.996   5.744   2.690 -0.7034 -0.1846  0.4940
  123SOPE   H4X13133   1.930   5.696   2.615  1.4081 -1.7177 -0.5132
  123SOPE   H4Y13134   2.048   5.834   2.650  0.8746 -1.1810  0.1875
  123SOPE   C3513135   1.911   5.802   2.802  0.1541 -0.4563 -0.1094
  123SOPE   H5X13136   1.839   5.875   2.759  1.0875  0.9683  0.6590
  123SOPE   H5Y13137   1.965   5.863   2.878  1.0773 -0.4436 -0.7582
  123SOPE   C3613138   1.836   5.698   2.880  0.1313  0.3933 -0.0803
  123SOPE   H6X13139   1.896   5.650   2.961 -0.6483  0.2030  0.4012
  123SOPE   H6Y13140   1.809   5.616   2.810  1.9765 -2.1931  2.0304
  123SOPE   C3713141   1.698   5.741   2.937  0.2196  0.2777  0.1244
  123SOPE   H7X13142   1.624   5.756   2.855 -1.1939  0.2335  1.3501
  123SOPE   H7Y13143   1.709   5.842   2.983  0.1359  0.4744 -0.2831
  123SOPE   C3813144   1.636   5.645   3.045 -0.2437 -0.1269 -0.6713
  123SOPE   H8X13145   1.611   5.542   3.011 -1.4593 -1.0354  2.5597
  123SOPE   H8Y13146   1.540   5.696   3.069 -0.0159  0.5007 -1.0566
  123SOPE   C3913147   1.713   5.639   3.178 -0.0878  0.0500  0.3850
  123SOPE   H9X13148   1.732   5.736   3.229  0.1174 -0.8898  2.1958
  123SOPE   H9Y13149   1.820   5.619   3.155  0.0033  1.0844 -0.1344
  123SOPE  C31013150   1.651   5.539   3.269 -0.6594  0.3427 -0.2637
  123SOPE  H10X13151   1.671   5.437   3.230 -1.8756 -0.1047  0.2305
  123SOPE  H10Y13152   1.541   5.545   3.267 -0.7471 -1.0118 -2.3228
  123SOPE  C31113153   1.683   5.569   3.418  0.2950 -0.8642 -0.1802
  123SOPE  H11X13154   1.659   5.675   3.441  0.9850 -0.9130  0.8157
  123SOPE  H11Y13155   1.792   5.555   3.431  0.0688 -1.5024  1.2280
  123SOPE  C31213156   1.601   5.493   3.527  0.7569 -0.8184  0.8594
  123SOPE  H12X13157   1.617   5.384   3.514  1.9153 -0.5727  0.0277
  123SOPE  H12Y13158   1.494   5.521   3.525  1.8764  4.4126  0.1125
  123SOPE  C31313159   1.644   5.523   3.676 -0.5057  0.0796  0.2779
  123SOPE  H13X13160   1.618   5.629   3.693 -2.2794 -0.0062 -1.5665
  123SOPE  H13Y13161   1.754   5.510   3.685 -0.2384  1.0791 -1.2639
  123SOPE  C31413162   1.570   5.427   3.768  0.0332  0.5404 -0.2908
  123SOPE  H14X13163   1.579   5.330   3.714  0.0311  1.2104 -1.5499
  123SOPE  H14Y13164   1.462   5.453   3.771 -0.7767 -2.4966 -0.0949
  123SOPE  C31513165   1.623   5.415   3.912 -0.3491  0.3264  0.1277
  123SOPE  H15X13166   1.568   5.490   3.972  2.1242  0.3426  2.5836
  123SOPE  H15Y13167   1.728   5.450   3.916 -0.5102  0.7269  1.0345
  123SOPE  C31613168   1.608   5.269   3.971  0.2738  0.2346 -0.0958
  123SOPE  H16X13169   1.675   5.264   4.059  0.2511  0.7290 -0.0435
  123SOPE  H16Y13170   1.639   5.196   3.893  0.1207  0.4940 -0.4050
  123SOPE  C31713171   1.465   5.220   4.016 -0.0718  0.3623 -0.0780
  123SOPE  H17X13172   1.397   5.202   3.931  0.8936  2.7999 -1.4885
  123SOPE  H17Y13173   1.437   5.307   4.080 -0.9990 -0.4428  0.6412
  123SOPE  C31813174   1.461   5.095   4.109  0.1098 -0.7822 -0.1009
  123SOPE  H18X13175   1.539   5.083   4.187 -1.0054  1.8792  1.5774
  123SOPE  H18Y13176   1.483   5.013   4.037  1.6552 -0.3362 -0.1733
  123SOPE  H18Z13177   1.358   5.076   4.146 -0.1184 -0.7267 -0.6931
  124SOPE     N13178   5.579   1.125   2.021  0.4607  0.7903 -0.2089
  124SOPE   HN113179   5.604   1.111   1.920  4.5307 -1.6904  0.9004
  124SOPE   HN213180   5.498   1.063   2.038 -0.3759  0.7570 -3.5854
  124SOPE   HN313181   5.558   1.224   2.041  0.4244  0.4449  1.5760
  124SOPE   C1213182   5.697   1.090   2.102 -0.2578  0.1757  0.0670
  124SOPE  H12A13183   5.659   1.073   2.205 -0.5240  0.2221 -0.0229
  124SOPE  H12B13184   5.774   1.170   2.110 -0.2863  0.1833  0.2688
  124SOPE   C1113185   5.771   0.959   2.057  0.3518  0.9976 -0.7972
  124SOPE  H11A13186   5.844   0.924   2.134 -1.4355 -0.9067  0.1362
  124SOPE  H11B13187   5.822   0.982   1.962  0.8525  2.2755 -0.2389
  124SOPE     P13188   5.714   0.701   2.027  0.2479  0.1332  0.0486
  124SOPE   O1313189   5.847   0.679   1.965 -0.1692  0.0271 -0.4430
  124SOPE   O1413190   5.601   0.625   1.962 -0.1954 -0.4094 -0.2490
  124SOPE   O1213191   5.674   0.856   2.033 -1.0450 -0.4425 -0.6901
  124SOPE   O1113192   5.731   0.671   2.184 -0.0249 -0.2555  0.3686
  124SOPE    C113193   5.607   0.636   2.254 -0.6697 -0.1628 -0.1786
  124SOPE    HA13194   5.643   0.574   2.339 -0.5635  1.4858  1.0216
  124SOPE    HB13195   5.541   0.569   2.193  0.3655  0.4895 -2.0917
  124SOPE    C213196   5.532   0.760   2.323 -0.1788 -0.3111 -0.4618
  124SOPE    HS13197   5.516   0.841   2.248 -0.6404 -1.2838 -1.4377
  124SOPE   O2113198   5.623   0.807   2.425  0.4813 -0.5051 -0.8437
  124SOPE   C2113199   5.605   0.931   2.464  0.4710 -0.9113 -0.3267
  124SOPE   O2213200   5.521   1.005   2.420 -0.0014  0.0835 -0.0561
  124SOPE   C2213201   5.696   0.973   2.578 -0.7069 -0.0649  0.0458
  124SOPE   H2R13202   5.782   1.018   2.525  1.2607 -2.8050  0.7013
  124SOPE   H2S13203   5.736   0.885   2.633 -0.7755  1.9024  3.5386
  124SOPE    C313204   5.395   0.720   2.389  0.3741  0.6107 -0.0976
  124SOPE    HX13205   5.344   0.668   2.305 -0.5052  0.5231  0.4767
  124SOPE    HY13206   5.334   0.811   2.406  0.4855  0.4891  1.0167
  124SOPE   O3113207   5.409   0.626   2.499  0.8398  0.1305 -0.0954
  124SOPE   C3113208   5.285   0.609   2.556  0.6829  0.9069 -0.1913
  124SOPE   O3213209   5.179   0.666   2.532 -1.0324  0.8764  0.0027
  124SOPE   C3213210   5.291   0.483   2.650 -0.3934 -0.1221 -0.4598
  124SOPE   H2X13211   5.398   0.465   2.670  0.3989  3.1214 -1.2000
  124SOPE   H2Y13212   5.255   0.391   2.599  0.5904 -0.6985 -0.1215
  124SOPE   C2313213   5.634   1.067   2.684 -0.7974 -0.2024  0.7352
  124SOPE   H3R13214   5.599   1.160   2.634 -0.8040 -0.9005 -0.6159
  124SOPE   H3S13215   5.718   1.109   2.744 -0.5838  1.6319 -0.7526
  124SOPE   C2413216   5.517   1.014   2.770 -0.4580  0.1452 -0.2799
  124SOPE   H4R13217   5.519   1.081   2.859  5.0838 -0.9648  0.7921
  124SOPE   H4S13218   5.432   1.042   2.704  0.3176 -0.8725 -1.7491
  124SOPE   C2513219   5.511   0.868   2.803  0.2396  0.8940 -0.9012
  124SOPE   H5R13220   5.414   0.847   2.852  0.0150 -0.8285 -1.9977
  124SOPE   H5S13221   5.512   0.805   2.712 -2.1641  1.8802 -1.6629
  124SOPE   C2613222   5.621   0.810   2.894  0.3796 -0.1590 -0.6845
  124SOPE   H6R13223   5.598   0.704   2.915 -0.9428  0.4790  1.3832
  124SOPE   H6S13224   5.710   0.806   2.827  1.1679  0.6485  0.2558
  124SOPE   C2713225   5.637   0.898   3.020  0.6776 -0.2410 -0.0681
  124SOPE   H7R13226   5.711   0.978   2.997 -0.4235  0.3299 -1.9116
  124SOPE   H7S13227   5.544   0.954   3.047 -0.3220 -2.4664  1.3507
  124SOPE   C2813228   5.676   0.805   3.144 -0.3904 -0.5791  0.7627
  124SOPE   H8R13229   5.599   0.725   3.143  0.5836 -1.6106  2.8162
  124SOPE   H8S13230   5.779   0.766   3.129  0.4008  1.8388 -0.7069
  124SOPE   C2913231   5.685   0.877   3.271 -0.0472 -0.6080  0.3295
  124SOPE   H9113232   5.786   0.918   3.286 -0.0063 -0.7025  0.3134
  124SOPE  C21013233   5.600   0.872   3.375  0.0225 -0.2134 -0.3579
  124SOPE  H10113234   5.622   0.936   3.462  0.1266 -0.4254 -0.2280
  124SOPE  C21113235   5.464   0.809   3.390 -0.9016 -0.3393 -0.0415
  124SOPE  H11R13236   5.439   0.738   3.309 -0.9881  1.1512 -1.3676
  124SOPE  H11S13237   5.394   0.896   3.388 -2.3662 -1.4870 -2.0538
  124SOPE  C21213238   5.441   0.739   3.521 -0.5669 -0.1099  0.5203
  124SOPE  H12R13239   5.525   0.667   3.531  2.4453  3.0039 -0.4297
  124SOPE  H12S13240   5.340   0.692   3.515 -0.5542 -0.0458 -0.2683
  124SOPE  C21313241   5.457   0.815   3.652 -0.2710  0.6278  0.4527
  124SOPE  H13R13242   5.398   0.910   3.654  0.3321  1.1011 -1.6504
  124SOPE  H13S13243   5.564   0.844   3.667 -0.4768  2.2887 -0.9135
  124SOPE  C21413244   5.416   0.733   3.773  0.4591 -0.1642  0.9000
  124SOPE  H14R13245   5.460   0.632   3.765 -2.3161 -1.4415  0.7605
  124SOPE  H14S13246   5.308   0.714   3.757  0.4786 -0.7152  1.3916
  124SOPE  C21513247   5.451   0.787   3.912  0.4832  0.3123 -0.2119
  124SOPE  H15R13248   5.560   0.807   3.925  0.5036  1.0310 -1.2992
  124SOPE  H15S13249   5.430   0.697   3.973 -0.1430 -0.5869 -1.6994
  124SOPE  C21613250   5.372   0.916   3.961 -0.0757  0.9118  0.1603
  124SOPE  H16R13251   5.393   0.998   3.890  0.8853  2.2602  1.9035
  124SOPE  H16S13252   5.405   0.954   4.061  0.8397  1.5999 -0.3856
  124SOPE  C21713253   5.223   0.902   3.952 -0.5365 -0.1830 -0.1267
  124SOPE  H17R13254   5.193   0.823   4.025  1.2898 -1.2010 -0.4147
  124SOPE  H17S13255   5.197   0.865   3.851 -3.9323  1.5211 -0.0250
  124SOPE  C21813256   5.136   1.029   3.976 -0.9201 -0.0445 -0.6706
  124SOPE  H18R13257   5.184   1.121   3.936  2.7243 -0.6059  1.9397
  124SOPE  H18S13258   5.140   1.051   4.085 -1.9434 -0.5980 -0.5078
  124SOPE  H18T13259   5.035   1.010   3.934 -0.1140 -0.6870 -2.4350
  124SOPE   C3313260   5.203   0.506   2.773  0.4691 -0.2537  0.0376
  124SOPE   H3X13261   5.168   0.414   2.825  1.4589 -0.3566  0.5393
  124SOPE   H3Y13262   5.116   0.566   2.739 -0.1083  1.2561  3.7399
  124SOPE   C3413263   5.270   0.587   2.883 -0.4090 -0.0170  0.0117
  124SOPE   H4X13264   5.315   0.683   2.849  2.6939 -0.2304  2.9392
  124SOPE   H4Y13265   5.355   0.525   2.919  1.0236  1.2668 -1.0171
  124SOPE   C3513266   5.184   0.624   3.003 -0.7469 -0.4797  0.1573
  124SOPE   H5X13267   5.172   0.526   3.054  2.1359 -1.3132 -0.6073
  124SOPE   H5Y13268   5.087   0.672   2.976 -0.6885 -0.6351 -0.3275
  124SOPE   C3613269   5.266   0.714   3.093 -0.4244  0.2543  0.1517
  124SOPE   H6X13270   5.301   0.801   3.035  0.6841  0.2270  0.7510
  124SOPE   H6Y13271   5.355   0.669   3.142  0.5561  2.8273  0.8920
  124SOPE   C3713272   5.178   0.765   3.198 -0.4278  0.1557 -0.8886
  124SOPE   H7X13273   5.083   0.812   3.164 -0.4028  1.0349  0.1751
  124SOPE   H7Y13274   5.240   0.843   3.249  2.8809 -1.9723 -1.3629
  124SOPE   C3813275   5.147   0.651   3.305 -0.1834  0.4170 -0.3868
  124SOPE   H8X13276   5.237   0.596   3.340  0.3088 -0.4236 -2.7761
  124SOPE   H8Y13277   5.075   0.579   3.261  0.6382 -1.4269  1.1874
  124SOPE   C3913278   5.077   0.711   3.433 -0.0268  0.6847 -0.4332
  124SOPE   H9X13279   4.980   0.759   3.405  0.2194  0.1645 -2.2582
  124SOPE   H9Y13280   5.136   0.801   3.460  0.7901 -0.1292  0.5726
  124SOPE  C31013281   5.059   0.602   3.539 -0.0540  0.1207 -0.2033
  124SOPE  H10X13282   5.154   0.551   3.564  0.4246  2.1208  2.5189
  124SOPE  H10Y13283   4.994   0.528   3.487 -0.0889  0.9647 -1.4087
  124SOPE  C31113284   4.980   0.654   3.665 -0.4403  0.5123  0.7718
  124SOPE  H11X13285   4.881   0.692   3.630  0.4504  0.4270 -2.0438
  124SOPE  H11Y13286   5.034   0.741   3.709  1.4252 -0.5409  0.6312
  124SOPE  C31213287   4.978   0.558   3.779 -0.1640  0.7214 -0.2950
  124SOPE  H12X13288   4.888   0.494   3.763  1.9065 -2.5624  0.0733
  124SOPE  H12Y13289   4.965   0.613   3.874  1.0546  2.2436 -0.9766
  124SOPE  C31313290   5.096   0.465   3.800 -0.2537 -0.0103  0.2999
  124SOPE  H13X13291   5.190   0.519   3.825 -1.3725  2.0447  0.2874
  124SOPE  H13Y13292   5.112   0.404   3.708 -0.8954  1.1473 -0.6169
  124SOPE  C31413293   5.075   0.358   3.905  0.3448 -0.2343  0.2189
  124SOPE  H14X13294   5.170   0.300   3.897 -1.0979 -2.7436  0.2933
  124SOPE  H14Y13295   4.986   0.293   3.889 -0.9310  1.2794  0.8964
  124SOPE  C31513296   5.054   0.414   4.049 -0.1615  0.2383 -0.2987
  124SOPE  H15X13297   4.952   0.454   4.062 -0.5168 -0.8469  0.4526
  124SOPE  H15Y13298   5.126   0.496   4.070 -1.0737  1.1979 -0.8870
  124SOPE  C31613299   5.087   0.305   4.154 -0.8086 -0.0763 -0.2265
  124SOPE  H16X13300   5.019   0.217   4.149 -1.2174  0.1059  1.5156
  124SOPE  H16Y13301   5.074   0.350   4.255  0.2819  3.3194 -1.4734
  124SOPE  C31713302   5.228   0.247   4.136  0.2602  0.1898 -0.6766
  124SOPE  H17X13303   5.291   0.337   4.121  0.6374  0.5742  2.4682
  124SOPE  H17Y13304   5.229   0.190   4.041  0.8541 -2.1551  0.6587
  124SOPE  C31813305   5.264   0.153   4.254 -0.9118  0.6464 -0.5801
  124SOPE  H18X13306   5.224   0.051   4.242  1.8297 -0.4674 -1.1186
  124SOPE  H18Y13307   5.235   0.204   4.349  1.9688  3.1740 -0.8609
  124SOPE  H18Z13308   5.373   0.129   4.250 -1.3561 -1.3707 -1.4250
  125SOPE     N13309   2.945   2.675   2.408  0.2079 -0.1072 -0.2154
  125SOPE   HN113310   2.983   2.625   2.326 -0.2001 -1.0628  0.1573
  125SOPE   HN213311   2.859   2.729   2.385 -1.4865 -2.5809 -0.1935
  125SOPE   HN313312   3.017   2.745   2.436  0.0376 -0.5170  1.3703
  125SOPE   C1213313   2.921   2.582   2.527 -0.4376 -0.3168  0.1461
  125SOPE  H12A13314   3.014   2.521   2.524 -0.4845 -0.3542 -0.7016
  125SOPE  H12B13315   2.840   2.509   2.505  0.4352 -0.5588 -2.6592
  125SOPE   C1113316   2.903   2.652   2.662  0.3202  0.5026  0.1860
  125SOPE  H11A13317   2.992   2.716   2.680 -0.3954  1.1399  1.5645
  125SOPE  H11B13318   2.907   2.572   2.739  1.1061 -0.3000 -0.6699
  125SOPE     P13319   2.769   2.864   2.720  0.3863  0.0809  0.5609
  125SOPE   O1313320   2.641   2.884   2.784  0.2598 -0.3880 -0.3904
  125SOPE   O1413321   2.804   2.940   2.598  0.4102  0.0177 -0.4433
  125SOPE   O1213322   2.781   2.717   2.671  0.4653  0.2259  0.3383
  125SOPE   O1113323   2.880   2.883   2.830 -0.7385  0.5739  0.1362
  125SOPE    C113324   2.878   2.988   2.935  1.1083 -0.1931 -0.0729
  125SOPE    HA13325   2.825   3.075   2.890 -0.2965 -0.8848  0.1681
  125SOPE    HB13326   2.975   3.035   2.960 -0.0048  1.8416  0.6571
  125SOPE    C213327   2.796   2.953   3.064  0.3447 -0.5883  0.8450
  125SOPE    HS13328   2.697   2.911   3.033  0.7106 -1.3526  0.6728
  125SOPE   O2113329   2.780   3.078   3.136  0.2241 -0.1175 -0.2637
  125SOPE   C2113330   2.653   3.112   3.175  0.8068  0.0923 -0.2643
  125SOPE   O2213331   2.557   3.032   3.161  0.7422  0.1144 -0.5056
  125SOPE   C2213332   2.649   3.255   3.212  0.4241  0.2193 -0.1214
  125SOPE   H2R13333   2.544   3.271   3.245  0.7698 -0.4192  1.3986
  125SOPE   H2S13334   2.687   3.319   3.130  1.2254  0.3435  0.3309
  125SOPE    C313335   2.874   2.858   3.149 -0.5437 -0.0821  0.0543
  125SOPE    HX13336   2.961   2.918   3.183 -0.5392 -0.6388  1.0806
  125SOPE    HY13337   2.915   2.777   3.086 -0.8011  0.2741 -0.5752
  125SOPE   O3113338   2.800   2.801   3.264  0.3117 -0.1906  0.6681
  125SOPE   C3113339   2.729   2.696   3.236  0.1265  0.1988 -0.0247
  125SOPE   O3213340   2.729   2.633   3.129  0.1098  0.0292 -0.0338
  125SOPE   C3213341   2.648   2.653   3.366 -0.2422 -1.5833 -0.3107
  125SOPE   H2X13342   2.580   2.570   3.339 -0.5196 -1.4489 -0.0300
  125SOPE   H2Y13343   2.584   2.739   3.395  0.8941 -1.2780  1.4504
  125SOPE   C2313344   2.737   3.283   3.335  0.4425  0.4455  0.3669
  125SOPE   H3R13345   2.735   3.388   3.370 -1.5783  0.5314  0.1301
  125SOPE   H3S13346   2.843   3.261   3.312  0.9994  2.3361  0.9074
  125SOPE   C2413347   2.690   3.203   3.471 -0.6251 -0.2170  0.1806
  125SOPE   H4R13348   2.581   3.218   3.490 -0.1646  2.5442  1.1162
  125SOPE   H4S13349   2.704   3.094   3.457 -1.4396 -0.2703 -0.3182
  125SOPE   C2513350   2.772   3.249   3.592  1.3710 -0.2349 -0.1551
  125SOPE   H5R13351   2.880   3.232   3.573  1.2488 -2.5416  0.8709
  125SOPE   H5S13352   2.754   3.358   3.584 -1.2686 -0.6563 -0.9275
  125SOPE   C2613353   2.726   3.193   3.729 -0.3577  1.0314  0.3174
  125SOPE   H6R13354   2.787   3.233   3.813 -0.1511  0.8105  0.2721
  125SOPE   H6S13355   2.621   3.219   3.757 -0.3028  0.9177  0.6386
  125SOPE   C2713356   2.733   3.037   3.740  0.1402  0.2167 -0.0004
  125SOPE   H7R13357   2.662   2.984   3.673 -0.5309 -2.1947  2.4197
  125SOPE   H7S13358   2.840   3.011   3.726  0.3319  0.7580  0.3760
  125SOPE   C2813359   2.687   2.991   3.886  0.4222 -0.7924  0.4354
  125SOPE   H8R13360   2.685   3.083   3.948 -1.5800  1.4430 -2.6029
  125SOPE   H8S13361   2.581   2.958   3.879  0.1836  0.1953 -1.1475
  125SOPE   C2913362   2.781   2.891   3.937 -0.6141  0.5019 -0.4515
  125SOPE   H9113363   2.880   2.928   3.967 -1.0165 -0.0196  1.7208
  125SOPE  C21013364   2.756   2.764   3.942  0.5202  0.1850 -0.0714
  125SOPE  H10113365   2.828   2.687   3.971 -0.2332 -0.0756  1.1994
  125SOPE  C21113366   2.623   2.693   3.906  0.1743  0.0170 -0.0054
  125SOPE  H11R13367   2.643   2.596   3.856 -0.8385 -1.3311  2.0570
  125SOPE  H11S13368   2.561   2.750   3.834 -0.6773 -1.0035 -0.1100
  125SOPE  C21213369   2.540   2.639   4.026 -0.1631  0.2420 -0.3503
  125SOPE  H12R13370   2.463   2.579   3.972 -0.1395 -2.4087  2.3280
  125SOPE  H12S13371   2.497   2.724   4.083  1.3426  0.8340 -0.0544
  125SOPE  C21313372   2.624   2.547   4.107  0.0757 -0.2699  0.2871
  125SOPE  H13R13373   2.697   2.603   4.170  0.3394 -2.3957  1.9967
  125SOPE  H13S13374   2.682   2.481   4.039 -0.1004  1.2426 -1.4068
  125SOPE  C21413375   2.537   2.462   4.199  0.6299  0.2655 -0.0133
  125SOPE  H14R13376   2.590   2.378   4.247 -0.2091 -0.1146  0.2707
  125SOPE  H14S13377   2.453   2.410   4.149  0.6315 -0.5413  0.8019
  125SOPE  C21513378   2.478   2.553   4.313 -0.4892 -0.8344  0.4518
  125SOPE  H15R13379   2.389   2.494   4.341  0.0328 -0.9796  1.8614
  125SOPE  H15S13380   2.448   2.654   4.276  5.3925  1.3722  0.6215
  125SOPE  C21613381   2.578   2.579   4.428  0.5997  0.3038  0.1170
  125SOPE  H16R13382   2.673   2.618   4.385  0.3408  2.4529  1.3136
  125SOPE  H16S13383   2.597   2.476   4.466 -1.1475  0.6776  2.1615
  125SOPE  C21713384   2.517   2.673   4.528  0.3149  0.9184  0.3052
  125SOPE  H17R13385   2.431   2.628   4.582  1.8092 -1.4593  0.8692
  125SOPE  H17S13386   2.482   2.769   4.485 -2.2598  0.6654  1.6298
  125SOPE  C21813387   2.616   2.717   4.635  0.1456 -0.1257  0.1298
  125SOPE  H18R13388   2.563   2.792   4.698 -1.9777 -2.2075  0.9958
  125SOPE  H18S13389   2.704   2.759   4.582 -2.2221  1.1479 -3.0566
  125SOPE  H18T13390   2.647   2.637   4.706  1.2418  1.2297  1.2487
  125SOPE   C3313391   2.726   2.581   3.480 -0.5961 -0.0597  0.2839
  125SOPE   H3X13392   2.763   2.488   3.432  0.2317  0.4687 -0.1360
  125SOPE   H3Y13393   2.654   2.559   3.561 -0.0397  1.2711  1.1846
  125SOPE   C3413394   2.844   2.660   3.536  0.5124  0.8046  0.4664
  125SOPE   H4X13395   2.801   2.737   3.604  1.1505 -0.4883  2.4232
  125SOPE   H4Y13396   2.909   2.701   3.457  2.6523 -2.9384  0.0633
  125SOPE   C3513397   2.935   2.572   3.624 -0.2293 -0.4299  0.2655
  125SOPE   H5X13398   2.982   2.499   3.555  0.0378  1.4311 -1.6351
  125SOPE   H5Y13399   2.880   2.506   3.694  1.0458  0.8066  2.5196
  125SOPE   C3613400   3.041   2.650   3.708  0.8004 -0.2157 -0.2742
  125SOPE   H6X13401   2.991   2.710   3.787  0.2075 -0.7054 -0.2724
  125SOPE   H6Y13402   3.067   2.724   3.629 -3.0973  2.5599  0.7389
  125SOPE   C3713403   3.151   2.576   3.769 -0.0247 -0.3814  0.2798
  125SOPE   H7X13404   3.225   2.653   3.801 -0.0198 -0.7445  1.1819
  125SOPE   H7Y13405   3.195   2.517   3.685  0.3918  0.0535  0.1863
  125SOPE   C3813406   3.119   2.480   3.886 -0.2338 -0.2834  0.1867
  125SOPE   H8X13407   3.205   2.414   3.909 -0.8185 -0.8962  0.6437
  125SOPE   H8Y13408   3.035   2.412   3.859 -0.7719  0.6747 -0.6392
  125SOPE   C3913409   3.098   2.560   4.010 -0.4141  0.1414 -0.4754
  125SOPE   H9X13410   3.016   2.634   4.001 -1.8188 -0.9266  2.4607
  125SOPE   H9Y13411   3.188   2.622   4.031  0.2321 -0.9334 -0.0309
  125SOPE  C31013412   3.066   2.480   4.142 -0.8802  0.4689  0.4664
  125SOPE  H10X13413   3.165   2.434   4.161 -1.8282 -1.3013  1.3022
  125SOPE  H10Y13414   3.005   2.394   4.109  0.1971  0.4703 -1.6649
  125SOPE  C31113415   3.042   2.550   4.274  0.4229  0.5796 -0.1400
  125SOPE  H11X13416   2.937   2.586   4.279  0.0214 -0.7096  1.8575
  125SOPE  H11Y13417   3.110   2.638   4.284 -0.5788  1.4979 -1.2561
  125SOPE  C31213418   3.078   2.458   4.396  0.1666 -0.8558  0.3931
  125SOPE  H12X13419   3.189   2.448   4.390  0.1045 -1.9082  0.8628
  125SOPE  H12Y13420   3.032   2.358   4.381  0.6008 -0.8301 -1.3921
  125SOPE  C31313421   3.039   2.524   4.528 -0.4150 -0.1042 -0.0318
  125SOPE  H13X13422   2.932   2.526   4.556 -0.0322 -4.5591  2.9169
  125SOPE  H13Y13423   3.072   2.630   4.533 -1.8930  0.3900 -0.3863
  125SOPE  C31413424   3.103   2.459   4.650 -0.0655  0.6508 -0.0412
  125SOPE  H14X13425   3.124   2.525   4.737  0.6700 -3.6617  3.4127
  125SOPE  H14Y13426   3.204   2.424   4.619 -0.0660 -0.9904  1.6326
  125SOPE  C31513427   3.023   2.339   4.707  0.0332 -0.0730  0.7495
  125SOPE  H15X13428   2.999   2.262   4.631 -0.5153  1.4430 -0.6654
  125SOPE  H15Y13429   2.920   2.369   4.737 -0.5274 -0.6014 -0.5597
  125SOPE  C31613430   3.092   2.271   4.829  0.0394 -0.4205 -0.0901
  125SOPE  H16X13431   3.201   2.250   4.820 -0.3061 -2.8014  0.6727
  125SOPE  H16Y13432   3.033   2.177   4.837 -0.3453 -0.0893  1.0670
  125SOPE  C31713433   3.064   2.346   4.961  0.2352 -0.0348  0.0953
  125SOPE  H17X13434   3.093   2.453   4.958 -0.7972  0.2608  0.0603
  125SOPE  H17Y13435   3.132   2.296   5.033  0.3645  1.2982  0.9178
  125SOPE  C31813436   2.926   2.335   5.018 -0.9956 -0.1580  0.3415
  125SOPE  H18X13437   2.914   2.396   5.110  0.2274  1.8851 -0.7872
  125SOPE  H18Y13438   2.888   2.232   5.037 -1.1922 -0.5301 -1.8450
  125SOPE  H18Z13439   2.848   2.386   4.957 -1.4906  1.1095  1.9493
  126SOPE     N13440   3.115   2.309   1.894  0.0739  0.3702  0.1890
  126SOPE   HN113441   3.153   2.318   1.990 -0.0283  0.4787  0.2201
  126SOPE   HN213442   3.061   2.221   1.885 -1.5017  1.3191 -0.1765
  126SOPE   HN313443   3.201   2.307   1.835 -0.2559 -0.5372 -0.2803
  126SOPE   C1213444   3.017   2.419   1.872 -0.6156 -0.1742  0.1800
  126SOPE  H12A13445   2.966   2.408   1.774 -3.0097 -0.7649  1.4091
  126SOPE  H12B13446   3.060   2.520   1.886  0.6480 -0.6435 -0.2369
  126SOPE   C1113447   2.898   2.404   1.971  0.0269  0.6570 -0.4223
  126SOPE  H11A13448   2.838   2.495   1.950  0.4691  0.6529 -1.8361
  126SOPE  H11B13449   2.940   2.403   2.073 -0.4068 -2.6176 -0.1496
  126SOPE     P13450   2.694   2.249   2.013  0.4542 -0.0035  0.4770
  126SOPE   O1313451   2.637   2.122   1.966 -0.3212  0.1684  0.0442
  126SOPE   O1413452   2.608   2.367   2.009 -0.6944 -0.0277  0.0308
  126SOPE   O1213453   2.826   2.282   1.935  0.5384 -0.2380 -0.8846
  126SOPE   O1113454   2.736   2.230   2.168 -0.2441 -0.6402  0.9812
  126SOPE    C113455   2.832   2.129   2.205 -0.1598  0.8382 -0.7428
  126SOPE    HA13456   2.937   2.154   2.179 -0.6332  0.7443 -2.8875
  126SOPE    HB13457   2.808   2.032   2.155 -0.1325  0.7357 -0.5607
  126SOPE    C213458   2.829   2.108   2.356 -0.0676 -0.2673 -0.2509
  126SOPE    HS13459   2.921   2.049   2.378  2.8872  2.4157 -4.0962
  126SOPE   O2113460   2.701   2.044   2.389 -0.6758  0.0649  0.1203
  126SOPE   C2113461   2.695   1.929   2.441 -0.7064  0.3873 -0.2587
  126SOPE   O2213462   2.792   1.849   2.450  0.6149 -0.3065  0.3801
  126SOPE   C2213463   2.559   1.878   2.471  0.6740 -0.3141 -0.2627
  126SOPE   H2R13464   2.561   1.767   2.479 -0.9712 -0.2642  1.4175
  126SOPE   H2S13465   2.494   1.908   2.387  0.3347  1.0211  0.4424
  126SOPE    C313466   2.854   2.241   2.434  0.1321 -0.0341 -0.1527
  126SOPE    HX13467   2.765   2.308   2.437 -0.7322 -1.1978  2.2388
  126SOPE    HY13468   2.928   2.285   2.364 -0.0739 -2.1030 -1.7853
  126SOPE   O3113469   2.904   2.204   2.564 -0.4824 -0.3483 -0.0317
  126SOPE   C3113470   2.820   2.220   2.662 -0.1558 -0.2855  0.3959
  126SOPE   O3213471   2.701   2.259   2.648  0.2437  0.0573 -0.2878
  126SOPE   C3213472   2.880   2.179   2.802 -0.3245 -0.1160  0.4371
  126SOPE   H2X13473   2.981   2.223   2.801 -0.2409  0.0167 -4.1753
  126SOPE   H2Y13474   2.883   2.068   2.805 -0.4289 -0.1027  1.2187
  126SOPE   C2313475   2.511   1.950   2.610  0.0929 -0.1061  0.8183
  126SOPE   H3R13476   2.406   1.922   2.634 -0.2099  1.0401  0.8530
  126SOPE   H3S13477   2.528   2.058   2.592 -2.1743  0.2247  0.2399
  126SOPE   C2413478   2.598   1.895   2.731  0.1778  0.2948 -0.1374
  126SOPE   H4R13479   2.703   1.898   2.697  0.1557  0.8697 -0.1713
  126SOPE   H4S13480   2.598   1.963   2.818 -1.9529  1.7179 -1.1470
  126SOPE   C2513481   2.564   1.759   2.791  0.4879 -0.3059  0.2781
  126SOPE   H5R13482   2.461   1.767   2.831  0.5164  0.1576  0.2678
  126SOPE   H5S13483   2.573   1.684   2.710 -0.9497  0.7205 -0.9086
  126SOPE   C2613484   2.665   1.728   2.902 -0.2802  0.3661 -0.1368
  126SOPE   H6R13485   2.768   1.745   2.863 -0.1564  2.4821  0.9592
  126SOPE   H6S13486   2.654   1.795   2.990 -2.1496 -1.0825  0.7930
  126SOPE   C2713487   2.645   1.585   2.961 -0.5920 -0.6700  0.3258
  126SOPE   H7R13488   2.643   1.511   2.878 -4.2879 -0.5093  0.0867
  126SOPE   H7S13489   2.736   1.568   3.022 -2.2364 -1.0645  2.8019
  126SOPE   C2813490   2.519   1.567   3.049  0.5679 -0.3618  0.2902
  126SOPE   H8R13491   2.428   1.598   2.995  0.8562 -0.7023 -0.4101
  126SOPE   H8S13492   2.514   1.456   3.061  0.1498 -0.1608  2.3391
  126SOPE   C2913493   2.545   1.624   3.187 -0.0002  0.3050  1.1020
  126SOPE   H9113494   2.568   1.731   3.179 -1.1542  0.4448 -0.7707
  126SOPE  C21013495   2.528   1.576   3.311 -0.7689 -0.2294  0.6820
  126SOPE  H10113496   2.540   1.650   3.391 -1.8340 -1.3109  1.8728
  126SOPE  C21113497   2.503   1.434   3.348  0.0110 -0.6902  0.0303
  126SOPE  H11R13498   2.545   1.356   3.282 -1.2689 -2.0002  0.6907
  126SOPE  H11S13499   2.394   1.417   3.330  0.1685  0.4333 -2.3500
  126SOPE  C21213500   2.538   1.384   3.493 -0.2159  0.1868  0.5999
  126SOPE  H12R13501   2.450   1.406   3.558 -1.1615  0.1179 -0.6001
  126SOPE  H12S13502   2.624   1.450   3.517 -0.3940  0.7118 -0.1220
  126SOPE  C21313503   2.566   1.234   3.494  0.1198  0.2020 -0.4010
  126SOPE  H13R13504   2.658   1.206   3.439 -0.3543 -1.0415 -0.6107
  126SOPE  H13S13505   2.490   1.168   3.447 -1.7994  2.2226 -0.2983
  126SOPE  C21413506   2.578   1.173   3.638 -0.6845  0.0412 -0.5657
  126SOPE  H14R13507   2.487   1.199   3.696 -0.1055 -0.0527  0.3925
  126SOPE  H14S13508   2.667   1.218   3.687 -0.4972 -0.2279 -0.6544
  126SOPE  C21513509   2.598   1.019   3.628 -0.4636  0.1126  0.0870
  126SOPE  H15R13510   2.669   0.995   3.546 -0.5427 -3.9057  0.9966
  126SOPE  H15S13511   2.500   0.976   3.598 -0.6371 -0.7597  1.7611
  126SOPE  C21613512   2.634   0.943   3.761  0.2604  0.4342 -0.3069
  126SOPE  H16R13513   2.733   0.983   3.794  0.0817  1.4683 -0.9665
  126SOPE  H16S13514   2.647   0.834   3.747 -0.1926  0.5135 -1.4056
  126SOPE  C21713515   2.540   0.976   3.874  1.0083 -0.5795  0.2670
  126SOPE  H17R13516   2.440   0.942   3.839 -0.1227  1.6582  1.1739
  126SOPE  H17S13517   2.546   1.086   3.885  1.3255 -0.4661 -0.9181
  126SOPE  C21813518   2.569   0.908   4.003  0.2162  0.9219 -0.2057
  126SOPE  H18R13519   2.677   0.890   4.022  0.3860  1.0960 -0.9658
  126SOPE  H18S13520   2.525   0.807   4.011  1.9895  0.2804  3.3510
  126SOPE  H18T13521   2.532   0.947   4.100  0.2895 -2.7038  1.4236
  126SOPE   C3313522   2.804   2.234   2.922  0.1473 -0.1104  0.4209
  126SOPE   H3X13523   2.698   2.200   2.921  0.4973 -1.2894  1.1084
  126SOPE   H3Y13524   2.802   2.344   2.907 -3.5275 -0.0111  0.7507
  126SOPE   C3413525   2.875   2.205   3.058  0.2654  0.6445 -0.2955
  126SOPE   H4X13526   2.913   2.100   3.061 -0.0286  0.5098 -1.0967
  126SOPE   H4Y13527   2.789   2.208   3.128  1.5166  0.1698  1.3373
  126SOPE   C3513528   2.977   2.308   3.095 -0.3408  0.1233 -0.3023
  126SOPE   H5X13529   2.931   2.408   3.108  2.5259  1.2258  2.9226
  126SOPE   H5Y13530   3.052   2.325   3.014  1.9124  0.3289  1.7304
  126SOPE   C3613531   3.058   2.260   3.219 -0.5863 -0.2089  0.1095
  126SOPE   H6X13532   3.132   2.337   3.250 -0.9655  0.0688  0.3249
  126SOPE   H6Y13533   3.117   2.171   3.186  1.0987  0.5787  0.8651
  126SOPE   C3713534   2.979   2.207   3.342 -0.4385 -0.5734 -0.2160
  126SOPE   H7X13535   2.945   2.103   3.322  1.5209 -1.3152  0.1199
  126SOPE   H7Y13536   2.894   2.273   3.370  0.7176  1.2319 -0.8042
  126SOPE   C3813537   3.086   2.194   3.448 -0.3851 -0.7618  0.0378
  126SOPE   H8X13538   3.141   2.288   3.470  0.1307 -1.8035  3.9187
  126SOPE   H8Y13539   3.161   2.114   3.429  0.8793  0.5042 -0.4858
  126SOPE   C3913540   3.026   2.151   3.579  0.3545  0.0784 -0.2493
  126SOPE   H9X13541   2.966   2.057   3.574  1.0037 -0.3212 -0.7484
  126SOPE   H9Y13542   2.958   2.234   3.606  2.6922  2.0437 -0.0825
  126SOPE  C31013543   3.134   2.133   3.688 -0.4146  0.2224 -1.2642
  126SOPE  H10X13544   3.198   2.223   3.697  0.9459 -0.8942  2.8958
  126SOPE  H10Y13545   3.193   2.039   3.679 -0.1668  0.4333 -1.8537
  126SOPE  C31113546   3.066   2.110   3.820  1.1752  0.2560 -0.2390
  126SOPE  H11X13547   2.994   2.027   3.805  0.8308 -0.0240  2.4849
  126SOPE  H11Y13548   3.016   2.202   3.858  4.0711  1.6413  0.5471
  126SOPE  C31213549   3.167   2.076   3.929 -0.2529 -0.3831  0.4209
  126SOPE  H12X13550   3.235   2.162   3.948 -1.1514  0.6194 -0.7653
  126SOPE  H12Y13551   3.233   1.995   3.893 -0.1387  0.3000 -0.9612
  126SOPE  C31313552   3.085   2.046   4.052 -0.5561  0.0174 -0.1096
  126SOPE  H13X13553   3.012   2.122   4.085 -1.5380 -1.8437  2.3543
  126SOPE  H13Y13554   3.152   2.039   4.140  1.1262  2.3876 -1.1067
  126SOPE  C31413555   2.990   1.931   4.047 -0.0585  0.2919 -0.3057
  126SOPE  H14X13556   3.045   1.841   4.012 -1.1175 -0.0540 -1.1338
  126SOPE  H14Y13557   2.903   1.950   3.981 -0.7219 -0.6066  0.2804
  126SOPE  C31513558   2.937   1.915   4.192  0.2553  0.0404  0.2131
  126SOPE  H15X13559   2.879   2.000   4.232 -1.4966 -0.8542 -0.3340
  126SOPE  H15Y13560   3.026   1.906   4.259 -0.7962 -0.1344  1.6301
  126SOPE  C31613561   2.849   1.792   4.212  0.5600 -0.4207  0.4319
  126SOPE  H16X13562   2.909   1.707   4.174  0.2836 -0.1884 -0.5409
  126SOPE  H16Y13563   2.756   1.798   4.152  1.4293  0.0061 -0.9069
  126SOPE  C31713564   2.825   1.757   4.360 -0.2074 -0.9772  0.1994
  126SOPE  H17X13565   2.760   1.837   4.400  2.2740  3.0172 -2.9798
  126SOPE  H17Y13566   2.918   1.764   4.420 -0.0433  2.3090 -0.2868
  126SOPE  C31813567   2.760   1.623   4.377 -0.1376 -0.1841  0.1632
  126SOPE  H18X13568   2.747   1.612   4.487  1.6002  1.2592  0.5692
  126SOPE  H18Y13569   2.822   1.536   4.344  1.8178  1.0933  0.3204
  126SOPE  H18Z13570   2.665   1.626   4.320  0.4235 -0.2704 -0.8175
  127SOPE     N13571   4.139   6.225   2.273  0.3442  0.3516 -0.3687
  127SOPE   HN113572   4.146   6.125   2.303 -1.1217  0.1309 -0.6865
  127SOPE   HN213573   4.233   6.254   2.240  1.7693 -1.3645  1.8613
  127SOPE   HN313574   4.125   6.273   2.363  1.7855  0.5213 -0.2115
  127SOPE   C1213575   4.047   6.259   2.158 -0.8162  0.2295 -0.2479
  127SOPE  H12A13576   3.962   6.188   2.157  0.0852 -1.0006  2.2601
  127SOPE  H12B13577   4.103   6.252   2.062 -0.4193 -2.4726  0.1182
  127SOPE   C1113578   3.988   6.401   2.173 -0.2172  0.4151  0.4668
  127SOPE  H11A13579   3.929   6.410   2.267 -0.4001 -0.2945  0.4306
  127SOPE  H11B13580   3.916   6.421   2.090 -2.7971  2.2077  2.9471
  127SOPE     P13581   4.145   6.556   2.035  0.2973 -0.6754  0.0177
  127SOPE   O1313582   4.061   6.533   1.915 -0.6964  0.0446  0.2009
  127SOPE   O1413583   4.291   6.525   2.022  0.2606  0.0950 -0.4878
  127SOPE   O1213584   4.097   6.497   2.167  0.3055  0.4869  0.2043
  127SOPE   O1113585   4.132   6.708   2.062  0.1860 -0.3347 -0.0348
  127SOPE    C113586   4.002   6.770   2.096  0.3461  0.3249  0.0765
  127SOPE    HA13587   3.914   6.705   2.077  0.8766  0.0408 -1.5905
  127SOPE    HB13588   3.977   6.849   2.022 -2.3789 -0.2024  0.3316
  127SOPE    C213589   3.996   6.833   2.235  0.2433  0.1707 -0.0157
  127SOPE    HS13590   3.915   6.909   2.222 -1.5773 -2.0554 -2.7610
  127SOPE   O2113591   4.125   6.882   2.263  0.0552 -0.2304  0.0615
  127SOPE   C2113592   4.156   7.001   2.208 -0.1514 -0.2506 -0.1562
  127SOPE   O2213593   4.079   7.073   2.149  0.1458  0.2247 -0.2364
  127SOPE   C2213594   4.306   7.030   2.242 -0.4760 -0.4825  0.4665
  127SOPE   H2R13595   4.312   7.141   2.250 -0.8257 -0.4119 -0.1986
  127SOPE   H2S13596   4.364   6.994   2.155  0.3653  0.3445  0.6666
  127SOPE    C313597   3.955   6.741   2.347  0.0528 -0.4338  0.1531
  127SOPE    HX13598   4.040   6.671   2.362  0.8319  0.7881  1.7279
  127SOPE    HY13599   3.868   6.689   2.303 -0.6095  2.0935 -1.7353
  127SOPE   O3113600   3.917   6.816   2.464 -0.1393  0.1123  0.1865
  127SOPE   C3113601   3.946   6.764   2.587 -0.3586 -0.6060 -0.0264
  127SOPE   O3213602   3.986   6.650   2.607 -0.2897  0.0088 -0.5636
  127SOPE   C3213603   3.921   6.882   2.688  0.2923  0.4713  0.8990
  127SOPE   H2X13604   3.811   6.898   2.692  0.2424  0.2562  0.3655
  127SOPE   H2Y13605   3.970   6.975   2.651  0.0122  0.1560 -0.3022
  127SOPE   C2313606   4.363   6.959   2.369 -0.2965  0.4148 -0.1331
  127SOPE   H3R13607   4.472   6.976   2.366 -0.3326  1.1173  1.6854
  127SOPE   H3S13608   4.351   6.849   2.368 -0.9481  0.4749 -1.5419
  127SOPE   C2413609   4.311   7.021   2.499 -0.0255 -0.7501  0.3069
  127SOPE   H4R13610   4.298   7.131   2.490 -0.4469 -0.5834  2.3953
  127SOPE   H4S13611   4.215   6.980   2.539  0.3844  0.5805  2.8869
  127SOPE   C2513612   4.405   7.004   2.620 -0.1535  0.2999  0.5617
  127SOPE   H5R13613   4.432   6.896   2.627 -1.6440 -0.0925  0.5680
  127SOPE   H5S13614   4.499   7.053   2.588 -1.5840  1.0959 -2.8602
  127SOPE   C2613615   4.346   7.060   2.743  0.0256 -1.0005 -0.1468
  127SOPE   H6R13616   4.250   7.019   2.781  0.4596 -0.2179  1.8981
  127SOPE   H6S13617   4.411   7.047   2.832  1.9063  2.9743 -0.7207
  127SOPE   C2713618   4.314   7.209   2.727  0.4760 -0.1725  0.0715
  127SOPE   H7R13619   4.404   7.254   2.681 -1.1577  1.6306 -1.5077
  127SOPE   H7S13620   4.223   7.228   2.666 -0.2035  1.0389  1.4063
  127SOPE   C2813621   4.302   7.270   2.871  0.5290 -0.1178  0.6086
  127SOPE   H8R13622   4.393   7.239   2.926  1.0575 -1.3778 -0.9089
  127SOPE   H8S13623   4.309   7.380   2.859  0.3382 -0.1530  0.1676
  127SOPE   C2913624   4.175   7.233   2.951  0.3067  0.4006 -0.2072
  127SOPE   H9113625   4.082   7.274   2.909  1.3750  2.2459 -0.8795
  127SOPE  C21013626   4.172   7.168   3.072  0.1182 -1.4036 -0.6190
  127SOPE  H10113627   4.075   7.161   3.123  0.6234 -0.6325  0.4963
  127SOPE  C21113628   4.289   7.141   3.161  0.4339 -0.1183  0.5658
  127SOPE  H11R13629   4.263   7.165   3.267  0.7362  3.0811  0.0196
  127SOPE  H11S13630   4.348   7.235   3.156 -1.3510  1.0467  0.5574
  127SOPE  C21213631   4.369   7.011   3.143  0.1129  0.3159 -0.1111
  127SOPE  H12R13632   4.397   7.004   3.036 -1.3128  2.1184 -0.6419
  127SOPE  H12S13633   4.307   6.921   3.164  0.2035  0.6266  1.6817
  127SOPE  C21313634   4.505   7.007   3.217 -0.3243  0.4939  0.2230
  127SOPE  H13R13635   4.536   7.109   3.251  2.4708 -0.1528 -0.1459
  127SOPE  H13S13636   4.576   6.949   3.155 -0.5798  0.7195 -0.2875
  127SOPE  C21413637   4.480   6.927   3.349  0.9342  0.3172 -0.4043
  127SOPE  H14R13638   4.382   6.963   3.388  0.1000 -1.9994 -0.1780
  127SOPE  H14S13639   4.568   6.943   3.413  1.3562 -1.7784 -0.4131
  127SOPE  C21513640   4.472   6.777   3.339 -0.2732  1.5374 -0.6282
  127SOPE  H15R13641   4.548   6.751   3.262  0.0433  0.2601  0.0909
  127SOPE  H15S13642   4.378   6.740   3.291 -0.1559  0.2604  0.1014
  127SOPE  C21613643   4.511   6.691   3.463 -0.3749  0.1021  0.5625
  127SOPE  H16R13644   4.619   6.698   3.488 -0.1593 -3.0860  0.9281
  127SOPE  H16S13645   4.492   6.584   3.442  1.2501 -0.0420 -0.4040
  127SOPE  C21713646   4.433   6.731   3.588  0.3123  1.0144 -1.0130
  127SOPE  H17R13647   4.332   6.692   3.562  0.1468  0.7001  0.0768
  127SOPE  H17S13648   4.433   6.840   3.610  1.3729  0.8926 -0.3719
  127SOPE  C21813649   4.476   6.647   3.708 -0.2074  0.0527 -1.0532
  127SOPE  H18R13650   4.576   6.683   3.742  1.4180 -2.7057 -2.5864
  127SOPE  H18S13651   4.475   6.539   3.680 -1.1103 -0.6110  1.2852
  127SOPE  H18T13652   4.409   6.669   3.794  0.6346  0.4007 -0.4683
  127SOPE   C3313653   3.968   6.856   2.838 -0.2885 -0.5350 -0.6401
  127SOPE   H3X13654   3.993   6.957   2.875 -1.3241  0.1404 -1.7121
  127SOPE   H3Y13655   4.041   6.772   2.842  1.1958  0.7057 -0.6782
  127SOPE   C3413656   3.852   6.808   2.927  0.9710 -0.1869 -0.1557
  127SOPE   H4X13657   3.797   6.731   2.869  0.7534 -0.4857  0.4366
  127SOPE   H4Y13658   3.777   6.889   2.932 -0.9844 -1.7457 -2.3110
  127SOPE   C3513659   3.890   6.764   3.064  0.6251  0.2320  0.1201
  127SOPE   H5X13660   3.958   6.678   3.048 -0.5516 -0.5829 -0.5906
  127SOPE   H5Y13661   3.812   6.718   3.128  1.8566 -1.0512  0.7511
  127SOPE   C3613662   3.948   6.876   3.149  0.2897 -0.2074 -0.4824
  127SOPE   H6X13663   3.869   6.953   3.163  1.0469  0.6009 -0.5691
  127SOPE   H6Y13664   4.038   6.918   3.100  1.0081 -1.2134 -0.0617
  127SOPE   C3713665   3.989   6.829   3.290 -0.5656 -0.2849  0.1522
  127SOPE   H7X13666   4.051   6.737   3.293 -1.0821 -0.6544 -0.1555
  127SOPE   H7Y13667   3.894   6.794   3.335 -1.3545  0.4399 -0.9016
  127SOPE   C3813668   4.049   6.935   3.377  0.1397 -0.7774  0.6925
  127SOPE   H8X13669   4.001   7.034   3.360 -0.6018 -1.5309 -1.9976
  127SOPE   H8Y13670   4.159   6.933   3.366 -0.0078 -0.9811 -0.9570
  127SOPE   C3913671   4.004   6.915   3.522  0.1200 -0.1027  0.0386
  127SOPE   H9X13672   3.901   6.874   3.518  0.2596 -0.5701  0.9640
  127SOPE   H9Y13673   4.016   7.007   3.583 -0.0035 -0.2249  0.2466
  127SOPE  C31013674   4.084   6.809   3.588  0.6347 -0.4656  0.8585
  127SOPE  H10X13675   4.193   6.831   3.592  0.2610  1.6196  0.5125
  127SOPE  H10Y13676   4.071   6.714   3.532 -1.2041  0.3160 -0.1295
  127SOPE  C31113677   4.048   6.782   3.733  0.4732  0.6495  0.5192
  127SOPE  H11X13678   4.108   6.696   3.769 -1.9260 -1.1810  0.3821
  127SOPE  H11Y13679   3.941   6.750   3.735  1.0413 -1.3354  0.5407
  127SOPE  C31213680   4.075   6.896   3.825  0.2555 -0.1666 -0.9186
  127SOPE  H12X13681   4.019   6.985   3.787 -0.4232  0.0143  0.4583
  127SOPE  H12Y13682   4.181   6.930   3.822  0.3186  0.0192  1.4763
  127SOPE  C31313683   4.041   6.872   3.973  0.2313 -0.1961 -0.2078
  127SOPE  H13X13684   4.094   6.783   4.011 -0.0445 -0.0234  0.5868
  127SOPE  H13Y13685   3.930   6.860   3.979 -0.0492  1.8474 -0.4712
  127SOPE  C31413686   4.086   6.990   4.064 -1.0484 -1.0853  0.8833
  127SOPE  H14X13687   4.049   7.091   4.036  2.2621  0.4774  1.6975
  127SOPE  H14Y13688   4.195   7.001   4.046 -1.6971  3.0937 -1.8411
  127SOPE  C31513689   4.054   6.972   4.212  0.3751  0.7262  0.2320
  127SOPE  H15X13690   4.084   6.865   4.225 -1.0242  0.2063 -0.6305
  127SOPE  H15Y13691   3.948   6.988   4.237  0.6574  3.1236  0.1307
  127SOPE  C31613692   4.146   7.065   4.295  0.2428  0.4824  0.3213
  127SOPE  H16X13693   4.103   7.085   4.396 -0.8668 -1.2335  0.2369
  127SOPE  H16Y13694   4.154   7.157   4.233  0.5968 -0.1747 -0.6219
  127SOPE  C31713695   4.286   7.019   4.314  0.2619 -0.0817 -0.2924
  127SOPE  H17X13696   4.348   7.104   4.352 -0.1817  0.6822 -1.2315
  127SOPE  H17Y13697   4.324   6.994   4.213  2.1084 -2.2923  0.8498
  127SOPE  C31813698   4.299   6.895   4.410  0.3054  0.3022  0.1611
  127SOPE  H18X13699   4.225   6.822   4.371 -0.1754  1.1123 -0.4840
  127SOPE  H18Y13700   4.265   6.919   4.514 -0.1534  1.6223 -0.2722
  127SOPE  H18Z13701   4.400   6.856   4.436  0.1248 -0.0820  0.3025
  128SOPE     N13702   0.654   5.340   2.115 -0.7351  0.4534  0.1829
  128SOPE   HN113703   0.696   5.431   2.085 -2.6528  0.9527 -1.1675
  128SOPE   HN213704   0.722   5.268   2.084 -0.1491  1.2677 -0.4741
  128SOPE   HN313705   0.569   5.342   2.055  0.7993  1.0136 -2.1082
  128SOPE   C1213706   0.623   5.325   2.264 -0.2152  0.3190 -0.1383
  128SOPE  H12A13707   0.573   5.227   2.273 -1.5801  0.6080 -3.1850
  128SOPE  H12B13708   0.554   5.404   2.300 -2.1720 -0.7734 -1.3484
  128SOPE   C1113709   0.752   5.318   2.341 -0.0173 -0.2438  0.4920
  128SOPE  H11A13710   0.813   5.231   2.310  1.9721  1.3735 -0.3261
  128SOPE  H11B13711   0.723   5.312   2.448  1.7018  2.8062  1.2581
  128SOPE     P13712   0.969   5.448   2.354 -0.0823  0.4034 -0.0338
  128SOPE   O1313713   1.025   5.555   2.271  0.6654  0.0138 -0.3042
  128SOPE   O1413714   1.027   5.316   2.344 -0.4697  0.2510 -0.1786
  128SOPE   O1213715   0.817   5.441   2.314  0.1344 -0.8591 -0.1005
  128SOPE   O1113716   0.979   5.484   2.502  0.3158 -0.5095  0.1467
  128SOPE    C113717   0.925   5.605   2.559 -0.0638 -0.0708 -0.1437
  128SOPE    HA13718   0.826   5.584   2.605 -0.8553  0.1108 -1.6648
  128SOPE    HB13719   0.904   5.682   2.482  3.9553  1.0754 -0.2907
  128SOPE    C213720   1.019   5.671   2.662  0.2523 -0.2365 -0.3887
  128SOPE    HS13721   1.124   5.665   2.628 -0.2064  1.1115 -2.2440
  128SOPE   O2113722   0.992   5.597   2.785 -0.6827  0.3700 -0.0540
  128SOPE   C2113723   1.086   5.607   2.877 -0.1615 -0.3540 -0.2381
  128SOPE   O2213724   1.200   5.648   2.862 -0.2883 -0.9019  0.1849
  128SOPE   C2213725   1.030   5.575   3.017  0.1024 -0.8754 -0.2538
  128SOPE   H2R13726   0.968   5.483   3.015 -1.4047 -0.0558  2.7649
  128SOPE   H2S13727   0.962   5.649   3.064 -0.0957 -2.5423  2.2939
  128SOPE    C313728   0.984   5.824   2.674  0.7871  0.2786 -0.3459
  128SOPE    HX13729   0.884   5.841   2.719  1.1949 -0.6090  0.9653
  128SOPE    HY13730   0.986   5.868   2.572  0.4927 -0.5117 -0.6961
  128SOPE   O3113731   1.086   5.890   2.757  0.2600  0.0884  0.0551
  128SOPE   C3113732   1.210   5.909   2.700 -0.0378  0.4765 -0.3446
  128SOPE   O3213733   1.230   5.891   2.581  0.1086  0.6469 -0.3970
  128SOPE   C3213734   1.322   5.922   2.805 -0.1330  0.3092 -0.4362
  128SOPE   H2X13735   1.395   5.999   2.773  0.5603 -1.0162 -2.2629
  128SOPE   H2Y13736   1.381   5.828   2.809  0.8204  0.9013 -0.3016
  128SOPE   C2313737   1.144   5.564   3.119 -0.3727 -0.0990  0.0102
  128SOPE   H3R13738   1.190   5.666   3.119 -1.5133  0.4433  1.3206
  128SOPE   H3S13739   1.207   5.481   3.080  1.3566  0.2519  1.8780
  128SOPE   C2413740   1.100   5.545   3.263 -0.7530  0.1381 -0.6268
  128SOPE   H4R13741   1.026   5.627   3.274 -1.6849 -0.7086 -0.3842
  128SOPE   H4S13742   1.045   5.450   3.283 -1.1696  0.6995  1.0306
  128SOPE   C2513743   1.204   5.576   3.378 -0.4232 -0.2261 -0.2295
  128SOPE   H5R13744   1.277   5.492   3.391  0.5152  0.3408 -1.6840
  128SOPE   H5S13745   1.271   5.661   3.357  0.7844 -0.9252  0.6157
  128SOPE   C2613746   1.141   5.623   3.512 -0.8137 -0.1254 -0.3227
  128SOPE   H6R13747   1.079   5.715   3.502  0.4246  0.9181  1.0366
  128SOPE   H6S13748   1.080   5.537   3.546 -1.2290  0.0525 -0.6125
  128SOPE   C2713749   1.255   5.650   3.614  1.0811 -0.1933 -0.9205
  128SOPE   H7R13750   1.322   5.563   3.626  1.4061  0.0975 -0.5779
  128SOPE   H7S13751   1.317   5.738   3.589  0.1867  0.4987 -0.7819
  128SOPE   C2813752   1.184   5.681   3.748 -0.2211 -0.0053  0.2598
  128SOPE   H8R13753   1.111   5.765   3.743 -1.6170 -1.1684  0.5150
  128SOPE   H8S13754   1.112   5.600   3.770 -0.1744 -0.4479 -1.0879
  128SOPE   C2913755   1.292   5.698   3.859  0.5379  0.1410  0.6706
  128SOPE   H9113756   1.373   5.773   3.854  0.0228  0.7081  0.8173
  128SOPE  C21013757   1.287   5.631   3.973  0.0709  0.0751 -0.9443
  128SOPE  H10113758   1.358   5.658   4.052 -1.2466  0.0644  0.2914
  128SOPE  C21113759   1.186   5.529   4.024 -0.1413  0.4400  0.4113
  128SOPE  H11R13760   1.238   5.444   4.073 -1.8633 -1.3166 -0.6366
  128SOPE  H11S13761   1.139   5.481   3.935 -2.4410 -0.1866  1.8755
  128SOPE  C21213762   1.064   5.587   4.110 -0.3156 -0.3379  0.4435
  128SOPE  H12R13763   1.018   5.669   4.051 -2.2013 -0.7846  1.2307
  128SOPE  H12S13764   1.118   5.628   4.198  1.9427 -0.0701 -0.9756
  128SOPE  C21313765   0.958   5.488   4.152  0.4319  0.5778  0.1731
  128SOPE  H13R13766   0.911   5.460   4.055 -1.5492  1.3501  0.8427
  128SOPE  H13S13767   0.887   5.545   4.216 -1.4399  0.1152 -1.4105
  128SOPE  C21413768   1.008   5.357   4.218 -0.1216  0.4690  0.8660
  128SOPE  H14R13769   1.091   5.306   4.165 -0.9630 -0.2994  0.2430
  128SOPE  H14S13770   0.922   5.286   4.216 -1.4546  1.9477  2.2624
  128SOPE  C21513771   1.056   5.380   4.362  0.5689 -0.5017 -0.2822
  128SOPE  H15R13772   1.107   5.478   4.371  0.7071 -0.6054  0.0447
  128SOPE  H15S13773   1.127   5.304   4.399  1.0051  0.2489  0.4591
  128SOPE  C21613774   0.932   5.381   4.450  0.6676 -0.7059 -0.2008
  128SOPE  H16R13775   0.849   5.319   4.411 -0.5904  0.4279  0.5628
  128SOPE  H16S13776   0.888   5.483   4.452 -1.5051 -1.5546 -1.4234
  128SOPE  C21713777   0.952   5.351   4.608 -0.9158 -0.0390  0.2154
  128SOPE  H17R13778   0.875   5.413   4.658  0.2706  0.4829  1.4619
  128SOPE  H17S13779   1.047   5.404   4.627 -2.5246  2.8198  0.9001
  128SOPE  C21813780   0.958   5.198   4.642  0.2933 -0.4245 -0.4900
  128SOPE  H18R13781   0.853   5.163   4.632 -0.0106  0.6600 -1.2421
  128SOPE  H18S13782   0.987   5.182   4.748  1.7821 -1.2507 -0.9993
  128SOPE  H18T13783   1.032   5.144   4.581  0.6721 -0.0493 -0.3682
  128SOPE   C3313784   1.271   5.946   2.953  0.0582 -0.6105 -0.0117
  128SOPE   H3X13785   1.200   5.865   2.978  2.1058 -2.8324 -1.0505
  128SOPE   H3Y13786   1.219   6.045   2.951 -0.4752 -0.8984 -0.8577
  128SOPE   C3413787   1.381   5.944   3.058  0.7652  1.1558 -0.2590
  128SOPE   H4X13788   1.479   5.904   3.027  0.3630  1.5179 -2.1084
  128SOPE   H4Y13789   1.346   5.877   3.139  2.6829  1.6325  1.0223
  128SOPE   C3513790   1.394   6.087   3.105 -0.4362  0.7554  0.0796
  128SOPE   H5X13791   1.301   6.134   3.143 -2.4055 -1.9771 -1.0834
  128SOPE   H5Y13792   1.440   6.139   3.018  2.7348 -0.4052  0.9011
  128SOPE   C3613793   1.506   6.096   3.216 -0.1377 -0.6278  0.2647
  128SOPE   H6X13794   1.523   6.204   3.235  1.2461 -0.8286  0.2322
  128SOPE   H6Y13795   1.601   6.062   3.169 -0.1253  0.5093 -0.5787
  128SOPE   C3713796   1.471   6.030   3.348  0.3139 -0.1758  0.0937
  128SOPE   H7X13797   1.446   5.922   3.339 -0.0362 -0.2329  1.5313
  128SOPE   H7Y13798   1.385   6.085   3.392 -0.1555 -0.9254  0.1249
  128SOPE   C3813799   1.579   6.047   3.454 -0.3725 -0.4145 -0.7012
  128SOPE   H8X13800   1.588   6.156   3.474  2.8743 -0.5290 -0.9560
  128SOPE   H8Y13801   1.682   6.020   3.421 -0.0382  0.0726 -0.0944
  128SOPE   C3913802   1.547   5.966   3.588 -0.3199 -0.1767  0.1728
  128SOPE   H9X13803   1.555   5.859   3.560 -1.4010  0.0026 -0.8982
  128SOPE   H9Y13804   1.438   5.970   3.610 -0.1149 -1.6251  1.6373
  128SOPE  C31013805   1.633   5.998   3.716  0.1310  0.1067 -0.3421
  128SOPE  H10X13806   1.616   6.107   3.725 -1.1986 -0.1121 -0.0782
  128SOPE  H10Y13807   1.740   5.981   3.693  0.4796  0.9461  0.5769
  128SOPE  C31113808   1.581   5.931   3.842  0.5122 -0.3257  0.8409
  128SOPE  H11X13809   1.558   5.824   3.820  1.6172 -1.0446  2.8885
  128SOPE  H11Y13810   1.492   5.988   3.877 -0.2450 -0.6565 -0.4887
  128SOPE  C31213811   1.686   5.915   3.963  0.4873 -0.6162  0.0835
  128SOPE  H12X13812   1.717   6.019   3.988  3.1245 -1.6829  1.6618
  128SOPE  H12Y13813   1.765   5.847   3.926 -1.6042 -0.8114 -4.9016
  128SOPE  C31313814   1.615   5.861   4.084 -0.0745  0.3072 -0.1393
  128SOPE  H13X13815   1.603   5.755   4.053 -0.5780  0.6118 -1.0278
  128SOPE  H13Y13816   1.512   5.902   4.094 -0.4867 -0.5922 -0.5362
  128SOPE  C31413817   1.697   5.855   4.210  0.4216 -0.0496 -0.1038
  128SOPE  H14X13818   1.746   5.951   4.236 -0.2165  0.2371  0.0612
  128SOPE  H14Y13819   1.775   5.777   4.203 -0.3526 -1.0156  1.4145
  128SOPE  C31513820   1.621   5.815   4.336 -0.4837  0.3646 -0.0210
  128SOPE  H15X13821   1.540   5.891   4.341  0.7848  1.7867 -0.4517
  128SOPE  H15Y13822   1.694   5.825   4.420  1.2944  1.4545 -1.6182
  128SOPE  C31613823   1.564   5.666   4.337 -0.0882 -0.0608  0.2844
  128SOPE  H16X13824   1.654   5.601   4.336 -0.8796 -1.1783  0.7020
  128SOPE  H16Y13825   1.504   5.647   4.245 -0.9396 -1.0245  1.0186
  128SOPE  C31713826   1.484   5.653   4.467  1.2466  0.4273  0.2944
  128SOPE  H17X13827   1.399   5.725   4.466  0.2694 -0.6896  0.5976
  128SOPE  H17Y13828   1.545   5.673   4.558  2.3443 -2.2065  0.2277
  128SOPE  C31813829   1.429   5.505   4.474 -0.2631 -0.4888  0.4663
  128SOPE  H18X13830   1.506   5.435   4.512 -1.6479 -0.7231  3.1205
  128SOPE  H18Y13831   1.392   5.477   4.373  2.1597 -1.1553 -0.2997
  128SOPE  H18Z13832   1.351   5.506   4.554  1.5931 -0.8821  2.3723
  129OSM      N13833   4.735   6.150   6.537 -0.1562  0.0899 -0.3663
  129OSM    C1513834   4.795   6.283   6.575  0.5671 -0.5612  0.8849
  129OSM   H15A13835   4.903   6.280   6.571  0.6863  1.7181  0.6736
  129OSM   H15B13836   4.749   6.309   6.669 -1.2834 -1.1764  0.1939
  129OSM   H15C13837   4.771   6.356   6.499  2.3228 -2.1843 -1.3436
  129OSM    C1413838   4.786   6.105   6.404  0.1413 -0.3272 -0.4261
  129OSM   H14A13839   4.884   6.060   6.411 -0.3380 -1.0878  2.4792
  129OSM   H14B13840   4.795   6.198   6.349 -3.3707  0.3764 -0.0588
  129OSM   H14C13841   4.708   6.044   6.363 -1.4343  0.6867  0.9497
  129OSM    C1313842   4.781   6.057   6.652 -0.0263 -0.6143  0.7598
  129OSM   H13A13843   4.725   6.087   6.739 -3.4416 -2.6664 -0.5188
  129OSM   H13B13844   4.888   6.063   6.667  0.3429 -0.6338 -1.4341
  129OSM   H13C13845   4.773   5.949   6.642  0.3133 -0.5772  0.0467
  129OSM    C1213846   4.581   6.157   6.534  0.1206  0.0657  0.1013
  129OSM   H12A13847   4.542   6.185   6.631 -0.4431  0.1215 -0.1362
  129OSM   H12B13848   4.543   6.057   6.519 -1.1088  0.7513 -1.7290
  129OSM    C1113849   4.512   6.243   6.421 -0.3935 -0.9788 -0.8822
  129OSM   H11A13850   4.405   6.212   6.424 -0.4916 -0.5903  1.1745
  129OSM   H11B13851   4.560   6.221   6.323  0.2670 -1.1338 -0.5298
  129OSM      P13852   4.446   6.452   6.564 -0.5746 -0.1701 -0.1779
  129OSM    O1313853   4.400   6.354   6.657  0.0259 -0.4776 -0.1631
  129OSM    O1413854   4.515   6.570   6.612  0.6254  0.2973  0.1523
  129OSM    O1113855   4.325   6.503   6.481 -0.2060  0.1228  0.0042
  129OSM    O1213856   4.531   6.387   6.457 -0.2093 -0.0686 -0.7027
  129OSM    C1S13857   4.341   6.618   6.391 -0.1377  0.2999  0.3205
  129OSM    H1S13858   4.414   6.691   6.431 -0.1985 -0.0988  1.1997
  129OSM    H1T13859   4.244   6.669   6.377 -1.9926 -3.1636 -0.6484
  129OSM     NF13860   4.435   6.677   6.165  0.2027  0.1752  0.1013
  129OSM    HNF13861   4.376   6.693   6.086  1.4720  1.1229 -0.6981
  129OSM    C2S13862   4.396   6.571   6.252 -0.6389 -0.2223  0.0834
  129OSM    H2S13863   4.488   6.513   6.272 -1.5438 -1.2948  1.2921
  129OSM    C3S13864   4.290   6.462   6.196  0.6081  1.1158 -0.0032
  129OSM    H3S13865   4.207   6.530   6.166  0.7476  1.1406 -0.3374
  129OSM     O313866   4.218   6.373   6.285  0.3854 -0.1814  0.1282
  129OSM    HO313867   4.217   6.428   6.363 -4.1805  1.0958 -0.5425
  129OSM    C4S13868   4.338   6.397   6.072  0.9001 -0.3514  0.2018
  129OSM    H4S13869   4.304   6.449   5.981  0.5031 -0.3918  0.3287
  129OSM    C5S13870   4.413   6.290   6.053 -0.3311 -0.0945  0.6333
  129OSM    H5S13871   4.443   6.236   6.143  0.3580 -0.4823  0.1807
  129OSM    C6S13872   4.444   6.234   5.915  0.1574  0.0110 -0.2864
  129OSM    H6S13873   4.372   6.151   5.898 -0.8537  0.8729 -0.2947
  129OSM    H6T13874   4.550   6.202   5.926  0.9616  2.6736  0.4628
  129OSM    C7S13875   4.438   6.328   5.800  0.5819  0.1854  0.7103
  129OSM    H7S13876   4.479   6.430   5.817 -2.1777  1.7613 -1.2764
  129OSM    H7T13877   4.332   6.347   5.775  0.1556 -0.0506  2.2582
  129OSM    C8S13878   4.517   6.276   5.678 -0.1233 -0.9440 -0.0299
  129OSM    H8S13879   4.479   6.174   5.656  1.1629 -1.2376 -1.0203
  129OSM    H8T13880   4.626   6.268   5.695 -0.1609 -1.0491  0.1619
  129OSM    C9S13881   4.497   6.356   5.545  0.7217 -0.0706 -0.0951
  129OSM    H9S13882   4.550   6.453   5.560 -2.0037  1.3787  0.8197
  129OSM    H9T13883   4.388   6.379   5.541  0.7548 -0.0354 -1.3322
  129OSM   C10S13884   4.543   6.272   5.425 -0.5647 -0.1256 -0.0779
  129OSM   H10S13885   4.472   6.188   5.408 -1.0204  0.3790 -0.7218
  129OSM   H10T13886   4.645   6.229   5.435  0.5926  2.7701  1.6995
  129OSM   C11S13887   4.534   6.349   5.293 -0.0386  0.0760  0.2770
  129OSM   H11S13888   4.607   6.433   5.290 -1.5373  1.4628  0.8809
  129OSM   H11T13889   4.440   6.408   5.284  0.4804  1.2662  2.0422
  129OSM   C12S13890   4.548   6.258   5.172  0.2121  0.0191 -0.4506
  129OSM   H12S13891   4.474   6.179   5.194 -0.9448  1.2016  0.0274
  129OSM   H12T13892   4.648   6.209   5.169 -0.8721 -2.2888 -1.9113
  129OSM   C13S13893   4.524   6.319   5.036 -0.1374 -0.0563 -0.0384
  129OSM   H13S13894   4.575   6.418   5.030 -2.6798  1.5588  2.4406
  129OSM   H13T13895   4.415   6.336   5.041 -0.0339  0.5894  0.1058
  129OSM   C14S13896   4.566   6.225   4.919  0.1525 -0.6484 -0.2573
  129OSM   H14S13897   4.521   6.123   4.926  0.5654 -0.8380 -0.3572
  129OSM   H14T13898   4.676   6.215   4.922  0.8763  4.3987 -1.0502
  129OSM   C15S13899   4.533   6.291   4.777  1.4087  0.5428  0.9139
  129OSM   H15S13900   4.572   6.394   4.767 -1.4398  2.0270  3.4757
  129OSM   H15T13901   4.422   6.298   4.773  1.4602  1.5218  0.9996
  129OSM   C16S13902   4.560   6.195   4.654 -0.5856 -0.0480  0.9639
  129OSM   H16S13903   4.551   6.085   4.670  0.5148 -0.8829 -3.0574
  129OSM   H16T13904   4.664   6.222   4.629 -0.7134  1.6368  2.1234
  129OSM   C17S13905   4.487   6.232   4.526  0.3657  0.5143 -0.1017
  129OSM   H17S13906   4.513   6.335   4.495  1.0881  0.2449 -0.4300
  129OSM   H17T13907   4.378   6.221   4.541  0.3903 -1.0890 -0.7905
  129OSM   C18S13908   4.543   6.140   4.415 -0.5583  0.1788  0.2225
  129OSM   H18S13909   4.494   6.163   4.317  0.7481  2.6275  0.0580
  129OSM   H18T13910   4.518   6.034   4.435  0.4223  0.1345  1.2756
  129OSM   H18U13911   4.654   6.145   4.410 -0.3822 -1.8576  1.2255
  129OSM    C1F13912   4.532   6.755   6.188 -0.4637  0.8653  0.5029
  129OSM     OF13913   4.599   6.757   6.292  0.3212 -0.1791 -0.0992
  129OSM    C2F13914   4.561   6.848   6.078  0.3562 -0.8339 -0.1852
  129OSM    H2F13915   4.479   6.922   6.068  1.2299 -0.0310 -1.7693
  129OSM    H2G13916   4.567   6.795   5.981  1.7060 -2.5992  0.7973
  129OSM    C3F13917   4.696   6.926   6.104  1.0314  0.0113  0.6678
  129OSM    H3F13918   4.769   6.849   6.138 -0.3838 -0.5789  2.5332
  129OSM    H3G13919   4.683   6.978   6.201  1.9510 -2.7867  2.4043
  129OSM    C4F13920   4.764   7.001   5.987  0.5248 -0.2638 -0.1291
  129OSM    H4F13921   4.759   6.941   5.894 -0.1943  2.0994 -1.7006
  129OSM    H4G13922   4.869   7.030   6.009  0.3307 -0.7551  1.6063
  129OSM    C5F13923   4.691   7.134   5.951 -0.6926 -0.4453 -0.2318
  129OSM    H5F13924   4.690   7.194   6.045  1.9435  1.9740 -1.6051
  129OSM    H5G13925   4.585   7.128   5.917 -0.0041  0.8158 -2.8798
  129OSM    C6F13926   4.766   7.205   5.836  0.1873  0.4890 -0.3186
  129OSM    H6F13927   4.757   7.145   5.743 -0.3087 -0.1658  0.1422
  129OSM    H6G13928   4.875   7.219   5.852  0.7135  3.1109 -4.5664
  129OSM    C7F13929   4.690   7.333   5.798  0.0830 -0.5746  0.2240
  129OSM    H7F13930   4.670   7.384   5.894  1.1234  0.5750 -0.1484
  129OSM    H7G13931   4.594   7.311   5.747 -0.2824  0.1253  0.6018
  129OSM    C8F13932   4.777   7.421   5.706  0.6878  0.1358  0.0028
  129OSM    H8F13933   4.883   7.430   5.739  0.2059 -0.6461  1.8584
  129OSM    H8G13934   4.745   7.527   5.710 -0.9736 -0.2496 -1.6584
  129OSM    C9F13935   4.775   7.373   5.565  0.3033 -0.0214 -0.0149
  129OSM    H9F13936   4.792   7.265   5.555 -1.5395 -0.2860 -0.8432
  129OSM   C10F13937   4.746   7.440   5.449  0.4810  0.6670  0.0040
  129OSM   H10F13938   4.742   7.385   5.353  2.3773  1.6880 -0.7245
  129OSM   C11F13939   4.706   7.589   5.438 -0.1588 -0.3110 -0.8693
  129OSM   H11F13940   4.678   7.643   5.531  2.1541  1.9049 -1.3477
  129OSM   H11G13941   4.618   7.582   5.371  1.1192 -0.6337 -2.5903
  129OSM   C12F13942   4.809   7.671   5.380  0.2149 -0.4419 -0.1629
  129OSM   H12F13943   4.896   7.678   5.449 -0.6044  0.9817  0.7785
  129OSM   H12G13944   4.764   7.772   5.382  0.0716 -0.4902 -0.7859
  129OSM   C13F13945   4.865   7.647   5.232  0.1667 -0.0416 -0.8346
  129OSM   H13F13946   4.781   7.598   5.178 -1.8009  1.8201  0.3260
  129OSM   H13G13947   4.946   7.571   5.228  0.9229  0.8054 -2.6015
  129OSM   C14F13948   4.878   7.778   5.163 -0.2968 -0.6611 -0.1531
  129OSM   H14F13949   4.970   7.835   5.188  0.9626 -1.3733 -2.7775
  129OSM   H14G13950   4.785   7.839   5.167  0.5211  0.5478  1.1839
  129OSM   C15F13951   4.903   7.744   5.013 -0.5614  0.2899 -0.3486
  129OSM   H15F13952   4.811   7.695   4.975 -0.5229  2.7695 -4.1569
  129OSM   H15G13953   4.991   7.676   5.008 -0.4553  0.1613  2.1185
  129OSM   C16F13954   4.923   7.876   4.931 -0.4294  0.3678  0.1866
  129OSM   H16F13955   5.005   7.936   4.976  0.3748 -0.0021 -0.7558
  129OSM   H16G13956   4.825   7.927   4.940 -0.4041  0.0960  2.6614
  129OSM   C17F13957   4.971   7.837   4.788 -0.0314  0.5989  0.0373
  129OSM   H17F13958   5.068   7.785   4.800 -0.0419  0.4363 -0.5504
  129OSM   H17G13959   4.995   7.923   4.721 -0.7086  1.7415  1.1969
  129OSM   C18F13960   4.870   7.751   4.710 -0.2233 -0.1531  0.3323
  129OSM   H18F13961   4.779   7.814   4.702 -0.4121 -0.6203 -1.5570
  129OSM   H18G13962   4.844   7.656   4.760  1.3246 -1.3615 -1.0225
  129OSM   H18H13963   4.893   7.724   4.605 -2.5758  0.7595 -0.4826
  130OSM      N13964   3.061   3.487   6.692 -0.6797 -0.7460  0.5740
  130OSM    C1513965   3.074   3.347   6.757  0.1023  0.5566 -0.0267
  130OSM   H15A13966   2.980   3.293   6.755 -1.1150  2.3898  2.0447
  130OSM   H15B13967   3.095   3.368   6.860 -1.4376  2.1045  0.0250
  130OSM   H15C13968   3.159   3.284   6.736 -1.0547 -2.0463  2.4548
  130OSM    C1413969   3.049   3.462   6.544  0.2331 -0.2394 -0.0945
  130OSM   H14A13970   2.970   3.393   6.518  1.5752 -1.5541 -0.8634
  130OSM   H14B13971   3.132   3.409   6.499 -0.2235 -1.0779  0.0385
  130OSM   H14C13972   3.027   3.554   6.491 -0.0386 -0.4409 -0.3360
  130OSM    C1313973   2.934   3.546   6.746 -0.0229 -0.4158 -0.7771
  130OSM   H13A13974   2.928   3.539   6.853  0.1997 -3.2069 -0.8810
  130OSM   H13B13975   2.853   3.478   6.724 -0.5129 -0.2222  0.3782
  130OSM   H13C13976   2.919   3.646   6.707  2.0793  0.8112  1.3060
  130OSM    C1213977   3.183   3.581   6.724  0.1974  0.0595  0.1896
  130OSM   H12A13978   3.159   3.681   6.690  0.0270 -0.6459 -1.8310
  130OSM   H12B13979   3.266   3.545   6.666 -1.0132 -1.1745 -0.8173
  130OSM    C1113980   3.232   3.591   6.871  0.3563  0.3091 -0.3952
  130OSM   H11A13981   3.147   3.609   6.940  1.8644 -0.1080  1.6910
  130OSM   H11B13982   3.293   3.683   6.877 -2.0983  1.9946 -0.0201
  130OSM      P13983   3.436   3.445   6.859  0.2868  0.2506  0.0988
  130OSM    O1313984   3.526   3.551   6.914  0.3949  0.8130  0.4155
  130OSM    O1413985   3.482   3.312   6.894  0.1842 -0.0633 -0.5497
  130OSM    O1113986   3.425   3.454   6.703 -0.0859  0.4768  0.4216
  130OSM    O1213987   3.296   3.470   6.912  0.4690 -0.0786 -0.4428
  130OSM    C1S13988   3.532   3.486   6.613 -0.0437  0.7100  0.7395
  130OSM    H1S13989   3.631   3.495   6.663  1.1840 -1.1963 -1.1539
  130OSM    H1T13990   3.507   3.583   6.566  0.0550  0.2218 -0.3376
  130OSM     NF13991   3.655   3.387   6.413 -0.4094 -0.0412  0.4155
  130OSM    HNF13992   3.637   3.394   6.315 -0.3284  0.9783  0.4693
  130OSM    C2S13993   3.547   3.377   6.506  0.1237 -0.0836  0.8533
  130OSM    H2S13994   3.557   3.280   6.559 -1.1075 -0.3440  0.6557
  130OSM    C3S13995   3.415   3.365   6.430 -0.1087 -0.0099  0.0841
  130OSM    H3S13996   3.367   3.463   6.408 -1.7845 -0.9793 -0.7276
  130OSM     O313997   3.313   3.307   6.508 -1.1893 -0.2655  0.1795
  130OSM    HO313998   3.357   3.321   6.592 -0.7221  2.6100 -0.4320
  130OSM    C4S13999   3.422   3.283   6.302 -0.3354 -0.4410  0.4054
  130OSM    H4S14000   3.412   3.176   6.324  1.0340 -0.1883  2.5501
  130OSM    C5S14001   3.431   3.332   6.174 -0.6693  0.0337 -0.2035
  130OSM    H5S14002   3.462   3.434   6.152 -1.2903  0.5901  1.3469
  130OSM    C6S14003   3.412   3.237   6.054 -0.0498 -0.7271  0.3945
  130OSM    H6S14004   3.512   3.198   6.026  1.0375  0.1720  2.7635
  130OSM    H6T14005   3.375   3.303   5.972  0.3384 -0.9303  0.0489
  130OSM    C7S14006   3.325   3.108   6.065 -0.1265  0.5169  0.0903
  130OSM    H7S14007   3.227   3.131   6.111 -0.1525 -1.2782  1.0220
  130OSM    H7T14008   3.384   3.037   6.126 -1.1502 -1.3953 -1.0432
  130OSM    C8S14009   3.310   3.038   5.928 -0.7398 -0.3511  0.1575
  130OSM    H8S14010   3.411   3.006   5.894 -0.7071  0.3883 -0.4775
  130OSM    H8T14011   3.274   3.117   5.858 -0.4843 -0.4399 -0.0740
  130OSM    C9S14012   3.220   2.919   5.920  0.3328 -0.5926  0.0756
  130OSM    H9S14013   3.117   2.933   5.959  0.0853 -1.6271 -0.1800
  130OSM    H9T14014   3.263   2.833   5.976 -1.2374 -0.0549  2.2186
  130OSM   C10S14015   3.186   2.868   5.773 -0.3814  0.2862 -0.2566
  130OSM   H10S14016   3.267   2.880   5.698  1.2657  0.6065  1.4697
  130OSM   H10T14017   3.104   2.935   5.739 -0.7565 -0.9150 -1.8332
  130OSM   C11S14018   3.141   2.721   5.783  0.4282  0.3244  0.6357
  130OSM   H11S14019   3.066   2.705   5.702  0.9018  1.0619  0.0357
  130OSM   H11T14020   3.089   2.686   5.874 -1.0619 -0.9392 -0.6439
  130OSM   C12S14021   3.259   2.628   5.767 -0.3619  0.3202 -0.7230
  130OSM   H12S14022   3.317   2.621   5.862  0.2489 -3.6651 -1.2209
  130OSM   H12T14023   3.335   2.670   5.698  0.4883  1.2305  0.7129
  130OSM   C13S14024   3.237   2.486   5.731 -0.5210  0.2667 -0.2171
  130OSM   H13S14025   3.180   2.428   5.806  1.6074 -3.2062 -1.0448
  130OSM   H13T14026   3.337   2.438   5.739 -1.3927 -1.4910  0.6398
  130OSM   C14S14027   3.177   2.470   5.592  0.2458  0.1284  0.1687
  130OSM   H14S14028   3.250   2.515   5.522 -0.3896  0.5070 -0.2682
  130OSM   H14T14029   3.090   2.539   5.579  1.2785  1.3288 -0.6048
  130OSM   C15S14030   3.143   2.327   5.538  0.8742  0.3269 -0.4761
  130OSM   H15S14031   3.061   2.281   5.598  0.1128  0.1767 -1.5951
  130OSM   H15T14032   3.240   2.272   5.544  0.5163 -0.3409 -0.6640
  130OSM   C16S14033   3.100   2.324   5.391 -0.6769  0.3526  0.4143
  130OSM   H16S14034   3.037   2.410   5.359 -1.6061  0.0058  1.2514
  130OSM   H16T14035   3.046   2.231   5.361  0.7792  0.1500 -1.7813
  130OSM   C17S14036   3.218   2.332   5.288 -0.1207 -0.2850  0.0815
  130OSM   H17S14037   3.292   2.402   5.333  0.0315  0.3406 -1.1099
  130OSM   H17T14038   3.185   2.389   5.199 -0.2142 -0.7085 -0.1571
  130OSM   C18S14039   3.277   2.196   5.242 -0.4081 -0.1879 -0.8311
  130OSM   H18S14040   3.296   2.126   5.326  0.3345  1.0068  0.0292
  130OSM   H18T14041   3.374   2.206   5.189 -0.1847  0.2691 -0.3439
  130OSM   H18U14042   3.201   2.142   5.181 -1.5583  1.9512 -1.4154
  130OSM    C1F14043   3.781   3.381   6.452  0.3022  0.1382  0.1187
  130OSM     OF14044   3.809   3.375   6.569 -0.1304 -0.2088  0.0619
  130OSM    C2F14045   3.886   3.382   6.343  0.1346  0.6115  0.3841
  130OSM    H2F14046   3.978   3.329   6.374  0.2219 -0.2730 -1.2551
  130OSM    H2G14047   3.901   3.491   6.323  0.6433  1.0799  2.9650
  130OSM    C3F14048   3.827   3.306   6.217  0.1460  0.3170  0.1976
  130OSM    H3F14049   3.729   3.334   6.175 -0.1505 -0.3420  0.4317
  130OSM    H3G14050   3.824   3.199   6.248  0.7155 -0.0540 -0.9963
  130OSM    C4F14051   3.930   3.316   6.096 -0.2767  0.6362 -0.1696
  130OSM    H4F14052   4.031   3.287   6.133 -1.0456 -1.8493  0.1902
  130OSM    H4G14053   3.942   3.424   6.074 -1.8492  1.0250  0.7465
  130OSM    C5F14054   3.902   3.218   5.982  0.6348 -0.2720 -0.6741
  130OSM    H5F14055   3.802   3.231   5.937  0.0312  0.6786  0.8685
  130OSM    H5G14056   3.905   3.115   6.025  0.2783  0.0091  0.0347
  130OSM    C6F14057   4.015   3.220   5.876  0.3369 -0.0552  0.2540
  130OSM    H6F14058   4.104   3.188   5.934 -0.2994 -1.7147  0.3897
  130OSM    H6G14059   4.040   3.322   5.840  0.2096  0.5591  1.8659
  130OSM    C7F14060   3.983   3.116   5.768  0.2345 -0.3397  0.2189
  130OSM    H7F14061   3.937   3.024   5.811 -0.3721 -0.6493 -1.0361
  130OSM    H7G14062   4.087   3.091   5.738 -0.2863 -0.9418 -1.1805
  130OSM    C8F14063   3.908   3.165   5.641  0.3443  0.1202  0.0775
  130OSM    H8F14064   3.930   3.272   5.618  2.0147 -0.2501 -0.1633
  130OSM    H8G14065   3.799   3.157   5.662  0.5705 -0.8485  0.9294
  130OSM    C9F14066   3.931   3.071   5.524 -0.1003 -0.0949  0.1091
  130OSM    H9F14067   3.892   2.969   5.532  0.7289 -0.3079  1.9758
  130OSM   C10F14068   4.013   3.092   5.423  0.2032  0.5141  0.2194
  130OSM   H10F14069   4.014   3.014   5.346  0.5101 -2.0709  2.6826
  130OSM   C11F14070   4.099   3.204   5.395  0.5891 -0.1270  0.2263
  130OSM   H11F14071   4.063   3.298   5.442  0.5814  0.3964 -0.8152
  130OSM   H11G14072   4.089   3.234   5.289  0.4956  2.0585  0.8042
  130OSM   C12F14073   4.243   3.183   5.431  0.1620 -0.6418  0.1276
  130OSM   H12F14074   4.277   3.077   5.424 -1.6354 -1.1308 -2.0361
  130OSM   H12G14075   4.269   3.224   5.531 -0.2920 -0.4182  0.1556
  130OSM   C13F14076   4.332   3.276   5.342  0.0106  0.1738  0.8386
  130OSM   H13F14077   4.319   3.384   5.367 -1.8723  0.2856 -0.4505
  130OSM   H13G14078   4.293   3.261   5.240  1.1034  1.7217  0.1404
  130OSM   C14F14079   4.480   3.235   5.355  0.3660  0.0295  0.6642
  130OSM   H14F14080   4.496   3.127   5.337 -1.7348 -0.1606 -0.4254
  130OSM   H14G14081   4.513   3.262   5.458  0.4718  0.0186  0.6331
  130OSM   C15F14082   4.565   3.303   5.246  0.5882 -0.3959  0.0431
  130OSM   H15F14083   4.671   3.272   5.261  0.4137 -1.5402 -0.9057
  130OSM   H15G14084   4.548   3.411   5.268  0.4756 -0.1879 -1.0220
  130OSM   C16F14085   4.525   3.263   5.104  0.0882 -0.3811  0.4120
  130OSM   H16F14086   4.458   3.338   5.057 -0.3460  0.0493  1.6788
  130OSM   H16G14087   4.455   3.180   5.129 -1.0167  0.4663  0.1895
  130OSM   C17F14088   4.649   3.216   5.021 -0.2764  1.0669 -0.1379
  130OSM   H17F14089   4.703   3.142   5.083 -1.4593  1.3083  1.2727
  130OSM   H17G14090   4.725   3.296   5.009  1.3024 -0.1709  1.1817
  130OSM   C18F14091   4.615   3.148   4.884 -0.8676 -0.5553  0.2362
  130OSM   H18F14092   4.707   3.139   4.823 -0.2916 -1.1438  1.1766
  130OSM   H18G14093   4.542   3.217   4.837  0.6042  2.9686  2.6976
  130OSM   H18H14094   4.568   3.048   4.892  2.0233 -2.0162  0.1057
  131OSM      N14095   5.571   3.885   6.620 -0.0714 -0.5140 -0.2105
  131OSM    C1514096   5.492   3.994   6.694 -0.1739  0.1497 -0.0526
  131OSM   H15A14097   5.550   4.086   6.696  0.5454 -0.2968  0.9629
  131OSM   H15B14098   5.472   3.956   6.793  0.8650 -0.4373 -0.0457
  131OSM   H15C14099   5.405   4.030   6.642  0.6079  2.3930  0.0443
  131OSM    C1414100   5.470   3.786   6.568  0.1051 -0.6191  0.3458
  131OSM   H14A14101   5.423   3.735   6.651 -1.0978 -0.5503 -0.2650
  131OSM   H14B14102   5.507   3.699   6.516 -0.1632 -0.0935 -0.7724
  131OSM   H14C14103   5.393   3.838   6.512  0.0198 -1.7044 -0.5959
  131OSM    C1314104   5.628   3.958   6.506 -0.4499  0.2134 -0.0621
  131OSM   H13A14105   5.684   4.048   6.528 -0.2140  0.7177 -2.4502
  131OSM   H13B14106   5.550   3.982   6.435  0.8658 -1.9581 -2.4084
  131OSM   H13C14107   5.699   3.890   6.461  1.2191  0.8893  1.4279
  131OSM    C1214108   5.677   3.831   6.715  0.5182  0.1171  0.0064
  131OSM   H12A14109   5.621   3.781   6.793 -0.9257  0.5339 -0.7187
  131OSM   H12B14110   5.721   3.912   6.772 -0.7179  0.2297  0.8554
  131OSM    C1114111   5.796   3.742   6.653  0.2068  0.3042  0.6333
  131OSM   H11A14112   5.748   3.655   6.602 -0.2365  1.5761 -1.2284
  131OSM   H11B14113   5.853   3.699   6.737  1.7724  0.7753 -0.1466
  131OSM      P14114   5.984   3.911   6.635 -0.0208  0.8772  0.0244
  131OSM    O1314115   5.913   3.993   6.734  0.1392 -0.0390 -0.2290
  131OSM    O1414116   6.090   3.817   6.666  0.2910  0.1567  0.6256
  131OSM    O1114117   6.034   4.007   6.519 -0.4653 -0.3263  0.0916
  131OSM    O1214118   5.879   3.821   6.565  0.1589  0.4938 -1.0352
  131OSM    C1S14119   5.952   4.044   6.407 -0.0376  1.0240 -1.2179
  131OSM    H1S14120   5.885   4.124   6.445  1.4553  1.4585  0.6891
  131OSM    H1T14121   5.897   3.958   6.364  0.8538  1.1225 -2.6039
  131OSM     NF14122   5.935   4.097   6.177 -0.2733  0.0153 -0.1124
  131OSM    HNF14123   5.924   4.010   6.131 -0.3078  0.2906 -0.6319
  131OSM    C2S14124   6.030   4.097   6.285  0.8425  0.4641 -0.5519
  131OSM    H2S14125   6.057   4.201   6.314 -0.5344  0.7503 -0.2116
  131OSM    C3S14126   6.153   4.010   6.248 -0.0505 -0.3165 -0.4352
  131OSM    H3S14127   6.112   3.910   6.221  0.5388 -0.1239 -2.1187
  131OSM     O314128   6.248   3.995   6.359  0.1367  0.5767  0.3988
  131OSM    HO314129   6.187   3.998   6.433  0.2713  0.5225  0.5114
  131OSM    C4S14130   6.222   4.076   6.131  0.0689  0.4648 -0.2700
  131OSM    H4S14131   6.262   4.177   6.145 -0.8061  1.0715 -1.8795
  131OSM    C5S14132   6.229   4.019   6.015 -0.9491  0.3920  0.0292
  131OSM    H5S14133   6.183   3.920   6.000  1.1441 -0.4780 -1.0781
  131OSM    C6S14134   6.299   4.071   5.893 -0.6561  0.2615  0.6089
  131OSM    H6S14135   6.366   4.151   5.930 -1.0985  1.5912 -1.3580
  131OSM    H6T14136   6.233   4.129   5.825  2.6612  4.0717  0.2926
  131OSM    C7S14137   6.381   3.960   5.811 -0.1735 -0.2327 -0.0849
  131OSM    H7S14138   6.323   3.905   5.734  0.2728 -0.6724 -0.1130
  131OSM    H7T14139   6.412   3.885   5.886  1.3961  2.2924  1.9715
  131OSM    C8S14140   6.512   4.014   5.753  0.2207 -0.6130  0.6079
  131OSM    H8S14141   6.599   3.979   5.813 -0.9309  0.4653  3.0699
  131OSM    H8T14142   6.500   4.124   5.765  0.2485 -0.5104 -0.2341
  131OSM    C9S14143   6.522   3.966   5.608 -0.0100  0.0923 -0.3499
  131OSM    H9S14144   6.439   3.982   5.536  1.8252  2.2334 -2.1543
  131OSM    H9T14145   6.535   3.855   5.607  0.0347  0.0885  0.2112
  131OSM   C10S14146   6.644   4.033   5.543 -0.3276 -0.3378 -1.1435
  131OSM   H10S14147   6.739   4.018   5.599 -0.9650 -0.4840 -0.0964
  131OSM   H10T14148   6.629   4.143   5.544  4.0873  0.4625 -0.9674
  131OSM   C11S14149   6.668   3.988   5.400  0.2147  0.4072  0.4866
  131OSM   H11S14150   6.744   4.050   5.349 -0.1396  1.6975  1.4760
  131OSM   H11T14151   6.573   4.010   5.348 -0.7084 -2.9401  0.4877
  131OSM   C12S14152   6.701   3.839   5.376 -0.0553 -0.5209  0.4047
  131OSM   H12S14153   6.623   3.767   5.408 -0.6311 -0.4775 -0.8616
  131OSM   H12T14154   6.799   3.816   5.423  0.6774 -1.8120 -1.6453
  131OSM   C13S14155   6.725   3.797   5.233  0.8773 -0.0085  0.4893
  131OSM   H13S14156   6.769   3.695   5.230  1.3486  0.2152 -1.0565
  131OSM   H13T14157   6.791   3.872   5.185 -0.4933 -0.0295 -1.5759
  131OSM   C14S14158   6.593   3.784   5.144 -1.4292 -0.3234  0.0051
  131OSM   H14S14159   6.532   3.876   5.156  1.5047  1.8721 -0.5996
  131OSM   H14T14160   6.543   3.698   5.194  0.1674 -0.3006  1.7302
  131OSM   C15S14161   6.629   3.762   4.992 -0.1980 -0.1146 -0.3013
  131OSM   H15S14162   6.693   3.673   4.974  0.8713  0.7598 -0.9830
  131OSM   H15T14163   6.685   3.853   4.960 -0.3870  0.2541  0.3842
  131OSM   C16S14164   6.497   3.732   4.925  0.1629 -0.4499 -0.2190
  131OSM   H16S14165   6.518   3.734   4.816 -2.8159  1.6933 -0.8731
  131OSM   H16T14166   6.423   3.812   4.946 -1.6957 -1.0806 -3.5885
  131OSM   C17S14167   6.449   3.591   4.959 -0.2241 -0.3706 -0.5273
  131OSM   H17S14168   6.410   3.591   5.064 -0.5599  2.6204 -0.5633
  131OSM   H17T14169   6.538   3.524   4.957  1.0856  1.3188 -2.1875
  131OSM   C18S14170   6.340   3.541   4.859  0.2431  0.9630  0.1235
  131OSM   H18S14171   6.244   3.597   4.863 -0.9289 -0.6120 -2.8667
  131OSM   H18T14172   6.322   3.433   4.878 -0.5170  1.2646  1.2042
  131OSM   H18U14173   6.378   3.553   4.756  2.2084 -2.6663  0.2505
  131OSM    C1F14174   5.825   4.177   6.181  0.0963  0.2382 -0.0197
  131OSM     OF14175   5.820   4.261   6.273  0.2114  0.2351  0.1791
  131OSM    C2F14176   5.723   4.172   6.076 -0.0465 -0.0088  1.2477
  131OSM    H2F14177   5.638   4.114   6.118 -1.7787  2.2278  1.0503
  131OSM    H2G14178   5.750   4.119   5.982 -1.9034  0.8950  0.1281
  131OSM    C3F14179   5.657   4.301   6.029 -0.6368 -0.5836 -0.2255
  131OSM    H3F14180   5.732   4.371   5.987 -0.5423 -0.8867 -0.5585
  131OSM    H3G14181   5.611   4.354   6.116 -0.2796  0.8571 -0.8811
  131OSM    C4F14182   5.540   4.288   5.930  0.1778  0.1107 -0.1480
  131OSM    H4F14183   5.447   4.253   5.979 -0.2749 -2.2208 -2.5096
  131OSM    H4G14184   5.565   4.205   5.861 -1.2538  0.2632 -0.8753
  131OSM    C5F14185   5.514   4.419   5.854  0.3531  0.4545 -0.1397
  131OSM    H5F14186   5.600   4.489   5.855  1.5762 -0.8182  3.9386
  131OSM    H5G14187   5.424   4.466   5.898 -0.8469 -2.2400  0.4589
  131OSM    C6F14188   5.459   4.388   5.710 -0.6262 -1.0240 -0.2268
  131OSM    H6F14189   5.394   4.298   5.708  0.2988 -1.7015 -2.1129
  131OSM    H6G14190   5.552   4.342   5.671  0.3069 -0.3891  1.1485
  131OSM    C7F14191   5.413   4.496   5.612 -0.0531  0.2299  0.4022
  131OSM    H7F14192   5.497   4.567   5.598  0.6390 -0.7853 -0.7118
  131OSM    H7G14193   5.324   4.551   5.649 -1.1208 -1.1097 -0.0996
  131OSM    C8F14194   5.389   4.445   5.466 -0.1989  0.7974  0.7630
  131OSM    H8F14195   5.312   4.367   5.450  0.9075  0.1420 -1.9448
  131OSM    H8G14196   5.476   4.383   5.434 -1.3180  0.6029 -2.2764
  131OSM    C9F14197   5.383   4.562   5.373 -0.2202  0.1280 -0.2131
  131OSM    H9F14198   5.442   4.647   5.413 -0.6110 -0.3630  1.5199
  131OSM   C10F14199   5.333   4.573   5.248 -0.0941  0.7634  0.1126
  131OSM   H10F14200   5.330   4.673   5.202  0.0808  0.9019  0.3986
  131OSM   C11F14201   5.252   4.466   5.173  0.0770  0.8220 -0.0347
  131OSM   H11F14202   5.144   4.477   5.199 -0.0351  0.5064 -0.3713
  131OSM   H11G14203   5.293   4.364   5.190 -1.7226  0.2274  0.9770
  131OSM   C12F14204   5.273   4.485   5.022  0.1450 -0.5354 -0.5436
  131OSM   H12F14205   5.268   4.385   4.974  1.2532 -0.6053 -0.5380
  131OSM   H12G14206   5.369   4.536   4.996  1.2513 -1.8229  0.8494
  131OSM   C13F14207   5.159   4.572   4.957  0.0444  0.1169  0.5648
  131OSM   H13F14208   5.155   4.676   4.996  2.4959  0.5378 -0.1613
  131OSM   H13G14209   5.057   4.537   4.985 -0.4664  2.1191  1.3699
  131OSM   C14F14210   5.180   4.593   4.804 -0.6242  0.1103  0.1863
  131OSM   H14F14211   5.107   4.673   4.780 -0.1015  0.3097 -0.7769
  131OSM   H14G14212   5.173   4.495   4.754 -0.7725 -1.3530  2.8779
  131OSM   C15F14213   5.319   4.656   4.769 -0.4167 -0.5258  0.3523
  131OSM   H15F14214   5.329   4.676   4.660  2.8954 -1.2824  0.4081
  131OSM   H15G14215   5.405   4.589   4.791 -0.1360  0.0697  1.1070
  131OSM   C16F14216   5.336   4.796   4.817 -0.3819  0.0950  0.5444
  131OSM   H16F14217   5.347   4.788   4.927 -0.2938 -1.2434  0.4549
  131OSM   H16G14218   5.250   4.861   4.792  0.8298  1.3227 -0.6419
  131OSM   C17F14219   5.460   4.869   4.764 -0.5085 -0.1071 -0.0885
  131OSM   H17F14220   5.467   4.876   4.653  0.5651 -0.5425 -0.0511
  131OSM   H17G14221   5.549   4.809   4.788  0.6792  1.1661 -1.1155
  131OSM   C18F14222   5.467   5.011   4.821  0.4073 -0.3797 -0.0950
  131OSM   H18F14223   5.522   5.020   4.917  1.0397  1.7421 -0.5975
  131OSM   H18G14224   5.373   5.070   4.816 -0.4404 -1.5043  1.7268
  131OSM   H18H14225   5.529   5.069   4.749  1.8217 -1.3073  0.3445
  132OSM      N14226   0.340   1.105   7.172 -1.3532  0.5540  0.0668
  132OSM    C1514227   0.430   1.219   7.225 -0.0718  0.2880 -0.2095
  132OSM   H15A14228   0.419   1.234   7.331  1.2169 -2.8928  0.4707
  132OSM   H15B14229   0.415   1.311   7.169 -0.0943  0.8556  0.7049
  132OSM   H15C14230   0.534   1.190   7.218 -0.2813 -1.2438  2.1348
  132OSM    C1414231   0.372   0.973   7.240 -0.2573 -1.0662 -0.4560
  132OSM   H14A14232   0.350   0.977   7.346 -2.8229 -1.0276 -0.9368
  132OSM   H14B14233   0.480   0.963   7.237 -0.0284 -1.0407  3.1118
  132OSM   H14C14234   0.322   0.886   7.201  2.0337 -2.2337 -0.9979
  132OSM    C1314235   0.195   1.132   7.190  0.5132 -0.0684 -0.0069
  132OSM   H13A14236   0.139   1.039   7.184  1.8225 -1.1690  2.7138
  132OSM   H13B14237   0.158   1.219   7.138  1.2646 -0.3301 -1.0046
  132OSM   H13C14238   0.193   1.155   7.296  4.2496  0.7071  0.0307
  132OSM    C1214239   0.380   1.097   7.023 -0.3568 -0.1235  0.0254
  132OSM   H12A14240   0.340   1.008   6.976  0.0415  0.4637 -1.4793
  132OSM   H12B14241   0.486   1.081   7.010 -0.8725 -2.6904 -1.7775
  132OSM    C1114242   0.357   1.229   6.932  0.4157 -0.3043 -0.7724
  132OSM   H11A14243   0.400   1.207   6.831  1.7333 -0.2919 -0.2375
  132OSM   H11B14244   0.414   1.315   6.976 -1.0548  0.0046  0.6006
  132OSM      P14245   0.115   1.194   6.835  1.4026  0.1164  0.2290
  132OSM    O1314246   0.166   1.070   6.775 -0.0491 -0.1678 -0.4173
  132OSM    O1414247  -0.017   1.187   6.911  0.1356 -0.5148 -0.0812
  132OSM    O1114248   0.090   1.299   6.718 -0.0929  0.2597 -0.2628
  132OSM    O1214249   0.222   1.267   6.928  0.0269 -0.0308 -0.5097
  132OSM    C1S14250   0.195   1.355   6.638  0.6916  0.2079 -0.2145
  132OSM    H1S14251   0.285   1.290   6.637  0.0508 -0.7279  1.0577
  132OSM    H1T14252   0.234   1.448   6.683  1.5125  0.9558 -2.3153
  132OSM     NF14253   0.257   1.442   6.433  0.1295 -0.2168 -0.5180
  132OSM    HNF14254   0.272   1.540   6.435 -1.6493  0.0824  1.1187
  132OSM    C2S14255   0.143   1.386   6.497 -1.2624 -0.9910 -0.1187
  132OSM    H2S14256   0.115   1.290   6.448  0.3816 -0.4838 -2.2437
  132OSM    C3S14257   0.027   1.477   6.496  0.5145  0.0974  0.9400
  132OSM    H3S14258   0.058   1.567   6.554  0.7067  0.0427  0.9258
  132OSM     O314259  -0.084   1.435   6.579 -0.1986 -0.4677 -0.1901
  132OSM    HO314260  -0.042   1.361   6.622  2.5039  1.6551  1.1479
  132OSM    C4S14261  -0.009   1.508   6.355 -0.1821  0.5569  0.3554
  132OSM    H4S14262   0.068   1.555   6.293  0.3782 -1.5497 -0.6439
  132OSM    C5S14263  -0.126   1.468   6.301 -0.4788 -0.3472 -0.0797
  132OSM    H5S14264  -0.196   1.413   6.365 -2.1000 -0.2637 -1.6989
  132OSM    C6S14265  -0.181   1.484   6.157 -0.5052  0.5684  1.0875
  132OSM    H6S14266  -0.274   1.545   6.150 -2.3470 -2.1320 -0.0348
  132OSM    H6T14267  -0.214   1.388   6.112  0.1199  0.1332  1.5380
  132OSM    C7S14268  -0.078   1.554   6.066  0.0212 -0.0118  0.0097
  132OSM    H7S14269   0.018   1.499   6.067  0.9916  1.6341  0.5647
  132OSM    H7T14270  -0.044   1.654   6.101  0.3138  0.2471 -0.9700
  132OSM    C8S14271  -0.126   1.582   5.924 -0.2012 -0.1727  0.3716
  132OSM    H8S14272  -0.224   1.635   5.925 -0.5580 -0.7811  2.3226
  132OSM    H8T14273  -0.149   1.484   5.878  0.6684  0.4537 -1.4956
  132OSM    C9S14274  -0.014   1.652   5.839 -0.0670 -0.2823 -0.3370
  132OSM    H9S14275   0.081   1.596   5.827 -0.2820 -0.9344  0.8615
  132OSM    H9T14276   0.005   1.749   5.890  0.0360 -1.2367  1.4903
  132OSM   C10S14277  -0.067   1.682   5.702 -0.3244 -0.5571  0.2996
  132OSM   H10S14278  -0.175   1.705   5.715 -0.4122  0.0245 -1.3272
  132OSM   H10T14279  -0.050   1.594   5.636 -1.4712  0.0291 -0.8201
  132OSM   C11S14280  -0.017   1.810   5.634 -0.4353 -0.2077 -0.3544
  132OSM   H11S14281   0.092   1.792   5.618  0.0453  2.0355  0.0907
  132OSM   H11T14282  -0.029   1.899   5.699 -0.1677 -0.7446  0.4566
  132OSM   C12S14283  -0.085   1.819   5.501 -0.1790 -0.8809  0.2703
  132OSM   H12S14284  -0.192   1.848   5.503 -0.0134  0.0409 -2.0134
  132OSM   H12T14285  -0.082   1.719   5.452  0.0279 -1.0738  0.6660
  132OSM   C13S14286  -0.012   1.915   5.406 -0.1675  0.8284 -0.5488
  132OSM   H13S14287   0.095   1.889   5.395  0.2239  2.0244  0.2883
  132OSM   H13T14288  -0.002   2.015   5.452 -1.0552  0.5722  0.2534
  132OSM   C14S14289  -0.068   1.932   5.265  0.0521 -0.1759  0.2754
  132OSM   H14S14290  -0.167   1.981   5.268  0.2442  0.2412 -0.0741
  132OSM   H14T14291  -0.082   1.838   5.208  1.9992 -1.7096  2.1627
  132OSM   C15S14292   0.026   2.021   5.184  0.3164 -0.1267 -0.6291
  132OSM   H15S14293   0.120   1.969   5.154 -0.1398 -1.2989 -0.0639
  132OSM   H15T14294   0.050   2.118   5.234  1.6867  1.4803 -4.0401
  132OSM   C16S14295  -0.040   2.078   5.055 -0.3666  0.4381 -0.3080
  132OSM   H16S14296  -0.132   2.133   5.082  1.0584  1.3385  3.3882
  132OSM   H16T14297  -0.069   1.999   4.982 -1.1311  0.9324 -0.5428
  132OSM   C17S14298   0.046   2.176   4.986 -0.4681 -0.7655  0.7970
  132OSM   H17S14299   0.018   2.180   4.879  0.3066  0.8104  0.6246
  132OSM   H17T14300   0.153   2.145   4.979 -0.7098 -1.4500 -0.1361
  132OSM   C18S14301   0.042   2.325   5.029  0.0476 -0.4149  0.1120
  132OSM   H18S14302   0.093   2.349   5.125 -2.1572 -0.0424  1.2667
  132OSM   H18T14303  -0.063   2.360   5.041 -1.3095 -3.6677 -1.1437
  132OSM   H18U14304   0.095   2.378   4.947  0.1687 -2.2215 -1.0309
  132OSM    C1F14305   0.356   1.365   6.400 -0.3127 -0.6501 -0.7896
  132OSM     OF14306   0.349   1.242   6.401 -0.1831 -0.5508 -0.4754
  132OSM    C2F14307   0.487   1.431   6.363 -0.0771 -0.0891 -0.9182
  132OSM    H2F14308   0.560   1.376   6.427 -0.3465 -0.8986 -1.2891
  132OSM    H2G14309   0.475   1.538   6.389 -3.2824 -0.6292  0.2314
  132OSM    C3F14310   0.514   1.395   6.223 -0.4337  0.2832  0.4875
  132OSM    H3F14311   0.512   1.285   6.206 -0.3348  0.2654  0.5854
  132OSM    H3G14312   0.621   1.424   6.216 -0.2183 -0.5784 -0.0101
  132OSM    C4F14313   0.426   1.462   6.113  0.0907  0.1447 -0.9148
  132OSM    H4F14314   0.451   1.570   6.118  1.2485 -0.1240 -0.6532
  132OSM    H4G14315   0.316   1.446   6.120 -0.2575  2.5457  0.1219
  132OSM    C5F14316   0.483   1.433   5.970  0.4479  0.5713  0.0352
  132OSM    H5F14317   0.485   1.322   5.964 -0.3213  0.5121  0.8587
  132OSM    H5G14318   0.591   1.459   5.964  1.0587 -0.7017  3.5088
  132OSM    C6F14319   0.412   1.502   5.847  0.0299  0.1227  0.6297
  132OSM    H6F14320   0.438   1.609   5.862 -2.1144  0.3781  3.3120
  132OSM    H6G14321   0.305   1.495   5.876  0.3465  0.4158  1.9219
  132OSM    C7F14322   0.440   1.430   5.713 -0.3998 -0.1988 -0.3167
  132OSM    H7F14323   0.415   1.322   5.726 -2.1850 -0.0211 -1.7935
  132OSM    H7G14324   0.546   1.443   5.683  0.0049  0.1719  1.1713
  132OSM    C8F14325   0.353   1.488   5.595  0.0877 -0.6495 -0.1452
  132OSM    H8F14326   0.390   1.593   5.582  0.1850 -0.6483  0.1455
  132OSM    H8G14327   0.244   1.487   5.613  0.4059 -0.3110  2.1168
  132OSM    C9F14328   0.370   1.411   5.471 -0.8092 -0.4936  0.6329
  132OSM    H9F14329   0.474   1.378   5.456 -0.5131  1.0026 -0.9257
  132OSM   C10F14330   0.283   1.383   5.378 -0.1237 -0.5536 -0.2095
  132OSM   H10F14331   0.315   1.343   5.281 -1.6565 -1.9274 -0.1989
  132OSM   C11F14332   0.137   1.429   5.366  0.3188  0.0012  0.2022
  132OSM   H11F14333   0.117   1.504   5.445  0.4592 -0.0009  0.2406
  132OSM   H11G14334   0.060   1.349   5.371 -0.0239  0.2496 -0.9335
  132OSM   C12F14335   0.115   1.512   5.238 -0.0582  0.2009  0.0135
  132OSM   H12F14336   0.192   1.592   5.239 -0.2625  0.4319 -1.0855
  132OSM   H12G14337   0.014   1.556   5.249 -0.6834 -0.9172 -1.0240
  132OSM   C13F14338   0.118   1.450   5.107  0.8960  0.1206  0.7713
  132OSM   H13F14339   0.046   1.366   5.117  0.6462  0.2953  0.5015
  132OSM   H13G14340   0.224   1.424   5.090  0.6239 -0.3770 -0.2485
  132OSM   C14F14341   0.072   1.543   4.984  0.1759  0.3287  0.0850
  132OSM   H14F14342   0.122   1.640   5.004  2.3552 -0.9262  1.0001
  132OSM   H14G14343  -0.037   1.565   4.991  0.4391  1.9562 -0.4618
  132OSM   C15F14344   0.114   1.497   4.842 -0.0938  0.2995  0.2619
  132OSM   H15F14345   0.082   1.392   4.825 -1.4245  0.7732 -0.2919
  132OSM   H15G14346   0.224   1.508   4.829  0.1059  0.0029  1.5837
  132OSM   C16F14347   0.052   1.598   4.740 -0.5952 -0.6630  0.3518
  132OSM   H16F14348   0.037   1.691   4.797 -1.4715 -0.1060 -0.7429
  132OSM   H16G14349  -0.051   1.562   4.719 -1.2820  1.4018 -0.0195
  132OSM   C17F14350   0.140   1.614   4.612  1.0397 -0.0422 -0.5398
  132OSM   H17F14351   0.248   1.637   4.627  1.0865  1.6240 -2.8163
  132OSM   H17G14352   0.098   1.698   4.552  0.6908 -0.1957 -0.5119
  132OSM   C18F14353   0.129   1.489   4.527 -0.4240  0.5485  0.7521
  132OSM   H18F14354   0.131   1.390   4.577 -1.5383  0.3808  0.4955
  132OSM   H18G14355   0.212   1.488   4.453 -1.7769 -0.4201 -0.8018
  132OSM   H18H14356   0.038   1.490   4.464  0.7644 -1.5107 -1.1361
  133OSM      N14357   4.790   2.086   6.906 -0.5950 -0.1145 -0.6962
  133OSM    C1514358   4.798   1.962   6.810  0.1298  0.0968 -1.4285
  133OSM   H15A14359   4.724   1.886   6.830 -2.0691  2.0428 -1.7837
  133OSM   H15B14360   4.897   1.918   6.807 -0.9676 -2.8089  0.6457
  133OSM   H15C14361   4.774   1.989   6.708 -0.9233 -0.2034 -1.2706
  133OSM    C1414362   4.660   2.158   6.889 -0.2828  0.1600 -0.0481
  133OSM   H14A14363   4.658   2.195   6.788 -1.2116  2.0933  0.6261
  133OSM   H14B14364   4.644   2.243   6.953 -5.0907  0.4917 -1.2869
  133OSM   H14C14365   4.575   2.094   6.913 -0.1923 -0.0159 -0.1923
  133OSM    C1314366   4.800   2.035   7.050 -0.3480  0.3587 -0.1070
  133OSM   H13A14367   4.715   1.971   7.071 -1.0953  0.5697 -2.2837
  133OSM   H13B14368   4.808   2.101   7.135 -1.1495 -1.4510  1.4442
  133OSM   H13C14369   4.887   1.974   7.065 -0.2689 -0.0935 -2.1643
  133OSM    C1214370   4.898   2.177   6.872  0.1997  0.1971  0.0386
  133OSM   H12A14371   4.993   2.133   6.899  1.7624  2.7302 -0.9991
  133OSM   H12B14372   4.905   2.272   6.922  3.4289  1.0231 -1.6923
  133OSM    C1114373   4.919   2.212   6.722  0.4203 -0.4700 -0.1934
  133OSM   H11A14374   4.933   2.120   6.661  1.1842  0.5762 -1.6454
  133OSM   H11B14375   5.019   2.259   6.715 -0.0354  1.1272  2.5711
  133OSM      P14376   4.779   2.302   6.527  0.0110 -0.1378 -0.0334
  133OSM    O1314377   4.761   2.159   6.490 -0.5280  0.2807  0.8928
  133OSM    O1414378   4.664   2.383   6.501 -1.1468  0.2055  0.2940
  133OSM    O1114379   4.896   2.365   6.453 -0.2300  0.2966  0.9089
  133OSM    O1214380   4.813   2.300   6.678  0.0402  0.2844  0.9061
  133OSM    C1S14381   5.017   2.285   6.415 -0.6254 -0.3265  0.4696
  133OSM    H1S14382   5.026   2.190   6.472 -2.5057  0.1819  1.7211
  133OSM    H1T14383   5.109   2.342   6.437 -2.2056  1.4737  2.9914
  133OSM     NF14384   5.146   2.172   6.232 -0.1684  0.1034  0.3595
  133OSM    HNF14385   5.207   2.217   6.168  1.4845 -1.8275  0.4734
  133OSM    C2S14386   5.014   2.238   6.267 -0.5706  0.0391  0.9645
  133OSM    H2S14387   4.929   2.168   6.256  0.2334 -1.0070  1.2221
  133OSM    C3S14388   4.992   2.358   6.173 -0.0877 -0.5405 -0.0046
  133OSM    H3S14389   5.072   2.434   6.180 -0.7303  0.1724 -0.2137
  133OSM     O314390   4.871   2.436   6.193  0.5249  0.1420 -0.5117
  133OSM    HO314391   4.839   2.409   6.279  3.1434 -1.8497 -0.0524
  133OSM    C4S14392   4.994   2.319   6.023 -0.3366 -0.3238  0.4877
  133OSM    H4S14393   5.086   2.352   5.971  1.4015 -5.9480 -0.7428
  133OSM    C5S14394   4.905   2.255   5.947  0.7254 -0.1819 -0.1746
  133OSM    H5S14395   4.816   2.205   5.990  1.6188 -0.0843  1.9031
  133OSM    C6S14396   4.920   2.232   5.796  0.0906  0.4767  0.1033
  133OSM    H6S14397   4.823   2.237   5.741  0.1492 -2.1774 -0.3488
  133OSM    H6T14398   4.957   2.128   5.784 -0.7615 -0.1145  2.1650
  133OSM    C7S14399   5.012   2.328   5.715  0.4908 -0.3000 -0.1558
  133OSM    H7S14400   5.113   2.318   5.760 -0.4912 -1.8005  1.9031
  133OSM    H7T14401   4.988   2.435   5.729 -1.3144 -1.0146  3.6092
  133OSM    C8S14402   5.018   2.300   5.563  0.5754 -0.4844 -0.0686
  133OSM    H8S14403   5.069   2.202   5.556 -0.4243 -0.9000 -2.3938
  133OSM    H8T14404   5.094   2.370   5.521  1.4223 -2.2448 -1.6201
  133OSM    C9S14405   4.885   2.309   5.487  0.3241 -0.0405 -0.4698
  133OSM    H9S14406   4.826   2.399   5.513 -1.2261 -0.7629 -1.3663
  133OSM    H9T14407   4.825   2.236   5.546  1.2193  0.1999  0.7795
  133OSM   C10S14408   4.888   2.274   5.343  0.2814 -0.3231  0.0350
  133OSM   H10S14409   4.792   2.265   5.288 -0.0246  2.6949 -0.1385
  133OSM   H10T14410   4.934   2.173   5.342  0.7340 -0.1554 -2.1722
  133OSM   C11S14411   4.971   2.368   5.260 -0.6678  0.2909  0.6440
  133OSM   H11S14412   5.074   2.330   5.270 -0.1573  1.4444 -0.0213
  133OSM   H11T14413   4.972   2.469   5.308 -0.2752  0.5688  0.0665
  133OSM   C12S14414   4.937   2.381   5.106  0.0387 -0.4672 -0.9010
  133OSM   H12S14415   5.017   2.448   5.070 -0.2087  0.6050  0.4614
  133OSM   H12T14416   4.845   2.443   5.118  0.0659 -0.6700  0.6156
  133OSM   C13S14417   4.915   2.256   5.019 -0.4044 -0.2042 -0.2398
  133OSM   H13S14418   4.902   2.279   4.911  3.4217 -1.6894 -1.2128
  133OSM   H13T14419   4.823   2.205   5.053 -1.3731  1.4082 -0.3596
  133OSM   C14S14420   5.038   2.162   5.031 -0.1399 -0.6372 -0.1678
  133OSM   H14S14421   5.065   2.135   5.136 -1.5421 -1.2577  0.0588
  133OSM   H14T14422   5.119   2.215   4.976  0.8357 -1.9826 -0.0869
  133OSM   C15S14423   5.023   2.022   4.972  0.8472 -0.2856  0.2423
  133OSM   H15S14424   4.947   1.967   5.032  1.1314 -0.0356  0.8433
  133OSM   H15T14425   5.118   1.967   4.987  0.6549 -0.5255  0.5917
  133OSM   C16S14426   4.998   2.029   4.819  0.1723  0.2743 -0.8805
  133OSM   H16S14427   5.029   2.121   4.765  0.4787  0.5846 -0.1889
  133OSM   H16T14428   4.887   2.020   4.813 -0.2054 -1.6271  4.0345
  133OSM   C17S14429   5.050   1.901   4.752 -0.0079  0.4124 -0.6215
  133OSM   H17S14430   5.001   1.813   4.798 -1.2342  1.3311 -0.1329
  133OSM   H17T14431   5.157   1.885   4.779 -0.3092 -2.3791 -0.8210
  133OSM   C18S14432   5.032   1.897   4.599 -0.3991 -0.3157 -0.0875
  133OSM   H18S14433   5.101   1.965   4.545  0.2193 -0.5169  0.4418
  133OSM   H18T14434   4.923   1.917   4.584 -0.5587 -0.3462  0.9442
  133OSM   H18U14435   5.047   1.791   4.569 -0.8468 -0.2908 -0.4174
  133OSM    C1F14436   5.174   2.050   6.251  0.3085 -0.1833  0.0910
  133OSM     OF14437   5.087   1.980   6.301 -0.0975 -0.0329  0.4766
  133OSM    C2F14438   5.310   1.992   6.212 -0.0447 -0.5750  0.5198
  133OSM    H2F14439   5.333   1.915   6.288 -0.3504 -2.1583 -0.9532
  133OSM    H2G14440   5.387   2.072   6.205 -1.4038  0.7224 -0.4078
  133OSM    C3F14441   5.304   1.927   6.074 -0.2833 -0.0744 -0.1875
  133OSM    H3F14442   5.232   1.841   6.072 -2.3707  1.5839  0.0927
  133OSM    H3G14443   5.399   1.881   6.042 -1.1116 -0.4343 -2.2760
  133OSM    C4F14444   5.275   2.022   5.952  0.3885  0.3889 -0.1552
  133OSM    H4F14445   5.334   2.117   5.954 -1.2963  1.4697  1.7029
  133OSM    H4G14446   5.169   2.052   5.961  0.0276 -0.6898 -0.7127
  133OSM    C5F14447   5.293   1.945   5.819  0.1347 -0.4191 -0.3888
  133OSM    H5F14448   5.238   1.850   5.833 -1.7422  0.6540 -0.1921
  133OSM    H5G14449   5.403   1.926   5.815  0.6373  1.9977  0.5252
  133OSM    C6F14450   5.245   2.009   5.684  0.3306  0.5062 -0.4501
  133OSM    H6F14451   5.328   2.078   5.658 -0.0143  0.5278 -1.5598
  133OSM    H6G14452   5.150   2.064   5.697  0.9636  1.3019  1.0979
  133OSM    C7F14453   5.220   1.907   5.574  0.1847  0.5963 -0.0239
  133OSM    H7F14454   5.148   1.839   5.624  1.6644 -0.5409  0.6325
  133OSM    H7G14455   5.309   1.842   5.558  0.0337 -1.0446  4.5079
  133OSM    C8F14456   5.155   1.969   5.450 -0.5345  0.1102 -1.1402
  133OSM    H8F14457   5.221   2.043   5.400 -1.2232  1.2602 -0.3866
  133OSM    H8G14458   5.063   2.023   5.480 -0.1520  0.0947  0.1242
  133OSM    C9F14459   5.141   1.860   5.351 -0.0101 -0.7661 -0.2694
  133OSM    H9F14460   5.041   1.814   5.346 -0.0795 -0.4912 -2.1838
  133OSM   C10F14461   5.235   1.815   5.271 -0.2065 -0.0790  0.5249
  133OSM   H10F14462   5.210   1.741   5.194 -1.9300  1.4183 -0.4351
  133OSM   C11F14463   5.374   1.880   5.259 -0.7816  0.2014 -0.3588
  133OSM   H11F14464   5.449   1.800   5.248 -0.3155  0.7042 -0.9103
  133OSM   H11G14465   5.402   1.947   5.343 -0.2570  1.7971 -1.7375
  133OSM   C12F14466   5.381   1.983   5.138 -0.5705 -0.1395 -0.2230
  133OSM   H12F14467   5.355   2.084   5.175 -0.0711 -0.5235  1.2222
  133OSM   H12G14468   5.303   1.954   5.064 -1.0748  2.1269 -0.6506
  133OSM   C13F14469   5.519   1.968   5.065 -0.4027  0.7011 -0.0719
  133OSM   H13F14470   5.524   1.867   5.021  0.3093  1.1738 -1.1288
  133OSM   H13G14471   5.601   1.982   5.139 -0.1389  0.6524 -0.3524
  133OSM   C14F14472   5.527   2.065   4.945 -0.0878  0.2397 -0.2011
  133OSM   H14F14473   5.621   2.043   4.891 -0.0652 -2.0783  0.7033
  133OSM   H14G14474   5.538   2.166   4.990  0.5220  0.4938 -0.9020
  133OSM   C15F14475   5.413   2.057   4.847  0.2762  0.1160 -1.0457
  133OSM   H15F14476   5.329   2.107   4.899  1.1136  0.0329  0.4380
  133OSM   H15G14477   5.385   1.954   4.815  0.9400 -0.8976  1.4406
  133OSM   C16F14478   5.456   2.140   4.725 -0.2988  0.4398 -0.4154
  133OSM   H16F14479   5.544   2.083   4.688 -0.7415 -0.9410  0.5845
  133OSM   H16G14480   5.482   2.241   4.762 -0.0844  0.8494 -1.6484
  133OSM   C17F14481   5.355   2.146   4.611  0.2594  0.0302  0.1916
  133OSM   H17F14482   5.251   2.157   4.648 -0.4193 -3.1417 -0.4542
  133OSM   H17G14483   5.354   2.047   4.560  0.2460 -0.2674  0.7609
  133OSM   C18F14484   5.397   2.260   4.518 -0.1058  0.0066 -0.1134
  133OSM   H18F14485   5.508   2.256   4.518 -0.1074 -2.3275  1.1715
  133OSM   H18G14486   5.356   2.352   4.563  1.1697  0.0215  1.1135
  133OSM   H18H14487   5.356   2.253   4.416  0.8306  2.9725 -0.7927
  134OSM      N14488   3.904   1.623   6.409  0.5142 -0.4662  0.5104
  134OSM    C1514489   3.833   1.676   6.526 -0.0386 -0.2752 -0.0739
  134OSM   H15A14490   3.881   1.768   6.555  0.8507 -1.2313  1.6526
  134OSM   H15B14491   3.843   1.601   6.602 -0.3889 -1.1932 -0.9115
  134OSM   H15C14492   3.726   1.683   6.510 -0.1242 -1.7288 -0.2684
  134OSM    C1414493   3.847   1.690   6.288 -0.3260  0.1902  0.7913
  134OSM   H14A14494   3.875   1.634   6.200 -0.6746  1.6557 -0.2979
  134OSM   H14B14495   3.878   1.793   6.275 -2.8454  0.9012 -0.1519
  134OSM   H14C14496   3.741   1.699   6.302 -0.3501 -1.1166  1.6139
  134OSM    C1314497   4.053   1.652   6.417  0.4757 -0.0294  1.2886
  134OSM   H13A14498   4.087   1.600   6.506 -0.8973  0.4369  2.1048
  134OSM   H13B14499   4.075   1.756   6.435 -1.7768  0.9883 -1.2496
  134OSM   H13C14500   4.091   1.624   6.320  0.4734  0.5593  1.1164
  134OSM    C1214501   3.874   1.475   6.392 -0.0233  1.1236  0.2579
  134OSM   H12A14502   3.938   1.438   6.313 -0.8522 -1.7231  0.8025
  134OSM   H12B14503   3.779   1.465   6.342  0.6535 -0.8831 -0.7308
  134OSM    C1114504   3.892   1.376   6.509 -0.2055 -0.5516  0.7796
  134OSM   H11A14505   3.964   1.417   6.584 -2.0160  0.6748  1.9176
  134OSM   H11B14506   3.924   1.275   6.474 -3.1490 -1.8869  1.6286
  134OSM      P14507   3.660   1.277   6.533  0.2669 -0.1045 -0.0159
  134OSM    O1314508   3.678   1.149   6.607 -1.0581 -0.8610  0.3492
  134OSM    O1414509   3.531   1.353   6.542 -0.3911  0.7378  0.6429
  134OSM    O1114510   3.697   1.250   6.373 -0.5712  0.1382 -0.5005
  134OSM    O1214511   3.773   1.375   6.579 -0.5997  0.4323 -0.0916
  134OSM    C1S14512   3.605   1.277   6.278  0.3347  0.9721 -0.2658
  134OSM    H1S14513   3.594   1.388   6.273  0.0104  0.9040 -1.3741
  134OSM    H1T14514   3.512   1.217   6.288  0.1249  0.9564 -2.0068
  134OSM     NF14515   3.564   1.328   6.032  0.6248  0.4802 -0.6519
  134OSM    HNF14516   3.492   1.282   5.980 -0.2383 -0.0286  0.9363
  134OSM    C2S14517   3.641   1.243   6.127 -0.0206 -0.1394 -0.5566
  134OSM    H2S14518   3.748   1.272   6.125  0.0367 -0.1451  1.0305
  134OSM    C3S14519   3.635   1.088   6.102  0.1223  0.5775 -0.6031
  134OSM    H3S14520   3.527   1.069   6.089 -0.2365  1.1792  1.2286
  134OSM     O314521   3.672   1.013   6.215  0.2487  0.1970  0.3171
  134OSM    HO314522   3.683   1.081   6.281  0.7356  1.5403 -1.1012
  134OSM    C4S14523   3.706   1.058   5.978 -0.3013 -0.0089 -0.5421
  134OSM    H4S14524   3.657   1.091   5.885 -1.8774 -0.3318  0.1361
  134OSM    C5S14525   3.831   0.996   5.966  0.2857  0.1298 -0.7318
  134OSM    H5S14526   3.886   0.975   6.059 -0.7405 -1.2817 -0.4079
  134OSM    C6S14527   3.908   0.962   5.841 -0.4692 -0.0563 -0.3734
  134OSM    H6S14528   3.912   0.852   5.826  0.3501  0.1321 -1.6638
  134OSM    H6T14529   4.013   0.990   5.864 -0.5229 -0.1365 -0.0252
  134OSM    C7S14530   3.866   1.034   5.713  0.2820  0.4759  0.2987
  134OSM    H7S14531   3.876   1.144   5.727 -0.9865  0.5112  1.1001
  134OSM    H7T14532   3.761   1.003   5.692  0.1102  2.6458 -2.7345
  134OSM    C8S14533   3.951   0.988   5.588  0.4243  0.0139 -0.4526
  134OSM    H8S14534   3.986   0.883   5.603 -2.7871 -0.8178  2.6126
  134OSM    H8T14535   4.040   1.053   5.577  0.8089 -0.5341 -0.6498
  134OSM    C9S14536   3.862   1.001   5.463  0.8711  0.4160 -0.6456
  134OSM    H9S14537   3.836   1.108   5.460 -0.3480  0.2131  1.0728
  134OSM    H9T14538   3.769   0.940   5.474  0.8775  0.0730 -2.2773
  134OSM   C10S14539   3.932   0.952   5.333  0.7979 -0.5776  0.6895
  134OSM   H10S14540   3.943   0.842   5.325 -0.6644 -0.6669 -0.5433
  134OSM   H10T14541   4.034   0.996   5.325  0.0915  1.0694  0.3157
  134OSM   C11S14542   3.836   0.984   5.214  0.4370  0.0048  0.2122
  134OSM   H11S14543   3.798   1.086   5.238  0.1072 -0.3385  1.1706
  134OSM   H11T14544   3.746   0.920   5.205 -0.0080  0.6518 -0.0617
  134OSM   C12S14545   3.907   0.992   5.080 -0.3126 -0.0522 -0.2925
  134OSM   H12S14546   3.953   0.893   5.062 -2.4228 -1.0495 -0.5325
  134OSM   H12T14547   3.986   1.070   5.083 -0.3131 -0.0749  1.0096
  134OSM   C13S14548   3.814   1.019   4.960 -0.1245 -0.0829 -0.1507
  134OSM   H13S14549   3.743   1.101   4.982 -0.6150  0.0499 -2.0770
  134OSM   H13T14550   3.757   0.924   4.948  1.1334 -0.6295 -2.3697
  134OSM   C14S14551   3.896   1.041   4.831  0.3802 -0.6004  0.2464
  134OSM   H14S14552   3.970   0.958   4.828 -1.7075 -2.5188 -1.8209
  134OSM   H14T14553   3.953   1.136   4.841  1.8910 -1.5746  1.4161
  134OSM   C15S14554   3.811   1.029   4.708 -0.2896  0.4243 -0.5875
  134OSM   H15S14555   3.728   1.100   4.727 -1.7345 -1.6956  1.6754
  134OSM   H15T14556   3.776   0.924   4.700 -1.4041  0.7587 -0.2076
  134OSM   C16S14557   3.886   1.074   4.578 -0.6203  0.0818 -0.2967
  134OSM   H16S14558   3.953   0.992   4.547  0.0931  0.0066  1.3242
  134OSM   H16T14559   3.950   1.159   4.611 -0.1339 -1.8601  4.6512
  134OSM   C17S14560   3.777   1.109   4.471  0.2606 -0.4919  0.2099
  134OSM   H17S14561   3.693   1.037   4.478 -0.7179  0.7105  1.5046
  134OSM   H17T14562   3.815   1.103   4.367  1.0272  0.9547  0.3784
  134OSM   C18S14563   3.715   1.252   4.491 -0.1402  0.5503  0.2233
  134OSM   H18S14564   3.668   1.291   4.398 -0.3381 -0.3393 -0.0662
  134OSM   H18T14565   3.784   1.332   4.524  0.6315 -0.3235  0.7674
  134OSM   H18U14566   3.636   1.232   4.567 -0.8577 -1.4616 -0.9537
  134OSM    C1F14567   3.577   1.456   6.020 -0.3655 -0.1608 -0.7694
  134OSM     OF14568   3.651   1.515   6.097  0.1820  0.3265 -0.6752
  134OSM    C2F14569   3.495   1.518   5.909 -0.4094 -0.2881 -0.3500
  134OSM    H2F14570   3.389   1.509   5.942 -0.3122 -0.8157 -0.1858
  134OSM    H2G14571   3.519   1.470   5.811  0.0759  0.3287 -0.5406
  134OSM    C3F14572   3.536   1.659   5.885  0.2618 -0.1158  0.1058
  134OSM    H3F14573   3.539   1.720   5.978  0.9897  0.4029 -0.2479
  134OSM    H3G14574   3.467   1.695   5.805  2.9380  0.5818 -2.0290
  134OSM    C4F14575   3.681   1.682   5.827  0.6190  0.0706  0.5286
  134OSM    H4F14576   3.691   1.648   5.722  0.7207  0.6632  0.3434
  134OSM    H4G14577   3.763   1.643   5.892  3.0135  2.7128 -0.6600
  134OSM    C5F14578   3.721   1.832   5.830 -0.1522  0.4272 -0.5436
  134OSM    H5F14579   3.700   1.861   5.935  1.5205 -0.4520  0.0779
  134OSM    H5G14580   3.639   1.879   5.771 -1.2088  1.2500  1.4830
  134OSM    C6F14581   3.866   1.868   5.790 -0.4294  0.8203 -0.2316
  134OSM    H6F14582   3.929   1.816   5.865 -2.5980 -0.1150  1.0445
  134OSM    H6G14583   3.872   1.978   5.807 -0.0362  0.5468  1.5877
  134OSM    C7F14584   3.907   1.819   5.656  0.0234 -0.0026  0.6859
  134OSM    H7F14585   3.914   1.709   5.641  0.4356  0.2835 -1.5887
  134OSM    H7G14586   4.013   1.851   5.643  0.3016 -1.5534 -1.4072
  134OSM    C8F14587   3.826   1.886   5.539  0.0046 -0.0329  0.1326
  134OSM    H8F14588   3.826   1.995   5.558 -0.6814  0.5330 -2.7731
  134OSM    H8G14589   3.718   1.861   5.548  0.0095 -0.2899 -0.4718
  134OSM    C9F14590   3.875   1.859   5.398 -0.0793  0.6649  0.0630
  134OSM    H9F14591   3.978   1.891   5.377  0.3421 -1.2092 -0.9808
  134OSM   C10F14592   3.808   1.796   5.300 -0.7707  0.2895  0.0990
  134OSM   H10F14593   3.855   1.773   5.204 -4.1079  1.3768 -2.0010
  134OSM   C11F14594   3.662   1.760   5.294 -0.1416  0.4804  0.4157
  134OSM   H11F14595   3.604   1.823   5.365  1.2021 -0.0566  2.0463
  134OSM   H11G14596   3.650   1.655   5.328  0.7263  0.1796 -0.1832
  134OSM   C12F14597   3.599   1.763   5.154 -0.2194 -0.0649 -0.6506
  134OSM   H12F14598   3.491   1.736   5.162 -0.3251  0.6884  0.9867
  134OSM   H12G14599   3.645   1.684   5.092 -0.5121 -1.4475  0.8023
  134OSM   C13F14600   3.602   1.891   5.077  0.1013 -0.5092 -0.6217
  134OSM   H13F14601   3.706   1.904   5.041  0.1065  1.9215  0.1121
  134OSM   H13G14602   3.585   1.980   5.141 -2.0491  0.1058 -1.9396
  134OSM   C14F14603   3.510   1.893   4.955 -0.0592 -0.7435  0.3854
  134OSM   H14F14604   3.514   1.797   4.900 -4.3983  0.4677 -2.5841
  134OSM   H14G14605   3.532   1.966   4.874 -0.6571 -0.2869  0.6231
  134OSM   C15F14606   3.368   1.926   4.994 -0.0987  0.4731  0.5227
  134OSM   H15F14607   3.367   2.021   5.052 -0.5198 -0.2356  1.7092
  134OSM   H15G14608   3.333   1.841   5.057 -1.0114  1.3041  1.1696
  134OSM   C16F14609   3.270   1.927   4.871 -0.0317  0.6095  0.0529
  134OSM   H16F14610   3.307   2.002   4.797  1.2638 -0.9695 -0.9905
  134OSM   H16G14611   3.168   1.948   4.909 -0.5894  2.8447 -2.3452
  134OSM   C17F14612   3.263   1.808   4.776 -0.5644 -0.3114 -0.5384
  134OSM   H17F14613   3.229   1.724   4.841  0.9512  0.8452  1.8634
  134OSM   H17G14614   3.364   1.791   4.733 -0.7206  0.5315 -1.2727
  134OSM   C18F14615   3.173   1.834   4.655  0.3012  0.1691  0.0394
  134OSM   H18F14616   3.195   1.921   4.589 -1.3723 -1.1292 -2.3849
  134OSM   H18G14617   3.069   1.862   4.682  0.0747  0.5454 -1.1268
  134OSM   H18H14618   3.174   1.750   4.582  1.2799 -0.6873  0.9991
  135OSM      N14619   4.042   6.424   6.745  0.4249  0.4197  0.1385
  135OSM    C1514620   3.903   6.414   6.794  0.0916 -0.7643 -0.5455
  135OSM   H15A14621   3.838   6.406   6.708 -1.1243  1.2938  0.1232
  135OSM   H15B14622   3.878   6.505   6.846 -0.3289 -1.2093  0.0386
  135OSM   H15C14623   3.882   6.330   6.859 -0.5087 -0.1335  0.0963
  135OSM    C1414624   4.131   6.434   6.861  0.4174 -0.4754 -1.1565
  135OSM   H14A14625   4.107   6.518   6.925  3.0180 -0.4325 -0.1191
  135OSM   H14B14626   4.230   6.461   6.830  0.3220 -0.7711 -1.7252
  135OSM   H14C14627   4.136   6.342   6.918  0.4225  0.5627  0.5837
  135OSM    C1314628   4.072   6.299   6.671 -0.1051 -0.4121  0.2205
  135OSM   H13A14629   4.175   6.311   6.642 -0.4330 -1.9604 -1.7770
  135OSM   H13B14630   4.020   6.310   6.577  1.8828  3.6091 -0.6517
  135OSM   H13C14631   4.048   6.207   6.721  1.6270  0.0733  2.0567
  135OSM    C1214632   4.054   6.547   6.654  0.0470  0.0377  0.2461
  135OSM   H12A14633   4.154   6.565   6.617  0.1037 -0.4677  0.1465
  135OSM   H12B14634   4.020   6.632   6.711  1.0817 -1.7114  3.7297
  135OSM    C1114635   3.972   6.539   6.522  0.6047  0.1515 -0.1092
  135OSM   H11A14636   4.028   6.468   6.456 -0.1552 -2.1734  1.6083
  135OSM   H11B14637   3.967   6.638   6.473 -2.6105  0.0023 -0.2601
  135OSM      P14638   3.765   6.424   6.412 -0.2081 -0.0718 -0.0004
  135OSM    O1314639   3.852   6.303   6.377 -0.3043 -0.3133 -0.1999
  135OSM    O1414640   3.622   6.415   6.433  0.0696 -0.7981 -0.2183
  135OSM    O1114641   3.774   6.544   6.311 -0.0634  0.3715  0.3198
  135OSM    O1214642   3.835   6.499   6.534 -0.3677 -0.0083 -0.1764
  135OSM    C1S14643   3.857   6.554   6.194 -0.2526  0.0553 -0.1733
  135OSM    H1S14644   3.945   6.487   6.204 -0.3486  0.0423  0.7098
  135OSM    H1T14645   3.907   6.653   6.189  1.0323 -0.6212 -1.3412
  135OSM     NF14646   3.869   6.520   5.940 -0.2363 -0.3377  0.1731
  135OSM    HNF14647   3.865   6.603   5.885 -1.7461 -0.3613  0.2052
  135OSM    C2S14648   3.781   6.522   6.060  0.0344  0.1167  0.3904
  135OSM    H2S14649   3.752   6.417   6.078  0.1882  0.1839  1.0735
  135OSM    C3S14650   3.651   6.608   6.042  0.3219 -0.3549 -0.2850
  135OSM    H3S14651   3.684   6.711   6.018  1.5030 -0.7001 -0.1988
  135OSM     O314652   3.572   6.629   6.162  0.3345  0.9402  0.6319
  135OSM    HO314653   3.616   6.575   6.228  0.0385  0.8438  0.7501
  135OSM    C4S14654   3.567   6.546   5.945  0.0666 -0.2651 -0.3819
  135OSM    H4S14655   3.513   6.453   5.971 -0.7973  1.0058  2.9078
  135OSM    C5S14656   3.560   6.606   5.825 -0.1470  0.2498  0.1177
  135OSM    H5S14657   3.616   6.697   5.801  1.0253 -0.1450  1.2729
  135OSM    C6S14658   3.486   6.542   5.704  0.0250 -0.2896 -1.1294
  135OSM    H6S14659   3.389   6.592   5.682  0.3282  1.1891  0.6096
  135OSM    H6T14660   3.465   6.434   5.717  0.1357 -0.1988 -0.0884
  135OSM    C7S14661   3.572   6.548   5.568  0.0495  0.1087 -0.3770
  135OSM    H7S14662   3.668   6.493   5.579  0.5673  0.4578 -2.5623
  135OSM    H7T14663   3.597   6.656   5.564  0.8073  0.0035  1.1353
  135OSM    C8S14664   3.498   6.513   5.445  0.4366  0.5960 -0.3563
  135OSM    H8S14665   3.404   6.572   5.449  0.7736  1.3151 -2.0601
  135OSM    H8T14666   3.467   6.407   5.454 -1.0310  1.1550  2.1538
  135OSM    C9S14667   3.583   6.542   5.325  0.1498 -0.0442  0.1108
  135OSM    H9S14668   3.676   6.480   5.324 -0.1141 -0.4493  0.4723
  135OSM    H9T14669   3.627   6.644   5.335 -1.6084  0.5810  2.0871
  135OSM   C10S14670   3.520   6.509   5.184 -0.6658 -0.2531  0.1829
  135OSM   H10S14671   3.472   6.409   5.188 -1.6371  0.1129 -1.3715
  135OSM   H10T14672   3.605   6.499   5.113  0.2191 -1.2619  1.3466
  135OSM   C11S14673   3.423   6.613   5.125  0.5730  0.4225  0.1830
  135OSM   H11S14674   3.322   6.588   5.166  0.4735 -2.8062 -1.6761
  135OSM   H11T14675   3.408   6.597   5.016 -0.3463  1.5795  0.1135
  135OSM   C12S14676   3.457   6.761   5.141 -0.2533 -0.3396 -0.0944
  135OSM   H12S14677   3.466   6.776   5.251 -2.4064 -0.8871  0.1886
  135OSM   H12T14678   3.377   6.835   5.119  0.5523  1.2525  2.0083
  135OSM   C13S14679   3.589   6.810   5.083 -0.3241 -0.6835 -0.0476
  135OSM   H13S14680   3.672   6.745   5.118 -0.4526 -1.3138 -0.8724
  135OSM   H13T14681   3.604   6.911   5.126 -2.9240 -0.1509 -0.2003
  135OSM   C14S14682   3.598   6.833   4.926  0.4331  0.6970  0.4783
  135OSM   H14S14683   3.630   6.729   4.903 -4.1314 -0.8485  0.2714
  135OSM   H14T14684   3.675   6.906   4.890 -1.0825  1.6937 -0.8805
  135OSM   C15S14685   3.470   6.865   4.846 -0.3007  0.3774 -0.6089
  135OSM   H15S14686   3.382   6.829   4.905 -0.2506  0.3804 -0.5325
  135OSM   H15T14687   3.475   6.811   4.749  0.4306  0.8778 -0.8587
  135OSM   C16S14688   3.454   7.017   4.823 -0.3554  1.1213 -0.1075
  135OSM   H16S14689   3.557   7.060   4.818  1.1806 -1.6175  3.4029
  135OSM   H16T14690   3.403   7.051   4.916  0.8274 -1.1276  1.4686
  135OSM   C17S14691   3.378   7.045   4.698  0.8723 -0.3487  1.1971
  135OSM   H17S14692   3.447   7.008   4.619  0.9389 -0.6563  1.4002
  135OSM   H17T14693   3.351   7.152   4.683 -1.1396 -1.0235 -0.4991
  135OSM   C18S14694   3.248   6.971   4.672 -0.3203  0.0752 -0.7262
  135OSM   H18S14695   3.159   7.014   4.723  0.9968  0.5840  1.2543
  135OSM   H18T14696   3.258   6.863   4.695  1.8078  0.4357  0.3189
  135OSM   H18U14697   3.237   6.971   4.562  0.8619  2.1578 -0.9039
  135OSM    C1F14698   3.966   6.428   5.920  0.3383 -0.0893  0.5740
  135OSM     OF14699   3.971   6.324   5.986  0.0967 -0.2498 -0.0364
  135OSM    C2F14700   4.057   6.453   5.806  0.0844  0.9647 -0.3653
  135OSM    H2F14701   4.151   6.398   5.828 -0.9403 -1.3703 -1.4682
  135OSM    H2G14702   4.087   6.560   5.803  2.9133  0.2475 -1.8256
  135OSM    C3F14703   4.002   6.408   5.668 -0.2209  0.5577 -0.7245
  135OSM    H3F14704   3.909   6.466   5.648 -0.6800  0.7890  1.7399
  135OSM    H3G14705   3.971   6.301   5.670 -1.9665  1.0329  0.3938
  135OSM    C4F14706   4.102   6.438   5.559  0.5137  0.6497  0.0040
  135OSM    H4F14707   4.159   6.531   5.582  2.4372 -0.7947  1.4939
  135OSM    H4G14708   4.181   6.360   5.558  0.3741  0.5141 -0.6593
  135OSM    C5F14709   4.049   6.429   5.417 -0.2708  0.2283  0.3528
  135OSM    H5F14710   3.948   6.476   5.421 -0.8736 -0.9985  0.0867
  135OSM    H5G14711   4.019   6.328   5.382  1.0159 -0.8317  2.1547
  135OSM    C6F14712   4.142   6.499   5.322  0.1201  0.4359  0.4336
  135OSM    H6F14713   4.242   6.454   5.342  0.1021  1.0391  2.0056
  135OSM    H6G14714   4.151   6.607   5.345  2.1574  0.1202  1.3315
  135OSM    C7F14715   4.086   6.479   5.178 -0.2607 -0.5273 -0.3901
  135OSM    H7F14716   3.982   6.518   5.178 -1.0723 -2.4698  2.0011
  135OSM    H7G14717   4.090   6.369   5.164  0.6388 -0.6891  0.9419
  135OSM    C8F14718   4.173   6.546   5.080  0.2343 -0.9175  1.0516
  135OSM    H8F14719   4.276   6.517   5.108  0.5620  1.6176  2.8008
  135OSM    H8G14720   4.189   6.655   5.088  1.0782 -0.6792 -2.4808
  135OSM    C9F14721   4.139   6.517   4.934 -0.5913  0.2393  0.2571
  135OSM    H9F14722   4.196   6.430   4.899 -1.0196  0.0785 -0.0509
  135OSM   C10F14723   4.048   6.577   4.854 -0.0646  0.2259  0.1200
  135OSM   H10F14724   4.019   6.533   4.758  0.3183  0.0645  0.0754
  135OSM   C11F14725   3.976   6.705   4.893  0.5294 -0.1383 -0.4308
  135OSM   H11F14726   4.040   6.763   4.962  1.2110 -0.5372 -0.7199
  135OSM   H11G14727   3.877   6.687   4.940  0.0094 -0.3446 -1.5614
  135OSM   C12F14728   3.952   6.806   4.779  0.1320 -0.2687  0.1937
  135OSM   H12F14729   4.052   6.847   4.755  0.3904 -1.9159 -1.8736
  135OSM   H12G14730   3.884   6.886   4.817  1.4421  0.1523  1.7793
  135OSM   C13F14731   3.876   6.760   4.651  0.1532  0.3316  0.3384
  135OSM   H13F14732   3.775   6.726   4.682 -0.0186  0.7099  0.2090
  135OSM   H13G14733   3.941   6.682   4.607  1.7274  3.0896 -2.7569
  135OSM   C14F14734   3.872   6.877   4.550 -0.4921  0.2826  0.6987
  135OSM   H14F14735   3.973   6.891   4.505 -0.6400 -0.5906  0.0678
  135OSM   H14G14736   3.840   6.977   4.587  2.0339  1.2255  0.5621
  135OSM   C15F14737   3.772   6.847   4.436  0.0266 -0.0225  0.4524
  135OSM   H15F14738   3.769   6.916   4.349 -2.0129 -0.5605  0.0410
  135OSM   H15G14739   3.670   6.838   4.481 -0.5539  0.0877 -0.8062
  135OSM   C16F14740   3.804   6.704   4.378 -0.0652 -0.4466 -0.0780
  135OSM   H16F14741   3.766   6.617   4.437 -1.9947 -1.0928 -2.1403
  135OSM   H16G14742   3.912   6.697   4.356 -0.0601  0.0161 -0.2199
  135OSM   C17F14743   3.718   6.704   4.248  1.1010 -0.3617  0.5756
  135OSM   H17F14744   3.734   6.803   4.201  1.8092  0.1851  1.8946
  135OSM   H17G14745   3.611   6.700   4.277  0.6967 -2.0567 -1.0181
  135OSM   C18F14746   3.746   6.584   4.167  0.4134  0.1964  0.0490
  135OSM   H18F14747   3.856   6.585   4.150  0.8191 -0.8512  2.1886
  135OSM   H18G14748   3.683   6.590   4.076  1.1532  0.4382 -0.4584
  135OSM   H18H14749   3.731   6.490   4.225 -0.7378 -0.0976 -0.7041
  136OSM      N14750   5.248   5.289   6.622  0.4182 -0.3251 -0.2715
  136OSM    C1514751   5.187   5.212   6.730 -0.4861 -0.7374 -0.8372
  136OSM   H15A14752   5.228   5.112   6.734  4.0593  0.9460  1.5612
  136OSM   H15B14753   5.079   5.203   6.724 -0.8433 -0.5296  2.8932
  136OSM   H15C14754   5.201   5.262   6.825 -2.0749 -0.4721 -0.7048
  136OSM    C1414755   5.389   5.319   6.670  0.1367 -0.0030 -0.0989
  136OSM   H14A14756   5.436   5.367   6.586  1.4756 -0.2019  0.5098
  136OSM   H14B14757   5.436   5.225   6.694 -0.7871 -0.1717  1.1618
  136OSM   H14C14758   5.392   5.387   6.754  0.8461 -1.0256  0.7373
  136OSM    C1314759   5.257   5.205   6.497 -0.4169 -0.5169  0.1698
  136OSM   H13A14760   5.309   5.264   6.423 -0.5855 -1.9619 -1.1246
  136OSM   H13B14761   5.155   5.180   6.472 -0.4254  0.4042 -0.7719
  136OSM   H13C14762   5.313   5.115   6.518  0.0541 -0.5628 -1.1780
  136OSM    C1214763   5.168   5.419   6.597  0.1784 -0.4220  0.2233
  136OSM   H12A14764   5.172   5.477   6.688 -3.0162  0.9633 -0.3720
  136OSM   H12B14765   5.064   5.398   6.577 -0.8205  2.1013  2.1914
  136OSM    C1114766   5.225   5.517   6.491 -0.3645  0.0204  0.3667
  136OSM   H11A14767   5.150   5.593   6.460  0.4562  0.2251 -1.2136
  136OSM   H11B14768   5.264   5.466   6.401  2.5961  0.4883  1.2759
  136OSM      P14769   5.317   5.707   6.645  0.2318  0.0675 -0.5331
  136OSM    O1314770   5.195   5.687   6.724  0.1612  0.8671 -0.4609
  136OSM    O1414771   5.452   5.715   6.713 -0.0850 -0.0302  0.3775
  136OSM    O1114772   5.298   5.825   6.544  0.1632 -0.4300 -0.4420
  136OSM    O1214773   5.330   5.584   6.549  0.2395  0.5948 -0.4877
  136OSM    C1S14774   5.392   5.865   6.444  0.4489 -0.2918  0.7493
  136OSM    H1S14775   5.481   5.798   6.442 -0.1244 -1.0655 -0.2246
  136OSM    H1T14776   5.446   5.958   6.470  2.5494 -1.2196 -0.0540
  136OSM     NF14777   5.431   5.884   6.202 -0.1550  0.8731 -0.1058
  136OSM    HNF14778   5.459   5.975   6.172  1.6510  1.0102  1.7873
  136OSM    C2S14779   5.329   5.871   6.299 -0.5090 -0.7380  0.4605
  136OSM    H2S14780   5.279   5.772   6.287  0.1378 -1.2730  1.9546
  136OSM    C3S14781   5.222   5.988   6.306 -0.1280  0.1489  0.3545
  136OSM    H3S14782   5.270   6.083   6.338  0.1589  0.0043  0.3581
  136OSM     O314783   5.121   5.975   6.408 -0.1791  0.2840 -0.3044
  136OSM    HO314784   5.161   5.921   6.476  0.2983  1.6890  0.5708
  136OSM    C4S14785   5.165   6.018   6.161  0.1467 -0.5491 -0.3187
  136OSM    H4S14786   5.196   6.113   6.117  3.1215 -0.1302  2.3372
  136OSM    C5S14787   5.070   5.943   6.098  0.6286 -0.3650 -0.5737
  136OSM    H5S14788   5.045   5.850   6.150 -1.6317 -0.1599 -1.1772
  136OSM    C6S14789   4.994   5.973   5.969  0.0473 -0.4727  0.0953
  136OSM    H6S14790   4.904   6.027   6.005  0.3412  0.2392 -0.2330
  136OSM    H6T14791   4.956   5.882   5.916  1.0955 -1.8832  1.6564
  136OSM    C7S14792   5.078   6.051   5.867  0.1043 -0.2240 -0.7404
  136OSM    H7S14793   5.179   6.007   5.852  0.5765  0.7020 -0.3162
  136OSM    H7T14794   5.098   6.153   5.906  1.0903 -0.6937  0.0234
  136OSM    C8S14795   5.007   6.073   5.735  0.6376  0.9399  0.1550
  136OSM    H8S14796   4.909   6.121   5.758  0.1112  0.9638 -1.9665
  136OSM    H8T14797   4.982   5.976   5.686  1.7019  0.8424 -0.2328
  136OSM    C9S14798   5.080   6.162   5.632 -0.1432 -0.0798  0.2809
  136OSM    H9S14799   5.179   6.119   5.605 -0.2793  0.6145 -1.4495
  136OSM    H9T14800   5.102   6.261   5.675 -2.6171 -0.1000  1.7995
  136OSM   C10S14801   4.986   6.196   5.511 -0.5295  0.0189 -0.3961
  136OSM   H10S14802   4.902   6.262   5.540  0.5570  1.1519  0.2532
  136OSM   H10T14803   4.939   6.106   5.466 -2.4175  0.7119  0.0879
  136OSM   C11S14804   5.056   6.265   5.394 -0.1397 -0.1664  0.4773
  136OSM   H11S14805   5.143   6.204   5.360 -0.3795 -0.9021  1.1474
  136OSM   H11T14806   5.081   6.372   5.410  0.7920  0.4061 -3.7723
  136OSM   C12S14807   4.957   6.262   5.270 -0.4839  0.8678  0.3544
  136OSM   H12S14808   4.867   6.326   5.285  1.0264  2.5668  2.8906
  136OSM   H12T14809   4.909   6.162   5.259  1.4263 -0.0423 -0.1266
  136OSM   C13S14810   5.033   6.304   5.142  0.0784 -0.3125 -0.6954
  136OSM   H13S14811   5.108   6.222   5.134 -1.0938 -1.7379  1.7654
  136OSM   H13T14812   5.070   6.407   5.154  0.8023 -0.6371 -0.0831
  136OSM   C14S14813   4.951   6.309   5.011  0.1256 -0.4306 -0.5363
  136OSM   H14S14814   4.867   6.382   5.018  0.0119 -0.7248  3.7027
  136OSM   H14T14815   4.893   6.214   5.005 -0.2960 -0.2906  0.9056
  136OSM   C15S14816   5.032   6.353   4.898 -0.2230 -0.4376  0.1463
  136OSM   H15S14817   5.120   6.287   4.881 -0.2425 -0.1300 -1.2904
  136OSM   H15T14818   5.079   6.453   4.914 -0.6421 -0.1228 -0.5439
  136OSM   C16S14819   4.960   6.361   4.765  0.2433 -0.3777  0.2988
  136OSM   H16S14820   4.876   6.432   4.780  0.0674 -0.9238  2.0311
  136OSM   H16T14821   4.912   6.261   4.754  1.6916 -1.0636  0.0084
  136OSM   C17S14822   5.047   6.388   4.642 -0.0913 -0.7099  0.1587
  136OSM   H17S14823   5.103   6.483   4.653  0.2190 -0.9287  0.4834
  136OSM   H17T14824   4.984   6.401   4.551 -1.3947 -2.0613  0.8132
  136OSM   C18S14825   5.148   6.274   4.614 -0.0480  0.0529 -0.1804
  136OSM   H18S14826   5.172   6.275   4.505 -0.6700 -2.1907 -0.3911
  136OSM   H18T14827   5.089   6.183   4.638 -0.1160  0.8326  3.0962
  136OSM   H18U14828   5.238   6.284   4.679 -0.0107 -2.8106  0.3514
  136OSM    C1F14829   5.508   5.777   6.178  0.0013  0.2049  0.8431
  136OSM     OF14830   5.476   5.660   6.202  0.0816 -0.1395 -0.0632
  136OSM    C2F14831   5.644   5.807   6.124  0.3285 -0.1537  0.3718
  136OSM    H2F14832   5.718   5.779   6.201  1.9023  1.0090 -0.6529
  136OSM    H2G14833   5.662   5.915   6.105 -0.9968  0.5941  2.9190
  136OSM    C3F14834   5.671   5.726   5.990 -0.5780  0.1205 -0.3423
  136OSM    H3F14835   5.591   5.742   5.914 -1.4351  0.7039  0.6459
  136OSM    H3G14836   5.679   5.616   6.002  0.5618  0.2177 -0.0855
  136OSM    C4F14837   5.804   5.776   5.931  0.7150  0.6373 -0.1741
  136OSM    H4F14838   5.886   5.771   6.006 -1.0750 -3.1723  1.8196
  136OSM    H4G14839   5.803   5.885   5.906  0.8237  0.7464  0.2893
  136OSM    C5F14840   5.844   5.692   5.809 -0.2381  0.5574 -1.1556
  136OSM    H5F14841   5.750   5.658   5.760 -1.1113  1.4333 -0.1442
  136OSM    H5G14842   5.894   5.598   5.842 -1.9501  0.1633  0.5283
  136OSM    C6F14843   5.928   5.781   5.711 -0.0769 -0.2786 -0.0010
  136OSM    H6F14844   6.025   5.808   5.756 -0.9978 -1.2958  2.7923
  136OSM    H6G14845   5.869   5.873   5.692 -0.2404 -0.2549  0.5947
  136OSM    C7F14846   5.960   5.719   5.573  0.4237  0.0405  0.3540
  136OSM    H7F14847   6.029   5.636   5.597 -0.3263 -0.8047 -0.3452
  136OSM    H7G14848   6.019   5.794   5.516  0.0711 -0.0353 -0.1179
  136OSM    C8F14849   5.841   5.670   5.485 -0.2706  0.0117 -0.4943
  136OSM    H8F14850   5.771   5.603   5.540 -0.0552 -0.5624 -0.9233
  136OSM    H8G14851   5.886   5.612   5.403 -0.3880  1.5796 -1.7252
  136OSM    C9F14852   5.760   5.777   5.428  0.0765 -0.1785  0.4432
  136OSM    H9F14853   5.697   5.828   5.502 -1.5385  0.6652 -1.4052
  136OSM   C10F14854   5.759   5.818   5.301  0.1748 -0.3086  0.0309
  136OSM   H10F14855   5.698   5.906   5.280 -0.3003 -0.4319  0.8851
  136OSM   C11F14856   5.838   5.755   5.188 -0.1669 -0.0074 -0.0842
  136OSM   H11F14857   5.885   5.659   5.218 -1.9134 -0.5344  1.0638
  136OSM   H11G14858   5.916   5.830   5.161  0.4271 -0.5259  0.1485
  136OSM   C12F14859   5.752   5.731   5.063  0.3060  0.6196  0.1812
  136OSM   H12F14860   5.657   5.682   5.093  0.1632  0.5587 -0.3536
  136OSM   H12G14861   5.809   5.665   4.994 -0.0073 -0.5375  1.0050
  136OSM   C13F14862   5.715   5.865   4.993  0.1776  0.4974 -0.1938
  136OSM   H13F14863   5.808   5.922   4.976  1.2312 -0.6126  1.6253
  136OSM   H13G14864   5.651   5.926   5.060  0.2150 -0.8377  1.1079
  136OSM   C14F14865   5.643   5.852   4.855 -0.1076 -0.0347 -0.8429
  136OSM   H14F14866   5.537   5.832   4.882 -0.0448 -1.6661 -1.6833
  136OSM   H14G14867   5.695   5.766   4.808  0.2902 -0.2994  0.0789
  136OSM   C15F14868   5.666   5.979   4.768  0.0815  0.0828  0.1363
  136OSM   H15F14869   5.775   5.987   4.748 -0.2069 -0.6701 -2.0523
  136OSM   H15G14870   5.646   6.075   4.819  2.5542  1.4128 -1.2112
  136OSM   C16F14871   5.590   5.979   4.639 -0.2912 -0.0717  0.5027
  136OSM   H16F14872   5.483   5.982   4.665 -0.6080  0.2696 -0.7440
  136OSM   H16G14873   5.614   5.886   4.583  2.4955 -0.1186  1.6029
  136OSM   C17F14874   5.621   6.107   4.552 -0.1401  0.1722 -0.1241
  136OSM   H17F14875   5.731   6.110   4.542 -0.0670 -1.9540 -0.4678
  136OSM   H17G14876   5.592   6.199   4.608  1.1360  0.6387 -0.1984
  136OSM   C18F14877   5.570   6.106   4.405 -0.3528 -0.2354 -0.5380
  136OSM   H18F14878   5.464   6.137   4.418 -0.7564 -2.3375  2.1072
  136OSM   H18G14879   5.572   6.004   4.361  0.3803 -0.1233 -0.7746
  136OSM   H18H14880   5.627   6.176   4.340 -0.6553 -0.4917 -1.0939
  137OSM      N14881   2.096   6.348   6.957  0.4307  0.3664  0.1837
  137OSM    C1514882   1.987   6.278   7.030 -0.1404 -1.3687 -0.5356
  137OSM   H15A14883   1.892   6.284   6.979 -0.1277 -0.2886 -0.4506
  137OSM   H15B14884   1.973   6.316   7.130  3.0742 -0.0025 -0.4718
  137OSM   H15C14885   2.000   6.171   7.026  0.2279 -1.2793 -2.9175
  137OSM    C1414886   2.069   6.494   6.954  0.1318  0.4746 -0.5434
  137OSM   H14A14887   2.164   6.539   6.929 -0.1884  1.2582 -0.3589
  137OSM   H14B14888   2.048   6.529   7.053 -2.1159  1.0443 -1.1746
  137OSM   H14C14889   1.986   6.521   6.890  0.4041 -2.0900 -2.1281
  137OSM    C1314890   2.227   6.321   7.032  0.1173 -0.1714 -1.1617
  137OSM   H13A14891   2.306   6.373   6.981  0.7265 -1.6819 -1.8288
  137OSM   H13B14892   2.249   6.215   7.023  1.6479 -0.0081  0.3310
  137OSM   H13C14893   2.224   6.343   7.137 -4.1685  1.3510 -1.4113
  137OSM    C1214894   2.122   6.300   6.814  0.8495  0.0304 -0.4073
  137OSM   H12A14895   2.162   6.200   6.822  2.0995  0.5632  0.2886
  137OSM   H12B14896   2.189   6.365   6.760  1.9447 -1.4675 -0.9143
  137OSM    C1114897   1.989   6.300   6.734  0.0931 -0.0735  0.5997
  137OSM   H11A14898   2.014   6.250   6.638 -0.1450  2.8769 -1.1191
  137OSM   H11B14899   1.964   6.405   6.709 -0.7099  0.1493  2.2135
  137OSM      P14900   1.728   6.306   6.783  0.4940  0.2591 -0.0753
  137OSM    O1314901   1.637   6.217   6.855  0.8602 -0.0492  0.5760
  137OSM    O1414902   1.719   6.447   6.825 -0.1673 -0.1782  0.0880
  137OSM    O1114903   1.696   6.301   6.630  0.4448  0.8780  0.3904
  137OSM    O1214904   1.874   6.245   6.792 -0.1238 -0.1543 -0.0194
  137OSM    C1S14905   1.634   6.186   6.575 -0.0653  0.8884  0.1284
  137OSM    H1S14906   1.536   6.165   6.623  0.7648 -0.8809  1.1736
  137OSM    H1T14907   1.697   6.098   6.600  1.9520  2.2155 -0.1107
  137OSM     NF14908   1.519   6.119   6.382  0.1834  0.0572 -0.1935
  137OSM    HNF14909   1.557   6.040   6.334  0.0129 -1.4347  2.0182
  137OSM    C2S14910   1.611   6.215   6.428 -0.2690  0.4691  0.9545
  137OSM    H2S14911   1.565   6.308   6.389 -1.8015 -1.6143 -2.8126
  137OSM    C3S14912   1.750   6.199   6.362  1.0861  0.4646  0.0926
  137OSM    H3S14913   1.776   6.091   6.364 -3.4636 -0.8153  0.8891
  137OSM     O314914   1.851   6.268   6.436  0.1429 -0.2458  0.1830
  137OSM    HO314915   1.815   6.271   6.524  1.5721 -2.1936  0.9128
  137OSM    C4S14916   1.739   6.239   6.215  0.1337  0.4916 -0.1734
  137OSM    H4S14917   1.714   6.149   6.157 -0.5638 -0.5506  1.6528
  137OSM    C5S14918   1.761   6.362   6.154 -0.0528  0.3790 -0.3364
  137OSM    H5S14919   1.797   6.441   6.221  1.7439  1.0801 -2.0256
  137OSM    C6S14920   1.741   6.399   6.010 -0.1336  0.5286  0.2568
  137OSM    H6S14921   1.841   6.423   5.967 -0.0305 -0.8668 -0.3357
  137OSM    H6T14922   1.672   6.485   6.012 -1.6977 -0.6594 -0.5374
  137OSM    C7S14923   1.688   6.298   5.912 -0.6979  0.1016 -0.1194
  137OSM    H7S14924   1.590   6.271   5.954  0.2326 -1.3687  1.2158
  137OSM    H7T14925   1.751   6.207   5.926 -1.3607 -0.2978  0.3122
  137OSM    C8S14926   1.663   6.355   5.769 -0.0982  0.2335  0.2844
  137OSM    H8S14927   1.764   6.391   5.743 -0.3372  0.8457  0.1853
  137OSM    H8T14928   1.595   6.443   5.773 -2.0856 -1.1555 -0.6956
  137OSM    C9S14929   1.619   6.262   5.659  0.1852  0.2876  0.5365
  137OSM    H9S14930   1.510   6.247   5.670 -0.2083  1.8860 -0.8547
  137OSM    H9T14931   1.678   6.169   5.676 -2.9970 -1.6678  1.6678
  137OSM   C10S14932   1.645   6.323   5.520  0.5260  0.5564 -0.2522
  137OSM   H10S14933   1.748   6.361   5.499  0.4239  0.1605 -1.5712
  137OSM   H10T14934   1.581   6.414   5.516 -0.3899 -0.0380  0.4536
  137OSM   C11S14935   1.599   6.218   5.421  0.3489 -0.5693  0.4578
  137OSM   H11S14936   1.489   6.234   5.422  0.1383 -1.9210  0.2397
  137OSM   H11T14937   1.616   6.112   5.450  1.5482 -0.9855 -1.6016
  137OSM   C12S14938   1.640   6.244   5.274 -0.5036  0.9755 -0.2723
  137OSM   H12S14939   1.750   6.233   5.256 -0.3772  1.1923  0.3605
  137OSM   H12T14940   1.623   6.352   5.255  2.4533  1.3981 -1.0418
  137OSM   C13S14941   1.562   6.162   5.165  0.3217  0.1922  0.0503
  137OSM   H13S14942   1.462   6.209   5.159 -0.9206 -2.1838  0.9815
  137OSM   H13T14943   1.541   6.061   5.206  1.3496  0.6749  1.9075
  137OSM   C14S14944   1.625   6.164   5.025 -0.9283 -0.7659 -0.3333
  137OSM   H14S14945   1.734   6.160   5.043 -1.3928 -0.7456  3.2361
  137OSM   H14T14946   1.601   6.267   4.992 -0.5623 -0.9311 -1.1124
  137OSM   C15S14947   1.588   6.044   4.945  0.3788  0.1613  0.0404
  137OSM   H15S14948   1.624   5.962   5.010  1.0303  2.1832  2.3598
  137OSM   H15T14949   1.641   6.027   4.848 -0.9762  1.0425 -0.8817
  137OSM   C16S14950   1.440   6.024   4.912 -0.1606  0.2695  0.7030
  137OSM   H16S14951   1.378   6.115   4.898 -0.2656  0.5303  2.6492
  137OSM   H16T14952   1.388   5.982   5.001 -0.3219 -0.9906  0.0417
  137OSM   C17S14953   1.422   5.939   4.781 -0.4854  0.0192  0.5622
  137OSM   H17S14954   1.313   5.918   4.767 -0.6988  1.0616  0.5917
  137OSM   H17T14955   1.473   5.841   4.796 -1.5140 -0.4586  1.0447
  137OSM   C18S14956   1.477   5.999   4.644  0.2155  0.3398  0.1789
  137OSM   H18S14957   1.452   5.921   4.570 -1.1330  1.8002 -0.9784
  137OSM   H18T14958   1.588   6.009   4.643  0.4626 -1.9019  0.5566
  137OSM   H18U14959   1.423   6.090   4.609  1.0436  0.5864 -0.5203
  137OSM    C1F14960   1.386   6.126   6.403  0.3528 -0.8084 -1.0116
  137OSM     OF14961   1.332   6.234   6.438 -1.1165 -0.3310 -0.0290
  137OSM    C2F14962   1.314   5.990   6.395  0.6285 -0.1617  0.4001
  137OSM    H2F14963   1.319   5.942   6.495  0.3513  0.0005  0.4909
  137OSM    H2G14964   1.355   5.926   6.313 -1.3852 -1.1870  0.1246
  137OSM    C3F14965   1.165   6.012   6.372  0.3609  0.0805  0.0560
  137OSM    H3F14966   1.151   6.089   6.294  0.4492 -1.2388 -1.3173
  137OSM    H3G14967   1.130   6.054   6.468  2.0144  1.2525  0.1810
  137OSM    C4F14968   1.097   5.877   6.337  0.0203  0.5021  0.1485
  137OSM    H4F14969   1.104   5.826   6.436  0.1860  1.4398  0.6263
  137OSM    H4G14970   1.164   5.821   6.269 -0.6090  1.2433 -1.1131
  137OSM    C5F14971   0.954   5.865   6.276 -0.6052  1.0214  0.0820
  137OSM    H5F14972   0.872   5.893   6.345 -0.1464  0.4969  0.8592
  137OSM    H5G14973   0.935   5.761   6.243 -1.6060  0.9433  0.8465
  137OSM    C6F14974   0.961   5.961   6.154 -0.1067 -0.2823  0.3596
  137OSM    H6F14975   1.058   5.950   6.102  0.4930  1.6163  1.0023
  137OSM    H6G14976   0.962   6.057   6.209 -0.9426  0.3806 -0.7596
  137OSM    C7F14977   0.837   5.966   6.065  0.1136  0.0259  0.1190
  137OSM    H7F14978   0.752   5.912   6.111  0.6089 -2.1459 -1.3765
  137OSM    H7G14979   0.855   5.906   5.973 -1.7771 -2.1216  1.0873
  137OSM    C8F14980   0.796   6.107   6.013  0.5376  0.2941  0.1985
  137OSM    H8F14981   0.880   6.140   5.949  1.9333 -1.4163  1.0754
  137OSM    H8G14982   0.776   6.181   6.094  1.3658 -1.6679  2.2973
  137OSM    C9F14983   0.672   6.088   5.931 -1.0295 -0.3427 -0.0248
  137OSM    H9F14984   0.585   6.068   5.995 -0.6691  0.1367  0.6283
  137OSM   C10F14985   0.665   6.108   5.800  0.2669  0.2050 -0.5445
  137OSM   H10F14986   0.565   6.098   5.754 -0.0311  0.2525  0.0786
  137OSM   C11F14987   0.775   6.134   5.705 -0.4718  0.2670 -0.8371
  137OSM   H11F14988   0.867   6.084   5.744 -0.6660  1.4483  1.2768
  137OSM   H11G14989   0.794   6.243   5.697  1.2540 -0.0097 -1.1101
  137OSM   C12F14990   0.746   6.067   5.567 -0.4115  0.0857 -0.6695
  137OSM   H12F14991   0.698   5.967   5.576 -0.6014  0.0613 -1.7630
  137OSM   H12G14992   0.847   6.045   5.527 -0.6565 -0.3954 -1.0263
  137OSM   C13F14993   0.667   6.156   5.478  0.0298 -0.1038 -0.1268
  137OSM   H13F14994   0.715   6.256   5.475  2.9904 -1.4354 -2.6050
  137OSM   H13G14995   0.564   6.166   5.519  0.2779  0.4273  0.3719
  137OSM   C14F14996   0.661   6.098   5.332  1.2522  0.6196  0.4427
  137OSM   H14F14997   0.598   6.008   5.320  0.5710  0.9510  1.4144
  137OSM   H14G14998   0.762   6.064   5.304  0.2234 -0.4704 -2.2536
  137OSM   C15F14999   0.606   6.196   5.225 -0.3361 -0.6205 -0.3299
  137OSM   H15F15000   0.650   6.298   5.235  0.9026 -1.0715 -0.9928
  137OSM   H15G15001   0.496   6.205   5.235 -0.2406 -0.0504  0.3386
  137OSM   C16F15002   0.635   6.145   5.078 -0.0906  0.5314  0.3197
  137OSM   H16F15003   0.615   6.036   5.085  1.6661  0.0777 -1.0480
  137OSM   H16G15004   0.742   6.158   5.052 -0.4615 -1.4440 -2.6381
  137OSM   C17F15005   0.542   6.191   4.964 -0.0572  0.4815 -0.2448
  137OSM   H17F15006   0.438   6.179   5.000 -0.2981  1.2571 -0.6529
  137OSM   H17G15007   0.556   6.131   4.871 -2.4014 -0.0567 -0.3058
  137OSM   C18F15008   0.562   6.339   4.944  0.2862  0.4655 -0.0820
  137OSM   H18F15009   0.502   6.386   4.863 -1.3864 -0.3218  0.6444
  137OSM   H18G15010   0.668   6.370   4.930 -0.2712  2.5026 -0.2340
  137OSM   H18H15011   0.523   6.384   5.038  1.2142 -1.8512  1.4861
  138OSM      N15012   4.084   4.147   6.758 -0.1967 -0.5429 -0.0124
  138OSM    C1515013   3.940   4.126   6.761  0.5082  0.9201  0.0150
  138OSM   H15A15014   3.907   4.156   6.860 -0.1844 -1.6690  0.6660
  138OSM   H15B15015   3.905   4.025   6.746  0.2384  0.5259  2.7249
  138OSM   H15C15016   3.898   4.189   6.685  1.2081 -0.9217 -1.9998
  138OSM    C1415017   4.101   4.297   6.746  0.1998 -0.7892  0.1020
  138OSM   H14A15018   4.204   4.330   6.738  0.6155 -1.3738  2.3918
  138OSM   H14B15019   4.037   4.345   6.818 -0.8155  0.5445 -1.6004
  138OSM   H14C15020   4.057   4.322   6.650 -0.5007  1.5356  0.9529
  138OSM    C1315021   4.144   4.112   6.888 -0.4646 -0.4944 -0.8036
  138OSM   H13A15022   4.138   4.007   6.915 -0.4968  0.1217  1.8513
  138OSM   H13B15023   4.089   4.171   6.959 -0.6845 -0.6832 -0.8146
  138OSM   H13C15024   4.246   4.146   6.896 -1.5213  2.7377  0.3090
  138OSM    C1215025   4.141   4.078   6.635 -0.5027 -0.3326 -0.3630
  138OSM   H12A15026   4.083   4.126   6.557 -0.0562 -0.0020 -0.5001
  138OSM   H12B15027   4.111   3.975   6.632 -1.7063 -0.0156  0.2385
  138OSM    C1115028   4.298   4.088   6.615  0.5977 -0.1401 -0.2639
  138OSM   H11A15029   4.332   4.192   6.637  2.1090 -0.6896  0.1500
  138OSM   H11B15030   4.329   4.073   6.510  0.1109  0.1673 -0.4546
  138OSM      P15031   4.494   4.030   6.783  0.5458 -0.2896 -0.4507
  138OSM    O1315032   4.446   4.116   6.900  0.3919  0.0987  0.6412
  138OSM    O1415033   4.563   3.905   6.815 -0.4478  0.7257  0.1742
  138OSM    O1115034   4.592   4.122   6.702  0.0352  0.7696  0.2150
  138OSM    O1215035   4.370   3.984   6.686 -0.0526  0.2194  0.2734
  138OSM    C1S15036   4.642   4.086   6.573  0.0839 -0.6478 -0.1047
  138OSM    H1S15037   4.603   3.990   6.531 -0.1417 -0.8484  0.5459
  138OSM    H1T15038   4.753   4.089   6.580  0.0085  1.8614  0.8950
  138OSM     NF15039   4.647   4.156   6.337  0.0915  0.5657 -0.1665
  138OSM    HNF15040   4.736   4.193   6.311  1.1470 -2.6206 -1.6695
  138OSM    C2S15041   4.600   4.195   6.461  0.4802 -0.2799 -0.3189
  138OSM    H2S15042   4.489   4.205   6.456  0.4364 -0.8609 -0.5551
  138OSM    C3S15043   4.654   4.339   6.502  0.3442 -0.3109  1.1582
  138OSM    H3S15044   4.764   4.329   6.514  0.8817  0.8616 -1.8949
  138OSM     O315045   4.603   4.396   6.622  0.1288 -0.4461 -0.0456
  138OSM    HO315046   4.558   4.318   6.655  1.1518 -1.3941 -0.8335
  138OSM    C4S15047   4.634   4.430   6.380  0.0280  0.4078 -0.0412
  138OSM    H4S15048   4.534   4.422   6.335 -0.7191  1.0110  1.4439
  138OSM    C5S15049   4.722   4.509   6.320  0.7201  0.0249  0.7770
  138OSM    H5S15050   4.825   4.513   6.360  0.3083 -1.3380  2.0733
  138OSM    C6S15051   4.698   4.590   6.191  0.3450  0.3654 -0.1808
  138OSM    H6S15052   4.742   4.692   6.199 -0.4808  0.8289 -1.2159
  138OSM    H6T15053   4.591   4.612   6.169  0.5832  2.1788  0.2656
  138OSM    C7S15054   4.771   4.538   6.070 -0.2928 -0.1735 -0.0532
  138OSM    H7S15055   4.722   4.445   6.035  1.3333 -1.6210  1.3523
  138OSM    H7T15056   4.878   4.519   6.095 -0.3339 -0.4013 -0.0476
  138OSM    C8S15057   4.783   4.643   5.956  0.1318  0.2409  0.3629
  138OSM    H8S15058   4.832   4.731   6.003  0.0963 -0.6757  2.1850
  138OSM    H8T15059   4.679   4.671   5.929  0.0908 -1.0782 -0.9418
  138OSM    C9S15060   4.839   4.592   5.823 -0.3025  0.7906 -0.1115
  138OSM    H9S15061   4.795   4.495   5.792  1.9991 -0.8503  1.4131
  138OSM    H9T15062   4.947   4.569   5.835 -0.8010 -0.5921  2.6662
  138OSM   C10S15063   4.831   4.684   5.702  0.7229  0.2747 -0.5505
  138OSM   H10S15064   4.897   4.771   5.722  1.1991 -0.2256  0.1105
  138OSM   H10T15065   4.728   4.725   5.695  0.1850 -0.7698  0.8816
  138OSM   C11S15066   4.866   4.605   5.574  0.3086 -0.3178  0.4218
  138OSM   H11S15067   4.819   4.504   5.572  0.5507 -0.4370 -1.2818
  138OSM   H11T15068   4.976   4.593   5.585  0.3352 -0.8316 -0.2975
  138OSM   C12S15069   4.831   4.684   5.445  0.2745 -0.4440 -0.4280
  138OSM   H12S15070   4.868   4.789   5.453 -2.0209  0.4753 -1.1523
  138OSM   H12T15071   4.723   4.699   5.427  0.2749  2.4412  1.2245
  138OSM   C13S15072   4.901   4.638   5.308  0.2100  0.3861 -0.0662
  138OSM   H13S15073   4.850   4.551   5.262  2.5412  0.5645 -3.4197
  138OSM   H13T15074   5.000   4.595   5.334 -0.1488 -0.4875 -0.1152
  138OSM   C14S15075   4.912   4.753   5.201 -0.0173  0.1001 -0.5590
  138OSM   H14S15076   4.981   4.716   5.122  1.3892  1.0837  0.1563
  138OSM   H14T15077   4.955   4.848   5.239 -0.4386  0.4853 -1.0467
  138OSM   C15S15078   4.770   4.799   5.146 -0.2165  0.0805 -1.0286
  138OSM   H15S15079   4.719   4.854   5.228 -2.0922  0.8110 -2.6137
  138OSM   H15T15080   4.706   4.712   5.120 -0.5222 -1.0176  2.8266
  138OSM   C16S15081   4.800   4.892   5.024  0.4380  0.5969  0.3446
  138OSM   H16S15082   4.874   4.964   5.063  0.0260 -0.1528  2.6851
  138OSM   H16T15083   4.700   4.932   4.998  0.3742 -1.0243 -2.3240
  138OSM   C17S15084   4.861   4.822   4.904 -0.0827  0.9450 -0.4677
  138OSM   H17S15085   4.966   4.792   4.926 -0.4302 -2.3613 -2.5783
  138OSM   H17T15086   4.867   4.900   4.825 -1.4274 -0.2863 -1.8344
  138OSM   C18S15087   4.786   4.690   4.861 -0.2911 -0.0811 -0.3689
  138OSM   H18S15088   4.820   4.608   4.928 -2.0394 -0.1004  0.5635
  138OSM   H18T15089   4.804   4.665   4.754 -0.6711  0.9192 -0.6772
  138OSM   H18U15090   4.678   4.699   4.885  0.5438 -0.6912  4.6768
  138OSM    C1F15091   4.596   4.061   6.265  0.0989  1.0703  0.4257
  138OSM     OF15092   4.522   3.972   6.311 -0.3792  0.2852  0.5630
  138OSM    C2F15093   4.626   4.062   6.121  0.1078 -0.5749  0.2919
  138OSM    H2F15094   4.710   3.989   6.109  0.7540  0.6103 -3.6719
  138OSM    H2G15095   4.665   4.161   6.089 -1.7411 -0.7775 -3.0152
  138OSM    C3F15096   4.511   4.010   6.028  0.4337  0.6874 -0.6891
  138OSM    H3F15097   4.433   4.088   6.039 -0.0494  0.2201 -0.7706
  138OSM    H3G15098   4.466   3.919   6.073  0.5831  1.2738  0.7220
  138OSM    C4F15099   4.550   3.995   5.885  0.4067  0.0096  0.8678
  138OSM    H4F15100   4.465   3.960   5.822  0.3641  4.4883 -2.0298
  138OSM    H4G15101   4.634   3.927   5.860 -0.4398 -0.1427 -1.9835
  138OSM    C5F15102   4.599   4.126   5.812  0.0916  0.0366 -0.0088
  138OSM    H5F15103   4.690   4.163   5.863  0.1260  0.5397 -0.4286
  138OSM    H5G15104   4.527   4.207   5.833  0.7265  1.0976 -1.6647
  138OSM    C6F15105   4.632   4.117   5.661  0.3761  0.1244 -0.3365
  138OSM    H6F15106   4.668   4.015   5.634  2.1949  0.4907  0.6156
  138OSM    H6G15107   4.708   4.194   5.636  2.3105 -1.3228  0.7736
  138OSM    C7F15108   4.513   4.156   5.566  0.0348  0.0219 -0.5043
  138OSM    H7F15109   4.499   4.266   5.573  0.5047 -0.0189  3.3300
  138OSM    H7G15110   4.419   4.119   5.614 -1.4418 -0.1326 -3.2887
  138OSM    C8F15111   4.531   4.098   5.428  0.3145  0.8408  0.2131
  138OSM    H8F15112   4.538   3.987   5.440 -0.1420  0.5648 -1.7563
  138OSM    H8G15113   4.616   4.146   5.376 -1.3560  1.2482 -2.3048
  138OSM    C9F15114   4.409   4.131   5.345 -0.8713 -0.0548  0.1577
  138OSM    H9F15115   4.333   4.055   5.321 -0.2780 -0.6125  0.0429
  138OSM   C10F15116   4.393   4.248   5.284 -0.3530 -0.2590  0.1107
  138OSM   H10F15117   4.309   4.252   5.214  1.2002 -0.8377 -1.8912
  138OSM   C11F15118   4.487   4.367   5.286  0.3570  0.2672  0.7245
  138OSM   H11F15119   4.578   4.351   5.347 -0.9207 -3.0042  2.0233
  138OSM   H11G15120   4.431   4.446   5.341  0.3595  0.1889  0.8388
  138OSM   C12F15121   4.536   4.411   5.148  0.5960 -0.3461 -0.6989
  138OSM   H12F15122   4.608   4.495   5.154  2.5304 -1.8076 -2.2994
  138OSM   H12G15123   4.455   4.455   5.086  0.8161  0.5977 -0.3380
  138OSM   C13F15124   4.585   4.297   5.053  0.3354 -0.3259  0.0892
  138OSM   H13F15125   4.501   4.226   5.034 -0.8365  0.3818  2.3257
  138OSM   H13G15126   4.653   4.232   5.112  0.2187 -0.9410 -0.4431
  138OSM   C14F15127   4.667   4.347   4.924  0.1561 -0.4439 -0.3685
  138OSM   H14F15128   4.756   4.393   4.973  0.9152 -0.5674 -1.6057
  138OSM   H14G15129   4.608   4.429   4.877 -1.8146 -2.3656 -1.3982
  138OSM   C15F15130   4.692   4.228   4.823  0.1531 -0.7066 -0.4818
  138OSM   H15F15131   4.602   4.200   4.763 -0.9390  1.7792 -0.1612
  138OSM   H15G15132   4.708   4.139   4.886 -2.5834 -1.7200 -1.0667
  138OSM   C16F15133   4.813   4.268   4.728  0.6179 -0.8995 -0.0915
  138OSM   H16F15134   4.867   4.179   4.689 -1.0458 -1.3322 -1.5791
  138OSM   H16G15135   4.880   4.319   4.800 -1.7329 -0.9068  2.2808
  138OSM   C17F15136   4.747   4.365   4.621 -0.3954  0.1708  0.0165
  138OSM   H17F15137   4.690   4.440   4.681  1.3329  0.2184  1.7033
  138OSM   H17G15138   4.687   4.305   4.550 -1.5805  0.3172  0.8734
  138OSM   C18F15139   4.856   4.427   4.538 -0.1622  0.3026 -0.1747
  138OSM   H18F15140   4.917   4.489   4.608  0.4267  0.8350 -1.1249
  138OSM   H18G15141   4.823   4.489   4.452 -0.6300 -0.1670 -0.3353
  138OSM   H18H15142   4.931   4.354   4.500  2.8005  2.4734  1.0745
  139OSM      N15143   6.803   1.554   7.127  0.2486  0.3769 -0.1822
  139OSM    C1515144   6.928   1.470   7.108 -0.4002  0.3248  0.0638
  139OSM   H15A15145   6.927   1.425   7.010 -0.7327  3.9699 -1.8029
  139OSM   H15B15146   6.948   1.401   7.188  1.7461 -0.4583 -1.0538
  139OSM   H15C15147   7.013   1.538   7.107  0.2124 -0.4243 -0.3129
  139OSM    C1415148   6.697   1.459   7.157 -0.4374  0.3153  0.0337
  139OSM   H14A15149   6.674   1.399   7.071 -1.2594 -2.1983  1.8829
  139OSM   H14B15150   6.614   1.511   7.203 -1.3563 -1.8562  0.9842
  139OSM   H14C15151   6.732   1.392   7.235  0.6396  0.1722 -0.5529
  139OSM    C1315152   6.820   1.641   7.246  0.1039 -0.4601  0.9209
  139OSM   H13A15153   6.848   1.583   7.333 -1.2065 -0.6200  1.2569
  139OSM   H13B15154   6.727   1.690   7.271 -0.7118 -1.7057  0.4519
  139OSM   H13C15155   6.903   1.708   7.233  0.9339 -1.5075  0.6657
  139OSM    C1215156   6.765   1.638   7.005  0.0331 -0.2934  0.8104
  139OSM   H12A15157   6.665   1.673   7.025  0.1802 -0.4072  1.8011
  139OSM   H12B15158   6.755   1.568   6.923 -0.1003  1.3882 -0.6772
  139OSM    C1115159   6.841   1.760   6.959 -0.1870  0.9614  0.5047
  139OSM   H11A15160   6.850   1.833   7.043 -0.8656 -0.7823  2.1617
  139OSM   H11B15161   6.786   1.806   6.874  0.5481  1.7700  0.4553
  139OSM      P15162   7.105   1.781   6.923  0.5803  0.0510 -0.1901
  139OSM    O1315163   7.117   1.884   7.033  0.0737 -0.8750 -0.3602
  139OSM    O1415164   7.211   1.674   6.937  0.1553  0.3942 -0.6707
  139OSM    O1115165   7.130   1.841   6.781  0.2762  0.3155  0.3147
  139OSM    O1215166   6.963   1.714   6.913  0.3275 -0.3824 -0.5074
  139OSM    C1S15167   7.039   1.931   6.718 -0.3322 -0.5292  0.0969
  139OSM    H1S15168   7.063   2.033   6.755  1.6995 -0.5250 -1.0589
  139OSM    H1T15169   6.932   1.908   6.734 -1.0543  2.4588  0.0411
  139OSM     NF15170   6.951   2.046   6.520 -0.2540 -0.6071 -0.3526
  139OSM    HNF15171   6.864   2.023   6.477  0.7194 -3.2951 -1.1332
  139OSM    C2S15172   7.047   1.940   6.564 -0.4451 -0.7225 -0.4642
  139OSM    H2S15173   7.153   1.971   6.549  0.0811 -1.7731  0.9350
  139OSM    C3S15174   7.015   1.811   6.485 -0.0203  0.3098 -0.0123
  139OSM    H3S15175   6.908   1.782   6.494  0.4601 -0.8685  3.2605
  139OSM     O315176   7.093   1.709   6.544  0.4587  0.3097  0.0215
  139OSM    HO315177   7.108   1.740   6.634  1.0800  1.7088 -0.5407
  139OSM    C4S15178   7.065   1.813   6.346  0.3057 -0.3889  0.1355
  139OSM    H4S15179   7.174   1.819   6.329  0.3169  0.1937  0.4103
  139OSM    C5S15180   6.989   1.818   6.234  0.2701 -0.0852 -0.1020
  139OSM    H5S15181   6.880   1.828   6.230  0.3275  0.1773 -1.1682
  139OSM    C6S15182   7.045   1.838   6.095 -0.6264  0.1094  0.4805
  139OSM    H6S15183   6.972   1.879   6.022 -0.6745 -0.4626  0.1937
  139OSM    H6T15184   7.071   1.738   6.054 -2.1069  0.3689 -1.2468
  139OSM    C7S15185   7.186   1.914   6.090 -0.2935 -0.2806  0.2539
  139OSM    H7S15186   7.253   1.884   6.174  0.4843  0.1232 -0.2203
  139OSM    H7T15187   7.177   2.023   6.106 -0.0687 -0.3366  0.7953
  139OSM    C8S15188   7.266   1.892   5.961  0.1205 -0.3044  0.1996
  139OSM    H8S15189   7.315   1.793   5.958  1.8248  0.3718  2.7664
  139OSM    H8T15190   7.349   1.965   5.959  0.3873 -0.5283  1.8365
  139OSM    C9S15191   7.192   1.914   5.822  0.0332  0.3606 -0.2952
  139OSM    H9S15192   7.146   2.015   5.817 -0.7650 -0.0492 -1.7262
  139OSM    H9T15193   7.113   1.836   5.816 -0.7231  1.1399 -0.8598
  139OSM   C10S15194   7.283   1.908   5.702  0.5900  0.5786  0.5593
  139OSM   H10S15195   7.338   1.813   5.711  0.2336  0.1539 -1.3439
  139OSM   H10T15196   7.362   1.986   5.705  1.4823 -0.2476 -0.8675
  139OSM   C11S15197   7.217   1.915   5.567  0.3003  1.1241  0.8276
  139OSM   H11S15198   7.148   2.002   5.573  0.6035  1.3662  0.8622
  139OSM   H11T15199   7.162   1.821   5.546  2.7267 -0.0761 -0.6706
  139OSM   C12S15200   7.304   1.920   5.438  0.4556 -0.3276 -0.8290
  139OSM   H12S15201   7.372   1.833   5.431  1.3339  0.4192 -1.9173
  139OSM   H12T15202   7.351   2.021   5.432  0.2498 -0.1270  0.5277
  139OSM   C13S15203   7.205   1.907   5.317 -0.4242  0.2374  0.4591
  139OSM   H13S15204   7.144   1.999   5.306  1.8450  1.8411  0.6074
  139OSM   H13T15205   7.150   1.811   5.327  2.7233 -1.8953 -0.9309
  139OSM   C14S15206   7.285   1.893   5.192 -0.2510  1.0111  0.0948
  139OSM   H14S15207   7.354   1.807   5.204  0.4180  1.5717  0.3523
  139OSM   H14T15208   7.343   1.987   5.181  0.4450  0.8036  1.7931
  139OSM   C15S15209   7.199   1.863   5.067  0.7831 -0.1207  0.3994
  139OSM   H15S15210   7.126   1.946   5.055  3.3841  2.5477  1.6590
  139OSM   H15T15211   7.143   1.768   5.077  1.6055 -0.6764 -0.2253
  139OSM   C16S15212   7.285   1.864   4.940 -0.1483  0.1709  0.2921
  139OSM   H16S15213   7.355   1.778   4.952  0.7517  0.5232 -1.9952
  139OSM   H16T15214   7.343   1.958   4.943  0.8988 -0.3541 -1.8734
  139OSM   C17S15215   7.205   1.838   4.810  0.5229  0.0240  0.8491
  139OSM   H17S15216   7.140   1.750   4.828 -0.6348  0.4320 -1.0311
  139OSM   H17T15217   7.271   1.809   4.725  0.7803 -0.3151  1.1619
  139OSM   C18S15218   7.104   1.954   4.766  0.0952 -1.2459  0.0347
  139OSM   H18S15219   7.153   2.035   4.710 -3.2794  0.3266 -0.8955
  139OSM   H18T15220   7.054   2.006   4.851  0.3998 -0.2583 -0.3911
  139OSM   H18U15221   7.027   1.903   4.704  2.2982 -2.3349 -1.9488
  139OSM    C1F15222   6.979   2.174   6.545 -0.4788 -0.1999  0.2054
  139OSM     OF15223   7.091   2.209   6.590 -0.8067  0.2924  0.3001
  139OSM    C2F15224   6.878   2.276   6.516 -0.5618  0.4812 -0.2407
  139OSM    H2F15225   6.889   2.366   6.579  1.3623 -1.1562  1.9050
  139OSM    H2G15226   6.782   2.227   6.544  0.4469 -1.0606  0.6847
  139OSM    C3F15227   6.863   2.315   6.367 -0.0845 -0.5727  0.5643
  139OSM    H3F15228   6.945   2.386   6.343  0.7539 -1.2250  1.4416
  139OSM    H3G15229   6.773   2.380   6.359  1.0146  0.7851 -2.5467
  139OSM    C4F15230   6.857   2.198   6.268  0.5429  0.0510  1.1692
  139OSM    H4F15231   6.776   2.126   6.293  1.2263 -0.8552  0.8346
  139OSM    H4G15232   6.952   2.142   6.278 -0.7155 -2.1386  1.4890
  139OSM    C5F15233   6.822   2.243   6.125 -0.4241  0.1684  0.4290
  139OSM    H5F15234   6.738   2.316   6.125 -1.0091 -0.4972  0.3239
  139OSM    H5G15235   6.789   2.156   6.065  0.1663  0.4754 -0.3625
  139OSM    C6F15236   6.943   2.289   6.044 -0.3798 -0.7626  0.4072
  139OSM    H6F15237   7.030   2.225   6.071  1.0800  1.0150  0.1861
  139OSM    H6G15238   6.973   2.395   6.062 -1.0244 -0.4990 -0.0473
  139OSM    C7F15239   6.921   2.270   5.900  0.3178  0.1142  0.1299
  139OSM    H7F15240   6.820   2.307   5.871  0.7484  1.5045  0.3655
  139OSM    H7G15241   6.919   2.163   5.870  0.0078  0.8370 -2.6564
  139OSM    C8F15242   7.020   2.352   5.815 -0.7525  0.2064  0.3325
  139OSM    H8F15243   7.120   2.309   5.832 -0.9890 -0.8512 -0.7892
  139OSM    H8G15244   7.016   2.455   5.858  1.4080 -0.1573  1.4998
  139OSM    C9F15245   6.976   2.348   5.667  0.3091 -0.8255 -0.2032
  139OSM    H9F15246   6.870   2.326   5.647 -0.4848  1.8032  0.6081
  139OSM   C10F15247   7.049   2.380   5.556 -0.4921 -0.2514  0.2798
  139OSM   H10F15248   7.007   2.363   5.456 -0.9871 -3.8760  0.9783
  139OSM   C11F15249   7.186   2.430   5.564 -0.6282  0.3410  0.0779
  139OSM   H11F15250   7.238   2.381   5.649 -0.9434  0.4957  0.3679
  139OSM   H11G15251   7.209   2.534   5.596  2.9102 -0.6435  1.1407
  139OSM   C12F15252   7.258   2.418   5.430 -0.3330  0.6843  0.5059
  139OSM   H12F15253   7.243   2.319   5.381 -1.8837  0.5207  1.2321
  139OSM   H12G15254   7.365   2.418   5.460 -0.2332 -1.9097  0.4268
  139OSM   C13F15255   7.234   2.533   5.328 -0.1626 -0.2414  0.0303
  139OSM   H13F15256   7.254   2.625   5.387 -2.2143  0.1900  0.1052
  139OSM   H13G15257   7.126   2.548   5.305 -0.2763  0.6749  1.0756
  139OSM   C14F15258   7.297   2.515   5.186  0.0289  0.2055  0.4955
  139OSM   H14F15259   7.400   2.556   5.186 -0.4596  1.6020 -1.5194
  139OSM   H14G15260   7.247   2.583   5.114  1.2865  1.3934  0.7008
  139OSM   C15F15261   7.280   2.376   5.131  0.2725  0.0730  0.3415
  139OSM   H15F15262   7.173   2.349   5.132  0.6321 -1.9104 -2.8559
  139OSM   H15G15263   7.333   2.306   5.199  0.6935 -0.5142 -0.5720
  139OSM   C16F15264   7.335   2.349   4.988  0.0178 -0.2151 -0.7137
  139OSM   H16F15265   7.317   2.242   4.964 -2.8424  0.8488 -4.2366
  139OSM   H16G15266   7.446   2.354   4.979  0.0350 -2.0567 -2.2842
  139OSM   C17F15267   7.269   2.420   4.875 -0.5845 -0.2101 -0.2150
  139OSM   H17F15268   7.273   2.530   4.886  1.9221 -0.4670  4.2583
  139OSM   H17G15269   7.160   2.398   4.874 -1.3397  3.1101 -2.3673
  139OSM   C18F15270   7.321   2.390   4.734  0.3033  0.3155 -0.3701
  139OSM   H18F15271   7.308   2.283   4.707 -1.0921  0.4270 -0.2123
  139OSM   H18G15272   7.426   2.420   4.713  0.0453  0.1592 -2.0234
  139OSM   H18H15273   7.253   2.445   4.666  0.9564 -1.0034 -2.1803
  140OSM      N15274   3.481   0.152   6.692  0.5536 -0.5538 -0.1309
  140OSM    C1515275   3.455   0.186   6.550 -0.3378  0.9891  0.1467
  140OSM   H15A15276   3.355   0.158   6.519  0.0120 -0.6220  0.4221
  140OSM   H15B15277   3.526   0.134   6.488 -2.1909 -2.5218  0.7520
  140OSM   H15C15278   3.450   0.293   6.537 -2.8318  1.2763  2.4965
  140OSM    C1415279   3.453   0.009   6.720  0.3219 -0.7744  0.6837
  140OSM   H14A15280   3.540  -0.039   6.678  3.1451  0.7460  4.2330
  140OSM   H14B15281   3.366  -0.026   6.667 -0.2712  1.9943 -0.3546
  140OSM   H14C15282   3.461  -0.018   6.824 -0.0861 -0.5447  0.7800
  140OSM    C1315283   3.623   0.188   6.725  0.8342  0.4742 -0.1190
  140OSM   H13A15284   3.690   0.127   6.666 -1.0417 -3.7455  1.7084
  140OSM   H13B15285   3.635   0.159   6.828  1.9143 -0.2090 -0.4199
  140OSM   H13C15286   3.641   0.294   6.712  2.4840  0.1071 -1.0535
  140OSM    C1215287   3.382   0.228   6.783 -0.6954 -0.5495 -0.7172
  140OSM   H12A15288   3.389   0.201   6.887  0.1737 -0.7385 -0.8122
  140OSM   H12B15289   3.280   0.202   6.757 -1.0904  0.7788 -0.5592
  140OSM    C1115290   3.385   0.381   6.783  0.7836 -0.4757  0.9662
  140OSM   H11A15291   3.486   0.420   6.809  1.3278 -0.2253 -1.3116
  140OSM   H11B15292   3.318   0.428   6.858  0.1877  2.9242 -1.4530
  140OSM      P15293   3.200   0.460   6.620 -0.2639  0.0228  0.0095
  140OSM    O1315294   3.119   0.335   6.602 -0.0432  0.1591 -0.2440
  140OSM    O1415295   3.157   0.561   6.720  0.3640  0.4054 -0.2420
  140OSM    O1115296   3.200   0.532   6.482 -0.0213 -0.1037  0.8583
  140OSM    O1215297   3.353   0.432   6.645  0.2804 -0.0423 -0.1722
  140OSM    C1S15298   3.297   0.500   6.386 -0.4009 -0.1110  0.5317
  140OSM    H1S15299   3.363   0.414   6.411  1.1959  1.3560  1.5822
  140OSM    H1T15300   3.363   0.588   6.369 -0.5713  0.1676  1.2583
  140OSM     NF15301   3.333   0.425   6.161  0.1301 -0.6616  0.5578
  140OSM    HNF15302   3.368   0.505   6.113  0.9141 -1.1407  0.3249
  140OSM    C2S15303   3.228   0.456   6.253 -0.5286  0.0784  0.7757
  140OSM    H2S15304   3.171   0.363   6.274 -0.7618  0.1852  0.6069
  140OSM    C3S15305   3.124   0.559   6.206  0.3407  0.3538  0.4416
  140OSM    H3S15306   3.169   0.660   6.194  0.0116  0.2974 -1.5571
  140OSM     O315307   3.020   0.570   6.302  0.9633 -0.3237  0.3505
  140OSM    HO315308   3.062   0.581   6.388  0.0739 -1.9893  1.0364
  140OSM    C4S15309   3.059   0.517   6.073  0.0904 -0.4082  0.8249
  140OSM    H4S15310   2.964   0.463   6.085 -1.1029  1.3586 -0.3436
  140OSM    C5S15311   3.105   0.551   5.950  0.1049  0.5708  0.4756
  140OSM    H5S15312   3.192   0.614   5.930  0.3365  0.4790  1.1591
  140OSM    C6S15313   3.038   0.507   5.819  0.3588  0.1027  0.4042
  140OSM    H6S15314   3.122   0.457   5.767  0.3461  0.1526  0.3338
  140OSM    H6T15315   3.007   0.600   5.766  2.0128  1.0654  1.0282
  140OSM    C7S15316   2.916   0.419   5.831 -0.5593 -0.3677  0.1194
  140OSM    H7S15317   2.850   0.479   5.897 -0.2779  0.5097 -0.3915
  140OSM    H7T15318   2.957   0.333   5.889 -0.9137  0.7624  2.1032
  140OSM    C8S15319   2.854   0.375   5.701  0.0359 -0.1638 -0.1022
  140OSM    H8S15320   2.933   0.324   5.642  1.3787  2.0568 -0.3446
  140OSM    H8T15321   2.820   0.459   5.636 -0.1430 -1.0982 -1.2481
  140OSM    C9S15322   2.738   0.279   5.733  0.1779  0.0626 -0.1048
  140OSM    H9S15323   2.673   0.307   5.818 -1.0223  0.2791 -1.0720
  140OSM    H9T15324   2.789   0.181   5.745  0.9748  0.4326 -0.3133
  140OSM   C10S15325   2.635   0.268   5.616  0.1248  0.0940 -0.4393
  140OSM   H10S15326   2.563   0.352   5.615  1.2546  1.1823  1.5985
  140OSM   H10T15327   2.580   0.173   5.633  1.8142 -0.4678  2.6829
  140OSM   C11S15328   2.687   0.242   5.476  0.3995  0.0912 -0.8117
  140OSM   H11S15329   2.773   0.173   5.485 -1.1316 -1.7105  1.0932
  140OSM   H11T15330   2.727   0.340   5.441 -0.1381  0.4322 -0.4839
  140OSM   C12S15331   2.578   0.173   5.388 -0.3935 -0.2278 -0.6116
  140OSM   H12S15332   2.487   0.236   5.386 -0.7477 -0.6607  1.0875
  140OSM   H12T15333   2.542   0.080   5.436  0.6658  0.2523  1.1966
  140OSM   C13S15334   2.625   0.112   5.257 -0.3562 -0.7546  0.7998
  140OSM   H13S15335   2.543   0.050   5.215  0.9017 -0.6789 -2.0058
  140OSM   H13T15336   2.706   0.038   5.270 -0.3339 -0.7688  0.5889
  140OSM   C14S15337   2.665   0.204   5.138  0.2521 -0.2808  0.9428
  140OSM   H14S15338   2.775   0.220   5.136  0.4348 -1.3295 -1.3887
  140OSM   H14T15339   2.622   0.303   5.165 -0.4668 -1.0731  2.8923
  140OSM   C15S15340   2.611   0.152   5.002 -0.2801  0.8997  0.0817
  140OSM   H15S15341   2.606   0.041   4.997  0.5060  0.7905  1.3215
  140OSM   H15T15342   2.678   0.198   4.927  0.8618  1.6066  1.4890
  140OSM   C16S15343   2.469   0.203   4.979 -0.2530 -0.1125 -0.1762
  140OSM   H16S15344   2.476   0.314   4.980  0.1426 -0.1374  0.7783
  140OSM   H16T15345   2.402   0.170   5.062 -0.5431 -0.9100 -0.7121
  140OSM   C17S15346   2.406   0.169   4.844 -0.0148 -0.8160 -0.7237
  140OSM   H17S15347   2.313   0.230   4.847  1.2998  1.2279  1.7939
  140OSM   H17T15348   2.386   0.060   4.832 -1.6209 -0.6372  0.0273
  140OSM   C18S15349   2.487   0.206   4.721  0.1086 -0.1676  0.2273
  140OSM   H18S15350   2.503   0.316   4.730 -0.0343  0.3318 -3.7493
  140OSM   H18T15351   2.431   0.184   4.627  0.0284 -1.3266  0.5294
  140OSM   H18U15352   2.590   0.164   4.725  1.0088  1.9226  0.6296
  140OSM    C1F15353   3.410   0.317   6.160 -0.4610 -0.5974  0.2377
  140OSM     OF15354   3.374   0.220   6.230  0.4675 -0.3505  0.2528
  140OSM    C2F15355   3.523   0.315   6.064 -0.3896 -0.6495  0.0432
  140OSM    H2F15356   3.615   0.307   6.125  0.7816  1.9486 -1.2085
  140OSM    H2G15357   3.539   0.418   6.023  0.6531 -0.7035  0.3132
  140OSM    C3F15358   3.515   0.198   5.969 -0.9556  0.4572 -0.7165
  140OSM    H3F15359   3.523   0.104   6.027 -0.5850  2.2973  2.4092
  140OSM    H3G15360   3.601   0.199   5.898  1.8627  0.0592  2.4498
  140OSM    C4F15361   3.390   0.192   5.877  0.0952 -0.1176 -0.2235
  140OSM    H4F15362   3.298   0.220   5.933 -0.1482  0.5696 -0.9617
  140OSM    H4G15363   3.379   0.086   5.845 -0.1240  0.5974 -2.7089
  140OSM    C5F15364   3.397   0.285   5.752  0.6594 -0.1975 -0.7596
  140OSM    H5F15365   3.499   0.321   5.727  0.5615 -0.2247 -1.2086
  140OSM    H5G15366   3.332   0.372   5.776 -1.3430 -1.4517 -1.3504
  140OSM    C6F15367   3.325   0.236   5.629  0.4146 -0.4983 -0.1370
  140OSM    H6F15368   3.215   0.234   5.645  0.3365 -0.7090 -0.6878
  140OSM    H6G15369   3.367   0.134   5.613  1.4984  0.0744 -1.1138
  140OSM    C7F15370   3.360   0.312   5.505  0.0452 -0.5905  0.7932
  140OSM    H7F15371   3.465   0.284   5.481  0.4553  0.3328  1.4686
  140OSM    H7G15372   3.356   0.422   5.516  0.2613 -0.4496 -0.4048
  140OSM    C8F15373   3.271   0.274   5.388  0.4059 -0.4011  0.0311
  140OSM    H8F15374   3.264   0.163   5.380 -0.6543 -0.3729  0.4048
  140OSM    H8G15375   3.318   0.320   5.299 -0.4614  0.3220 -0.0670
  140OSM    C9F15376   3.132   0.325   5.414  0.5052  1.0463 -0.3310
  140OSM    H9F15377   3.081   0.291   5.505  1.2529  0.9474  0.0569
  140OSM   C10F15378   3.067   0.404   5.323 -0.3561 -1.3048  0.2250
  140OSM   H10F15379   2.973   0.443   5.365 -0.4198 -2.1085  0.8664
  140OSM   C11F15380   3.103   0.459   5.186 -0.7311 -0.0902  0.4390
  140OSM   H11F15381   3.210   0.441   5.162 -1.1860 -1.2934 -0.7555
  140OSM   H11G15382   3.093   0.570   5.184 -0.6939 -0.0544  1.5594
  140OSM   C12F15383   3.008   0.395   5.082 -0.4439  0.1749  0.0223
  140OSM   H12F15384   2.905   0.412   5.121 -0.3979 -1.3075  0.8628
  140OSM   H12G15385   3.026   0.286   5.097  1.4863  0.1302 -2.1084
  140OSM   C13F15386   3.039   0.446   4.940 -0.4945  0.1729 -0.3736
  140OSM   H13F15387   3.150   0.436   4.934 -0.6477 -1.9128 -0.3170
  140OSM   H13G15388   3.008   0.552   4.932 -1.7767  0.0328  1.7801
  140OSM   C14F15389   2.978   0.366   4.833 -0.5878  0.5004  0.8424
  140OSM   H14F15390   2.868   0.372   4.845 -0.6011  1.3990  0.3179
  140OSM   H14G15391   3.000   0.257   4.831 -0.2695  0.5576 -1.8769
  140OSM   C15F15392   3.018   0.428   4.692 -0.6515 -0.7986 -0.4042
  140OSM   H15F15393   3.129   0.435   4.685 -0.6484 -0.1957  0.1204
  140OSM   H15G15394   2.986   0.534   4.682 -1.5958 -1.0408 -0.0415
  140OSM   C16F15395   2.949   0.343   4.579  0.5266  0.3790 -0.3723
  140OSM   H16F15396   2.847   0.386   4.566  0.3773  0.6254  1.3272
  140OSM   H16G15397   2.947   0.237   4.613 -0.6822  1.1140  2.1388
  140OSM   C17F15398   3.010   0.354   4.442 -0.6615  0.6521 -0.0621
  140OSM   H17F15399   2.943   0.296   4.374  0.7157 -0.0474 -0.8701
  140OSM   H17G15400   3.107   0.301   4.449 -2.1256 -2.0277  1.8589
  140OSM   C18F15401   3.023   0.497   4.386  0.1677 -0.2113  0.4706
  140OSM   H18F15402   3.100   0.558   4.437 -0.6380 -1.4414  3.3879
  140OSM   H18G15403   2.926   0.551   4.391  1.8250  2.8650  1.2844
  140OSM   H18H15404   3.055   0.494   4.280  1.2943  0.9113  0.7677
  141OSM      N15405   6.517   6.053   6.643  0.7406 -0.0631 -0.3754
  141OSM    C1515406   6.583   6.180   6.619 -0.6121  0.1872 -0.4076
  141OSM   H15A15407   6.643   6.171   6.530 -0.0815  0.0976 -0.0401
  141OSM   H15B15408   6.635   6.213   6.707  0.4961  0.8596 -1.2915
  141OSM   H15C15409   6.501   6.250   6.613  0.9633  2.2905  1.3485
  141OSM    C1415410   6.433   6.017   6.524  0.2838 -0.3749 -0.3208
  141OSM   H14A15411   6.500   5.983   6.447 -0.0073 -1.1466 -0.2406
  141OSM   H14B15412   6.377   6.102   6.488  0.6574 -0.6062 -1.4831
  141OSM   H14C15413   6.366   5.936   6.547 -0.1407 -0.5570 -2.0352
  141OSM    C1315414   6.620   5.940   6.659  0.1730 -0.2280 -0.3504
  141OSM   H13A15415   6.667   5.951   6.755  0.5708 -2.8519 -0.1588
  141OSM   H13B15416   6.696   5.946   6.582  0.5173 -2.4765 -0.2717
  141OSM   H13C15417   6.576   5.841   6.649  1.1462 -0.4847 -2.9183
  141OSM    C1215418   6.431   6.064   6.771 -0.0924 -0.8126  0.2182
  141OSM   H12A15419   6.358   6.142   6.754 -0.6499 -1.8954 -3.1109
  141OSM   H12B15420   6.490   6.099   6.854 -0.1987  0.6440 -0.2908
  141OSM    C1115421   6.356   5.934   6.826 -0.0160 -0.2949  0.3597
  141OSM   H11A15422   6.300   5.976   6.911 -0.6970  0.8209 -0.6022
  141OSM   H11B15423   6.432   5.861   6.860  0.7997 -0.6175 -1.9769
  141OSM      P15424   6.134   5.959   6.704 -0.3514  0.1859  0.4087
  141OSM    O1315425   6.027   5.912   6.799  0.1193  0.6386 -0.3867
  141OSM    O1415426   6.150   6.105   6.693 -0.7299  0.1247  0.0140
  141OSM    O1115427   6.098   5.917   6.559  0.3360 -0.3962 -0.4396
  141OSM    O1215428   6.265   5.886   6.734 -0.2395 -0.4919  0.5479
  141OSM    C1S15429   6.112   5.786   6.502 -0.3494 -0.1217 -0.3121
  141OSM    H1S15430   6.044   5.717   6.556 -0.3911 -0.4745 -0.8139
  141OSM    H1T15431   6.215   5.749   6.521 -0.8314 -0.7453  1.2565
  141OSM     NF15432   6.069   5.659   6.304  0.3123 -0.2300  1.0331
  141OSM    HNF15433   6.155   5.618   6.275  0.2622  1.1472 -1.2501
  141OSM    C2S15434   6.077   5.794   6.350  0.3033 -0.4094  0.5308
  141OSM    H2S15435   5.979   5.846   6.341 -0.1996 -0.7267  3.3174
  141OSM    C3S15436   6.173   5.888   6.282 -0.1846 -0.2318  0.8164
  141OSM    H3S15437   6.271   5.853   6.320  0.9973  1.9087 -0.0304
  141OSM     O315438   6.163   6.027   6.314  0.2676  0.1187  0.2738
  141OSM    HO315439   6.096   6.029   6.383 -2.0526  2.8247 -1.8043
  141OSM    C4S15440   6.170   5.884   6.137 -0.0863 -0.1613 -0.1343
  141OSM    H4S15441   6.087   5.930   6.082  1.3819  2.2687 -0.4862
  141OSM    C5S15442   6.267   5.817   6.070 -0.4456 -0.2578 -0.3296
  141OSM    H5S15443   6.353   5.775   6.124  1.3587 -0.4393 -3.1478
  141OSM    C6S15444   6.272   5.808   5.921  0.1813 -0.5264  0.0038
  141OSM    H6S15445   6.241   5.905   5.875 -0.2452 -0.7048 -0.0882
  141OSM    H6T15446   6.202   5.733   5.879 -1.5064 -0.1842  2.0076
  141OSM    C7S15447   6.414   5.757   5.875 -0.5802 -0.1597  1.1418
  141OSM    H7S15448   6.442   5.655   5.909  0.0711 -0.3502  0.0811
  141OSM    H7T15449   6.499   5.818   5.910 -0.2766 -0.3968  0.8253
  141OSM    C8S15450   6.429   5.762   5.713 -0.0524  0.4757  0.0976
  141OSM    H8S15451   6.526   5.722   5.676  0.3515  1.0989  0.4581
  141OSM    H8T15452   6.417   5.871   5.696  0.7768  0.4351 -0.8054
  141OSM    C9S15453   6.338   5.665   5.627 -0.2105 -0.1052 -1.1393
  141OSM    H9S15454   6.231   5.666   5.656 -0.5307 -2.8970 -1.9499
  141OSM    H9T15455   6.374   5.561   5.641 -2.0751 -0.7744 -0.9717
  141OSM   C10S15456   6.355   5.695   5.477 -0.0806 -0.0651 -0.5162
  141OSM   H10S15457   6.461   5.702   5.443  0.1351  2.5476  0.5242
  141OSM   H10T15458   6.317   5.799   5.466  1.8549  0.7658  0.3035
  141OSM   C11S15459   6.270   5.598   5.389 -0.0208  0.1089  0.6086
  141OSM   H11S15460   6.172   5.572   5.434 -0.8827 -1.0315 -1.7950
  141OSM   H11T15461   6.334   5.507   5.383 -0.5001 -0.4346  2.7754
  141OSM   C12S15462   6.247   5.658   5.248  0.2828 -0.6983 -0.4897
  141OSM   H12S15463   6.344   5.693   5.206  1.7175 -0.0397  3.0246
  141OSM   H12T15464   6.177   5.744   5.253 -0.1462 -1.0942  0.6817
  141OSM   C13S15465   6.172   5.559   5.159 -0.1321  0.3506 -0.0118
  141OSM   H13S15466   6.063   5.565   5.179 -0.5070 -1.4526 -1.2854
  141OSM   H13T15467   6.218   5.460   5.181  2.5016  1.4487 -0.2337
  141OSM   C14S15468   6.196   5.590   5.011 -0.2174 -0.1072 -0.3287
  141OSM   H14S15469   6.307   5.589   5.006 -0.1963  2.0501 -1.2701
  141OSM   H14T15470   6.155   5.688   4.979  0.4623  0.3032  0.0352
  141OSM   C15S15471   6.129   5.484   4.924 -0.4004 -0.0122  0.6547
  141OSM   H15S15472   6.019   5.494   4.928 -0.3836 -0.1655  1.9224
  141OSM   H15T15473   6.137   5.383   4.970 -0.9037  0.0506  0.8915
  141OSM   C16S15474   6.171   5.493   4.776 -0.1660  0.0451 -0.1400
  141OSM   H16S15475   6.273   5.450   4.773 -0.7311 -1.4944  1.4566
  141OSM   H16T15476   6.177   5.600   4.744 -1.3753  0.2391  0.2309
  141OSM   C17S15477   6.076   5.416   4.677 -0.6104 -0.2743 -0.5189
  141OSM   H17S15478   6.051   5.315   4.715  1.4427 -0.1388  1.4204
  141OSM   H17T15479   6.128   5.410   4.579  1.9626  0.5221  0.7093
  141OSM   C18S15480   5.945   5.497   4.653  0.3707  0.0727 -0.5566
  141OSM   H18S15481   5.860   5.430   4.627  0.5203  0.5309 -2.3732
  141OSM   H18T15482   5.969   5.586   4.591  0.5201 -0.7866 -1.7774
  141OSM   H18U15483   5.910   5.532   4.752 -0.5993 -0.2122 -0.7867
  141OSM    C1F15484   5.961   5.588   6.331 -0.6975  0.9452 -0.4126
  141OSM     OF15485   5.867   5.636   6.396  0.0837 -0.1201  0.1309
  141OSM    C2F15486   5.959   5.441   6.300 -0.2035 -0.1651 -0.0209
  141OSM    H2F15487   5.913   5.381   6.381  2.1569 -1.7515  0.2609
  141OSM    H2G15488   6.054   5.394   6.265 -1.7330 -1.1694 -3.2672
  141OSM    C3F15489   5.869   5.424   6.177 -0.2158 -0.0409 -0.5804
  141OSM    H3F15490   5.906   5.485   6.091 -0.3799  2.6501  1.1483
  141OSM    H3G15491   5.767   5.464   6.193 -0.8666 -1.5850 -0.6615
  141OSM    C4F15492   5.862   5.273   6.133  0.4002  0.5981 -0.5720
  141OSM    H4F15493   5.822   5.214   6.218 -0.4650  2.1513  0.1278
  141OSM    H4G15494   5.961   5.238   6.095 -1.1082 -2.0076 -2.3864
  141OSM    C5F15495   5.762   5.241   6.016  0.2686 -1.1462  0.3684
  141OSM    H5F15496   5.781   5.302   5.925 -3.3868 -0.5679 -0.1953
  141OSM    H5G15497   5.655   5.261   6.041  0.4564  0.5923 -0.0718
  141OSM    C6F15498   5.766   5.091   5.972 -0.0791  0.7123  0.1233
  141OSM    H6F15499   5.750   5.034   6.066 -0.7403  0.1599 -0.3143
  141OSM    H6G15500   5.860   5.068   5.918  0.4037  1.8279  0.4590
  141OSM    C7F15501   5.654   5.056   5.869 -0.2916  0.7771 -0.4515
  141OSM    H7F15502   5.678   5.111   5.776  0.6517  0.6609 -0.2903
  141OSM    H7G15503   5.556   5.086   5.912 -0.2613  0.7281 -0.3464
  141OSM    C8F15504   5.654   4.899   5.842  0.3319 -0.1229 -0.3936
  141OSM    H8F15505   5.600   4.890   5.746  0.5805 -3.5239 -0.3336
  141OSM    H8G15506   5.576   4.861   5.911  0.4522 -0.5613 -0.4955
  141OSM    C9F15507   5.787   4.821   5.839  1.0696 -0.0730  0.5087
  141OSM    H9F15508   5.812   4.766   5.931 -0.4759 -0.3437  0.7806
  141OSM   C10F15509   5.856   4.789   5.730  0.1443  0.0685 -0.2869
  141OSM   H10F15510   5.947   4.731   5.751 -1.1265 -1.7906  0.4879
  141OSM   C11F15511   5.840   4.841   5.590  0.0772  0.6602 -0.7343
  141OSM   H11F15512   5.932   4.816   5.532 -0.0639  0.2859 -0.8037
  141OSM   H11G15513   5.823   4.951   5.583 -0.5754  0.5166 -1.6806
  141OSM   C12F15514   5.712   4.784   5.517 -0.4093  0.5680 -0.5082
  141OSM   H12F15515   5.621   4.804   5.578 -0.3648  1.5764 -0.7534
  141OSM   H12G15516   5.720   4.675   5.501  0.8617  0.0132  3.1553
  141OSM   C13F15517   5.682   4.850   5.383 -0.4713 -0.7696  0.0673
  141OSM   H13F15518   5.677   4.958   5.410  1.3270 -0.7665  0.4566
  141OSM   H13G15519   5.581   4.827   5.343 -0.0443  2.1357 -3.2129
  141OSM   C14F15520   5.783   4.823   5.280 -0.0486  0.1108  0.5135
  141OSM   H14F15521   5.769   4.717   5.250 -1.3335  0.4866 -0.2799
  141OSM   H14G15522   5.888   4.841   5.313  0.3974  0.4231 -0.9732
  141OSM   C15F15523   5.752   4.885   5.150  0.8312  0.2802  0.8108
  141OSM   H15F15524   5.774   4.994   5.155  2.1770  0.0266  0.7793
  141OSM   H15G15525   5.644   4.899   5.130  1.2852  1.0962 -1.2642
  141OSM   C16F15526   5.834   4.836   5.036 -0.2770  0.0435  0.6564
  141OSM   H16F15527   5.941   4.854   5.057  0.3866 -1.3028 -1.2430
  141OSM   H16G15528   5.821   4.903   4.947  2.1345 -3.0214 -2.2758
  141OSM   C17F15529   5.790   4.701   4.980  0.4288  0.5736  0.2605
  141OSM   H17F15530   5.679   4.692   4.984  0.6263 -2.5520  1.6763
  141OSM   H17G15531   5.828   4.626   5.053 -1.7455  1.0516  1.9971
  141OSM   C18F15532   5.829   4.658   4.840 -1.4652  0.2006  0.5171
  141OSM   H18F15533   5.937   4.632   4.851 -1.1478  1.6453  1.0702
  141OSM   H18G15534   5.821   4.746   4.772  2.3965 -0.2949 -0.8150
  141OSM   H18H15535   5.771   4.569   4.810 -0.5847  0.3776 -1.8957
  142OSM      N15536   6.591   4.727   6.636  0.0573 -0.2958  0.1570
  142OSM    C1515537   6.619   4.583   6.673 -0.0367  0.3488 -0.0725
  142OSM   H15A15538   6.608   4.518   6.588 -1.5637  2.0059 -1.2282
  142OSM   H15B15539   6.543   4.557   6.745 -1.6032  1.3914 -1.2862
  142OSM   H15C15540   6.712   4.569   6.725 -0.1200 -0.1012 -0.0405
  142OSM    C1415541   6.452   4.771   6.631  0.1262 -0.5080 -0.2295
  142OSM   H14A15542   6.422   4.779   6.735 -0.3504 -0.7095 -0.3503
  142OSM   H14B15543   6.390   4.708   6.571 -0.6382 -0.1078  0.1231
  142OSM   H14C15544   6.448   4.869   6.585 -1.7073  0.9153  2.6654
  142OSM    C1315545   6.656   4.816   6.738  0.7320 -0.0694  0.3442
  142OSM   H13A15546   6.641   4.922   6.724 -0.8786  0.3696  4.0578
  142OSM   H13B15547   6.760   4.796   6.759  0.1237 -1.9477  1.9006
  142OSM   H13C15548   6.609   4.791   6.833  0.3810 -3.0539 -0.4861
  142OSM    C1215549   6.657   4.754   6.500 -1.1552  0.1810 -0.4235
  142OSM   H12A15550   6.613   4.698   6.419  1.5439 -1.6109 -0.7766
  142OSM   H12B15551   6.752   4.704   6.500 -2.0841 -1.7250  1.6596
  142OSM    C1115552   6.671   4.897   6.448 -0.4264  0.1062 -0.3483
  142OSM   H11A15553   6.739   4.908   6.361  2.3029  2.4272  1.8383
  142OSM   H11B15554   6.715   4.963   6.526 -1.5237  1.0006 -0.4643
  142OSM      P15555   6.520   5.109   6.427  0.1060  0.4038  0.3412
  142OSM    O1315556   6.392   5.152   6.369 -0.0709 -0.2504 -0.3891
  142OSM    O1415557   6.550   5.139   6.566 -0.3085 -0.4044  0.0863
  142OSM    O1115558   6.627   5.178   6.340 -0.6896  0.4037 -0.4726
  142OSM    O1215559   6.550   4.951   6.407  0.4064  0.0754  0.4183
  142OSM    C1S15560   6.648   5.127   6.207 -0.3057  0.1284  0.7577
  142OSM    H1S15561   6.567   5.161   6.139  0.5750 -0.8668 -0.8527
  142OSM    H1T15562   6.660   5.017   6.203  0.7396  0.2348  0.4743
  142OSM     NF15563   6.801   5.159   6.015 -0.3962 -0.5888 -0.2813
  142OSM    HNF15564   6.863   5.096   5.970  0.7936  0.2984  0.0724
  142OSM    C2S15565   6.780   5.186   6.156 -0.9521 -0.4225 -0.4703
  142OSM    H2S15566   6.773   5.297   6.162 -1.0036 -0.4684  0.6531
  142OSM    C3S15567   6.900   5.149   6.253 -0.3168  0.1600  0.2124
  142OSM    H3S15568   6.903   5.038   6.263 -1.8270  0.1333  0.6013
  142OSM     O315569   6.885   5.195   6.390  0.0294 -0.4775  0.3266
  142OSM    HO315570   6.793   5.224   6.393 -0.1516 -1.0658  2.3672
  142OSM    C4S15571   7.026   5.214   6.192  0.4267 -0.0625 -0.3965
  142OSM    H4S15572   7.003   5.319   6.168 -0.4121  0.2453  1.6046
  142OSM    C5S15573   7.141   5.151   6.166 -0.1786 -0.2529  0.5974
  142OSM    H5S15574   7.142   5.046   6.199 -2.2132 -0.0623  1.3829
  142OSM    C6S15575   7.266   5.210   6.092 -0.0069 -0.3179 -0.3948
  142OSM    H6S15576   7.287   5.162   5.994  2.4323 -1.9456  0.8199
  142OSM    H6T15577   7.355   5.186   6.154  0.5474  1.0373 -0.6338
  142OSM    C7S15578   7.262   5.366   6.079  0.4071 -0.3183 -0.3341
  142OSM    H7S15579   7.356   5.411   6.041  0.2954  0.6875  0.5409
  142OSM    H7T15580   7.246   5.420   6.175  4.8794 -0.7218  0.8715
  142OSM    C8S15581   7.168   5.407   5.966  0.7894 -0.3187  0.0287
  142OSM    H8S15582   7.184   5.517   5.963 -2.3722  0.3019  1.2658
  142OSM    H8T15583   7.061   5.391   5.991  1.0353 -2.9362 -0.3422
  142OSM    C9S15584   7.192   5.341   5.833  0.1923 -0.9398  0.5563
  142OSM    H9S15585   7.179   5.230   5.835  0.5645 -1.0354 -0.8382
  142OSM    H9T15586   7.295   5.357   5.793 -0.2669 -1.1003 -0.7670
  142OSM   C10S15587   7.099   5.388   5.720  0.4976 -0.1802 -0.5814
  142OSM   H10S15588   7.110   5.498   5.711  0.9915 -0.1471  0.3425
  142OSM   H10T15589   6.998   5.366   5.760 -0.7825  0.9070 -2.9872
  142OSM   C11S15590   7.120   5.327   5.589 -0.0710  0.1786  0.1619
  142OSM   H11S15591   7.073   5.227   5.605 -2.3211  0.8826 -1.4404
  142OSM   H11T15592   7.227   5.326   5.563  0.1222  1.9625  0.7039
  142OSM   C12S15593   7.044   5.418   5.484 -0.7950 -0.2982 -0.4340
  142OSM   H12S15594   7.088   5.520   5.495  2.1675 -1.3555 -1.4903
  142OSM   H12T15595   6.939   5.425   5.520 -0.3962 -0.8202  0.8717
  142OSM   C13S15596   7.065   5.383   5.333 -0.4499  0.1722 -0.1570
  142OSM   H13S15597   7.174   5.365   5.317 -0.6773 -0.1534 -1.4053
  142OSM   H13T15598   7.040   5.468   5.266 -1.7631 -0.6486 -0.7384
  142OSM   C14S15599   6.984   5.258   5.289  0.3078  0.2295  0.2758
  142OSM   H14S15600   6.875   5.277   5.298  0.2624 -0.8182  2.4468
  142OSM   H14T15601   7.004   5.188   5.373  1.1151 -0.0219 -0.1110
  142OSM   C15S15602   7.033   5.217   5.144  0.4949  0.0583 -0.5483
  142OSM   H15S15603   6.995   5.115   5.126  0.0791  0.2674 -0.8687
  142OSM   H15T15604   7.144   5.206   5.147  0.4422 -0.1548  1.0211
  142OSM   C16S15605   6.985   5.320   5.036  0.1045  0.6553 -0.5065
  142OSM   H16S15606   7.020   5.421   5.065 -1.7174  2.2393 -3.3320
  142OSM   H16T15607   6.874   5.333   5.036  0.2561  2.1519 -1.2664
  142OSM   C17S15608   7.037   5.280   4.899  0.0412 -0.0836 -0.3900
  142OSM   H17S15609   7.009   5.176   4.869  1.3027 -0.3956 -0.5732
  142OSM   H17T15610   7.147   5.269   4.914 -0.1134 -4.0553 -1.0926
  142OSM   C18S15611   7.012   5.374   4.782  0.1256 -0.1579 -0.3183
  142OSM   H18S15612   7.038   5.318   4.690 -2.5871 -2.2921  0.0779
  142OSM   H18T15613   7.067   5.470   4.798 -0.6443  0.0752  1.1955
  142OSM   H18U15614   6.904   5.399   4.779 -0.2890 -1.9100 -0.9183
  142OSM    C1F15615   6.731   5.216   5.925  0.0285 -0.2982  0.6081
  142OSM     OF15616   6.669   5.318   5.945 -0.2474  0.6463  0.3383
  142OSM    C2F15617   6.723   5.155   5.787  0.3769 -0.0691  0.1564
  142OSM    H2F15618   6.723   5.045   5.797  0.8951 -0.4171 -2.8446
  142OSM    H2G15619   6.817   5.185   5.738  0.4031 -0.4267 -0.0118
  142OSM    C3F15620   6.602   5.189   5.699 -0.1948 -0.3416  1.2747
  142OSM    H3F15621   6.580   5.296   5.683  0.2296 -0.0758  2.4268
  142OSM    H3G15622   6.513   5.149   5.753  1.4007 -3.7114  1.7033
  142OSM    C4F15623   6.623   5.120   5.563 -0.0756 -0.7274  0.4235
  142OSM    H4F15624   6.642   5.011   5.574  2.7055 -0.8349 -3.3283
  142OSM    H4G15625   6.710   5.168   5.512  0.7731 -0.2559  2.2273
  142OSM    C5F15626   6.506   5.165   5.470  0.0201 -0.7411  0.0564
  142OSM    H5F15627   6.515   5.275   5.468 -2.1434 -0.4805  1.1970
  142OSM    H5G15628   6.405   5.147   5.513 -0.5503  0.7431 -0.6081
  142OSM    C6F15629   6.523   5.119   5.326  0.8313  0.3189  0.5431
  142OSM    H6F15630   6.523   5.008   5.325 -1.9029  0.2462 -0.9130
  142OSM    H6G15631   6.623   5.148   5.286 -0.0987 -0.1533 -2.3304
  142OSM    C7F15632   6.416   5.163   5.220  0.8711 -0.2130 -0.4751
  142OSM    H7F15633   6.374   5.260   5.256  3.3274  0.4320  0.8925
  142OSM    H7G15634   6.339   5.084   5.226  2.1008 -1.4388 -0.1969
  142OSM    C8F15635   6.469   5.162   5.078  0.5586 -0.6435 -1.1715
  142OSM    H8F15636   6.567   5.213   5.087  1.1512 -2.0542  1.3230
  142OSM    H8G15637   6.407   5.218   5.005 -0.6558 -0.1087  0.2149
  142OSM    C9F15638   6.495   5.021   5.023 -0.2078  0.3041 -0.1153
  142OSM    H9F15639   6.599   4.985   5.018 -0.1064  0.5285  0.2911
  142OSM   C10F15640   6.406   4.937   4.975  0.5070 -0.7792  0.0521
  142OSM   H10F15641   6.443   4.834   4.962  0.7300 -0.7554  0.4782
  142OSM   C11F15642   6.262   4.963   4.953  0.3313 -0.0610  0.6158
  142OSM   H11F15643   6.228   5.054   5.007 -0.1798  1.2358 -1.7763
  142OSM   H11G15644   6.193   4.882   4.986 -1.6835  1.6699  0.9022
  142OSM   C12F15645   6.227   5.001   4.807 -1.1109  0.2636 -0.8114
  142OSM   H12F15646   6.275   4.922   4.744  0.7015  1.4648 -1.0349
  142OSM   H12G15647   6.293   5.088   4.784  0.8491 -0.6592  0.9696
  142OSM   C13F15648   6.080   5.030   4.776 -0.5367 -0.1421  0.2062
  142OSM   H13F15649   6.054   5.137   4.788 -0.8323 -0.1319 -0.5226
  142OSM   H13G15650   6.029   4.963   4.849  1.5102 -0.9219  0.9937
  142OSM   C14F15651   6.050   4.994   4.631  0.0903  0.4143  0.3049
  142OSM   H14F15652   6.080   4.890   4.606 -1.1535  0.1500 -0.1148
  142OSM   H14G15653   6.124   5.055   4.574  1.5297  0.1148  1.7837
  142OSM   C15F15654   5.916   5.032   4.586  0.3124  0.7895 -0.2388
  142OSM   H15F15655   5.895   5.129   4.637  0.7477  0.1941  1.1400
  142OSM   H15G15656   5.839   4.957   4.616  0.8894 -0.8415 -2.5974
  142OSM   C16F15657   5.899   5.056   4.432  0.3538  0.1380 -0.5962
  142OSM   H16F15658   5.931   4.982   4.356 -0.4753 -0.4450 -0.3940
  142OSM   H16G15659   5.941   5.155   4.402 -0.3787 -0.0068 -2.2179
  142OSM   C17F15660   5.748   5.083   4.415 -0.1975 -0.2631 -0.4921
  142OSM   H17F15661   5.739   5.155   4.331 -0.9901 -0.7109 -0.7973
  142OSM   H17G15662   5.694   5.119   4.505 -0.0909 -1.5459  0.1157
  142OSM   C18F15663   5.691   4.953   4.354 -0.3731  0.0656  0.3196
  142OSM   H18F15664   5.724   4.929   4.250 -1.5688 -1.8373  0.3372
  142OSM   H18G15665   5.582   4.934   4.362 -0.4842 -0.0827 -1.2332
  142OSM   H18H15666   5.723   4.870   4.420 -1.0234  0.7789  1.5618
  143OSM      N15667   0.893   1.718   7.139 -1.1891  0.5498  0.6539
  143OSM    C1515668   0.907   1.858   7.189  0.6722  0.1186  0.2534
  143OSM   H15A15669   0.816   1.916   7.177 -0.1718 -0.9273  1.3259
  143OSM   H15B15670   0.979   1.913   7.131 -1.8568  2.1555 -1.1380
  143OSM   H15C15671   0.930   1.861   7.295  2.5481 -0.1166 -0.1205
  143OSM    C1415672   0.836   1.709   7.001 -0.1854 -0.1694 -0.1494
  143OSM   H14A15673   0.811   1.608   6.972 -0.2955  0.3309 -1.8947
  143OSM   H14B15674   0.895   1.748   6.920 -0.8099 -1.5838 -1.3301
  143OSM   H14C15675   0.735   1.746   6.996 -0.9349 -1.8686  1.1880
  143OSM    C1315676   1.034   1.660   7.142  0.4151 -0.2772  0.7450
  143OSM   H13A15677   1.044   1.553   7.126 -1.7562 -0.4691  0.4296
  143OSM   H13B15678   1.077   1.681   7.239  0.2039  2.0288  0.3897
  143OSM   H13C15679   1.089   1.699   7.058 -1.2839 -0.6368 -0.5786
  143OSM    C1215680   0.800   1.647   7.231 -0.2274 -0.0576 -0.0351
  143OSM   H12A15681   0.708   1.702   7.242  1.1203  2.6328 -1.2278
  143OSM   H12B15682   0.836   1.649   7.333 -2.1765 -2.7326  0.8233
  143OSM    C1115683   0.773   1.489   7.196  0.3382  0.5200  0.4312
  143OSM   H11A15684   0.737   1.480   7.092  0.2643  0.4404  0.4629
  143OSM   H11B15685   0.692   1.444   7.259 -0.5920  0.2504 -0.9024
  143OSM      P15686   0.916   1.258   7.196  0.0535  0.4373  0.3547
  143OSM    O1315687   1.062   1.225   7.233 -0.2891  0.2699  0.1392
  143OSM    O1415688   0.821   1.194   7.282  0.1117 -0.4142  0.3936
  143OSM    O1115689   0.892   1.210   7.049 -0.1614 -0.1935 -0.1796
  143OSM    O1215690   0.896   1.418   7.207 -0.7526 -0.0402 -0.4448
  143OSM    C1S15691   0.912   1.293   6.932 -0.4342 -0.3873 -1.0297
  143OSM    H1S15692   1.021   1.317   6.932 -0.5995  0.6067  1.0162
  143OSM    H1T15693   0.843   1.379   6.946 -0.4794 -0.5990  0.1783
  143OSM     NF15694   0.909   1.310   6.687 -0.0943  0.2941 -0.2838
  143OSM    HNF15695   0.835   1.369   6.654 -0.9506  0.9859  2.6027
  143OSM    C2S15696   0.871   1.220   6.802 -0.2362 -0.0477  0.4525
  143OSM    H2S15697   0.937   1.131   6.786 -0.0318  0.1575  0.1364
  143OSM    C3S15698   0.721   1.176   6.808 -0.9345 -0.6538  1.0910
  143OSM    H3S15699   0.653   1.264   6.815 -2.1171 -1.2797 -1.3386
  143OSM     O315700   0.688   1.093   6.919 -0.2092  0.5042 -0.2446
  143OSM    HO315701   0.774   1.084   6.962 -0.6033  0.2937  0.5242
  143OSM    C4S15702   0.687   1.110   6.680 -0.6087 -0.1978  0.0592
  143OSM    H4S15703   0.683   1.185   6.599  1.9836  2.7626  2.4072
  143OSM    C5S15704   0.699   0.976   6.657  0.2382 -0.2861 -0.2811
  143OSM    H5S15705   0.746   0.904   6.725  1.2783 -0.3257 -1.0186
  143OSM    C6S15706   0.673   0.911   6.524  0.3848 -0.3306 -0.4022
  143OSM    H6S15707   0.615   0.817   6.534  0.2658 -0.2789 -0.5913
  143OSM    H6T15708   0.768   0.865   6.490  0.1748  1.7871 -4.5035
  143OSM    C7S15709   0.587   0.985   6.415  0.1144  0.5107 -0.1702
  143OSM    H7S15710   0.626   1.087   6.398 -2.1060  1.3426 -0.5799
  143OSM    H7T15711   0.486   1.016   6.449  0.1607  1.0239 -0.4916
  143OSM    C8S15712   0.565   0.910   6.286 -0.2024  0.0122  0.1354
  143OSM    H8S15713   0.524   0.811   6.313 -1.9032  0.1422 -1.7265
  143OSM    H8T15714   0.659   0.891   6.230  0.7921  2.4969  0.8146
  143OSM    C9S15715   0.476   0.983   6.184 -0.6792 -0.8229 -0.2092
  143OSM    H9S15716   0.523   1.081   6.163 -3.5572  0.5741 -0.6449
  143OSM    H9T15717   0.378   0.999   6.234 -0.2709  1.3464 -0.0285
  143OSM   C10S15718   0.473   0.909   6.044 -0.1916 -0.3739  0.4412
  143OSM   H10S15719   0.416   0.814   6.053 -2.1641  0.8339  1.3209
  143OSM   H10T15720   0.578   0.888   6.014 -0.3860 -0.2640 -0.3402
  143OSM   C11S15721   0.422   1.002   5.929 -0.1034 -0.8589  0.0702
  143OSM   H11S15722   0.480   1.096   5.914 -1.3161 -0.2231 -0.8299
  143OSM   H11T15723   0.317   1.033   5.948 -0.5709 -2.6900  0.7068
  143OSM   C12S15724   0.419   0.935   5.792 -0.5099 -0.0024 -0.3712
  143OSM   H12S15725   0.380   0.831   5.792 -0.5654  0.0168  0.1778
  143OSM   H12T15726   0.524   0.927   5.756 -0.6912 -0.0661 -0.9002
  143OSM   C13S15727   0.345   1.007   5.682 -0.4189 -0.2745 -0.0190
  143OSM   H13S15728   0.391   1.108   5.678  0.7859 -0.7918  0.1840
  143OSM   H13T15729   0.240   1.011   5.718  0.2960  0.1418  2.1817
  143OSM   C14S15730   0.337   0.929   5.547 -0.1354 -0.5865  0.0789
  143OSM   H14S15731   0.297   0.832   5.583 -0.9003  0.0381  0.9729
  143OSM   H14T15732   0.440   0.920   5.507  0.2039 -1.6992  1.1394
  143OSM   C15S15733   0.239   0.990   5.450  0.3751  0.0612 -0.1641
  143OSM   H15S15734   0.262   1.099   5.448 -2.1772  0.6768  0.8209
  143OSM   H15T15735   0.138   0.983   5.494  0.5562 -0.7270  0.1323
  143OSM   C16S15736   0.230   0.923   5.313 -0.8489  0.1009 -0.3060
  143OSM   H16S15737   0.146   0.850   5.305 -1.2726  0.6982 -1.6573
  143OSM   H16T15738   0.322   0.862   5.303 -0.0317  0.9236  1.7450
  143OSM   C17S15739   0.222   1.011   5.180  0.6572 -0.3824 -0.4523
  143OSM   H17S15740   0.142   1.087   5.196  0.6637 -0.1394 -1.5104
  143OSM   H17T15741   0.192   0.954   5.090 -2.1322 -0.0161  0.1532
  143OSM   C18S15742   0.358   1.077   5.157  0.8975  0.5645  0.0423
  143OSM   H18S15743   0.370   1.140   5.247 -2.0661  0.3970  0.6309
  143OSM   H18T15744   0.358   1.129   5.059 -2.5246  0.7094 -0.0006
  143OSM   H18U15745   0.434   0.995   5.155 -2.6775 -3.2006 -4.2164
  143OSM    C1F15746   1.032   1.348   6.671  0.3773  0.7094  0.8970
  143OSM     OF15747   1.126   1.298   6.733  0.5468  0.1162  0.7207
  143OSM    C2F15748   1.053   1.449   6.554  0.0341  1.1978 -0.3462
  143OSM    H2F15749   1.001   1.545   6.578 -0.1296  1.0375 -0.0599
  143OSM    H2G15750   0.985   1.398   6.483 -1.9494  1.0542  1.5278
  143OSM    C3F15751   1.197   1.468   6.507  0.2332  0.0157 -0.0134
  143OSM    H3F15752   1.252   1.374   6.486  0.4387 -0.0098  0.6141
  143OSM    H3G15753   1.240   1.520   6.595 -2.5236  1.3367  0.6655
  143OSM    C4F15754   1.187   1.551   6.385  0.1204 -0.0837  0.0205
  143OSM    H4F15755   1.244   1.646   6.399 -0.4205 -0.1431  3.4369
  143OSM    H4G15756   1.083   1.575   6.355  0.0821 -1.2485 -0.8531
  143OSM    C5F15757   1.242   1.477   6.259  0.5307 -0.0523 -0.2604
  143OSM    H5F15758   1.185   1.383   6.251 -0.7405  0.5381  1.4136
  143OSM    H5G15759   1.350   1.449   6.265  0.1554 -1.4370  0.3857
  143OSM    C6F15760   1.225   1.563   6.132  0.1952 -0.6445  0.3423
  143OSM    H6F15761   1.282   1.656   6.151  1.5492 -0.6814 -2.9699
  143OSM    H6G15762   1.120   1.601   6.131  0.8924  1.6670 -3.0967
  143OSM    C7F15763   1.277   1.499   6.003 -0.3532  0.6439  0.1100
  143OSM    H7F15764   1.371   1.449   6.035  1.1156  1.5256 -2.5475
  143OSM    H7G15765   1.330   1.568   5.934  2.2747  0.4885  1.8094
  143OSM    C8F15766   1.181   1.405   5.925 -0.2402 -0.0612  0.3143
  143OSM    H8F15767   1.131   1.461   5.844 -1.5419 -0.5634  0.7426
  143OSM    H8G15768   1.102   1.370   5.995 -0.5091 -1.9119 -0.8352
  143OSM    C9F15769   1.247   1.278   5.879 -0.4214  0.8826  0.4326
  143OSM    H9F15770   1.244   1.192   5.948  0.8590  0.8570  0.4805
  143OSM   C10F15771   1.320   1.267   5.760  0.1943  0.5542  0.3658
  143OSM   H10F15772   1.368   1.171   5.739 -0.3275  0.4140 -0.1994
  143OSM   C11F15773   1.326   1.384   5.662 -0.1697  0.5340  0.3056
  143OSM   H11F15774   1.422   1.386   5.605  0.2506 -1.9278  0.7976
  143OSM   H11G15775   1.325   1.484   5.711  1.4602  1.2580 -1.0257
  143OSM   C12F15776   1.210   1.391   5.557 -0.2311 -0.4338  0.9892
  143OSM   H12F15777   1.220   1.489   5.505  2.4355 -1.3658 -0.4200
  143OSM   H12G15778   1.112   1.391   5.608 -0.4598 -0.3779  0.5554
  143OSM   C13F15779   1.214   1.289   5.441 -0.3748 -0.1747 -0.1240
  143OSM   H13F15780   1.205   1.186   5.483  1.2580 -0.1336  0.3927
  143OSM   H13G15781   1.312   1.289   5.387  0.3674  0.2054  1.1736
  143OSM   C14F15782   1.106   1.306   5.329 -0.0261 -0.1822 -0.3008
  143OSM   H14F15783   1.008   1.302   5.381 -0.5720  0.9498 -1.1988
  143OSM   H14G15784   1.137   1.224   5.260  1.2234 -1.4177  1.6231
  143OSM   C15F15785   1.113   1.444   5.250  0.2980  0.0837  0.4297
  143OSM   H15F15786   1.089   1.530   5.315 -0.0262 -0.6583  1.3158
  143OSM   H15G15787   1.035   1.440   5.171 -0.2637  2.6235  0.7760
  143OSM   C16F15788   1.239   1.475   5.169  0.2387  0.1297 -0.3901
  143OSM   H16F15789   1.246   1.404   5.084  0.5494 -0.7255  0.3365
  143OSM   H16G15790   1.334   1.446   5.219 -0.7101 -0.9447  0.8484
  143OSM   C17F15791   1.257   1.617   5.121 -0.2517  0.1779  0.2625
  143OSM   H17F15792   1.272   1.680   5.212 -3.4570 -1.6270  2.1931
  143OSM   H17G15793   1.163   1.633   5.064  0.4758 -1.9457 -1.7163
  143OSM   C18F15794   1.380   1.629   5.028  0.3738  1.0088 -0.5124
  143OSM   H18F15795   1.385   1.728   4.976  3.3107  0.5828 -1.2264
  143OSM   H18G15796   1.348   1.555   4.952 -1.5716  1.2865 -0.0224
  143OSM   H18H15797   1.473   1.606   5.083 -1.8168 -0.6104  2.8396
  144OSM      N15798   1.690   0.709   6.892 -1.1686 -0.9257 -0.0035
  144OSM    C1515799   1.841   0.705   6.898  0.3127 -0.0646  0.3111
  144OSM   H15A15800   1.882   0.689   6.799 -1.3798  2.2462 -0.8779
  144OSM   H15B15801   1.885   0.635   6.967 -0.1313 -0.8596 -0.1879
  144OSM   H15C15802   1.871   0.798   6.944  0.6589 -0.2634  0.4930
  144OSM    C1415803   1.646   0.717   7.035 -0.0021 -0.1765 -0.1048
  144OSM   H14A15804   1.686   0.805   7.083 -1.0392 -0.2793  0.9658
  144OSM   H14B15805   1.681   0.624   7.078  0.0354 -0.0916  0.0492
  144OSM   H14C15806   1.538   0.711   7.037 -0.2168  1.2519 -2.8810
  144OSM    C1315807   1.649   0.840   6.828 -0.2055  0.7088  0.7007
  144OSM   H13A15808   1.645   0.830   6.721 -2.3097 -0.7477  0.8552
  144OSM   H13B15809   1.713   0.922   6.860 -0.4579  1.2406 -0.1315
  144OSM   H13C15810   1.550   0.867   6.860  0.0802  0.0581  2.2273
  144OSM    C1215811   1.640   0.583   6.832  0.1294  0.8786  0.8379
  144OSM   H12A15812   1.538   0.555   6.853 -0.3944  1.1531 -1.1696
  144OSM   H12B15813   1.708   0.504   6.862 -0.1148  0.3828  0.1048
  144OSM    C1115814   1.661   0.571   6.675  0.8905  0.5355 -0.1043
  144OSM   H11A15815   1.596   0.653   6.638 -0.2719  1.0203  2.7329
  144OSM   H11B15816   1.622   0.472   6.643  0.4610  1.2157 -1.7633
  144OSM      P15817   1.886   0.449   6.662  0.5387 -0.0302 -0.3106
  144OSM    O1315818   2.031   0.476   6.658 -0.7606  0.1925 -0.3857
  144OSM    O1415819   1.843   0.381   6.786  0.0917 -0.1913 -0.2693
  144OSM    O1115820   1.835   0.353   6.537 -0.2498  0.1674 -0.7145
  144OSM    O1215821   1.792   0.580   6.641 -0.0618  0.1280  0.0076
  144OSM    C1S15822   1.804   0.414   6.408 -0.1304 -0.0494 -1.0867
  144OSM    H1S15823   1.849   0.516   6.406  0.6135 -0.2474  1.7745
  144OSM    H1T15824   1.694   0.412   6.393 -0.5039 -0.1325  1.3263
  144OSM     NF15825   1.872   0.425   6.174  0.6980 -0.0863 -0.0555
  144OSM    HNF15826   1.806   0.400   6.103 -0.6511 -0.4068  1.2729
  144OSM    C2S15827   1.867   0.343   6.289 -0.0114  0.7775 -0.4567
  144OSM    H2S15828   1.973   0.319   6.314 -0.8314 -3.1817 -0.0938
  144OSM    C3S15829   1.793   0.206   6.277 -0.4273  0.7030 -1.0146
  144OSM    H3S15830   1.684   0.214   6.258 -0.7695 -2.0986 -0.6156
  144OSM     O315831   1.797   0.127   6.398  0.0176  0.6914 -0.0430
  144OSM    HO315832   1.847   0.188   6.452 -0.1173  1.8740 -1.2125
  144OSM    C4S15833   1.842   0.122   6.165 -0.5319 -0.1996 -0.7408
  144OSM    H4S15834   1.801   0.144   6.065  2.3865 -1.1654 -2.2632
  144OSM    C5S15835   1.931   0.024   6.163 -0.5089  0.7573 -0.3929
  144OSM    H5S15836   1.980  -0.008   6.257  0.1384 -0.1314 -1.0251
  144OSM    C6S15837   1.979  -0.050   6.035  0.6045 -0.3318 -1.0023
  144OSM    H6S15838   1.961  -0.159   6.044 -1.4391  0.0632  0.3198
  144OSM    H6T15839   2.089  -0.036   6.034  0.7689 -1.1165  1.1194
  144OSM    C7S15840   1.906  -0.014   5.907  0.5155 -0.5166 -0.2565
  144OSM    H7S15841   1.935   0.091   5.889  0.2909  0.0345  2.2286
  144OSM    H7T15842   1.797  -0.011   5.931  0.8994 -1.4066  1.8335
  144OSM    C8S15843   1.946  -0.105   5.791 -0.1794 -1.2142  0.7685
  144OSM    H8S15844   1.928  -0.208   5.831  0.3293 -2.0001 -0.9252
  144OSM    H8T15845   2.057  -0.100   5.790 -0.2296  0.3850  1.1217
  144OSM    C9S15846   1.899  -0.077   5.643 -0.8039 -0.2520 -0.3829
  144OSM    H9S15847   1.934   0.019   5.601  1.6869 -0.3296  1.2755
  144OSM    H9T15848   1.789  -0.067   5.657 -0.7847 -0.2996 -0.1847
  144OSM   C10S15849   1.934  -0.192   5.539 -0.0840 -0.8862  0.5301
  144OSM   H10S15850   1.919  -0.288   5.592  2.6335 -0.7326  1.7864
  144OSM   H10T15851   2.045  -0.183   5.531 -0.1133 -0.5963  0.4370
  144OSM   C11S15852   1.859  -0.166   5.405  0.1909  0.5607 -0.3996
  144OSM   H11S15853   1.893  -0.065   5.374 -0.0819  0.6263 -0.4900
  144OSM   H11T15854   1.749  -0.161   5.421  0.2123 -1.8219  1.0742
  144OSM   C12S15855   1.888  -0.275   5.300 -0.2483  0.5479  0.1366
  144OSM   H12S15856   1.830  -0.361   5.340 -1.6332  0.7751 -1.2775
  144OSM   H12T15857   1.998  -0.291   5.304 -0.5368 -1.7241  0.2512
  144OSM   C13S15858   1.827  -0.237   5.160 -0.8758  0.6019  0.4915
  144OSM   H13S15859   1.868  -0.138   5.130  0.0455  0.4051  1.0412
  144OSM   H13T15860   1.716  -0.233   5.158 -0.8865  0.4128  0.6444
  144OSM   C14S15861   1.873  -0.349   5.062  0.0145  0.0290 -0.4563
  144OSM   H14S15862   1.851  -0.451   5.098  0.1453  0.2025  0.1238
  144OSM   H14T15863   1.981  -0.324   5.057 -0.4882  2.4030 -0.9345
  144OSM   C15S15864   1.817  -0.336   4.926  0.2194 -0.0168 -0.0765
  144OSM   H15S15865   1.856  -0.244   4.877 -0.3520  0.0210 -0.4780
  144OSM   H15T15866   1.707  -0.331   4.907  0.5806  2.2346 -2.0476
  144OSM   C16S15867   1.861  -0.457   4.829 -0.9097 -0.6316  0.5228
  144OSM   H16S15868   1.844  -0.556   4.878 -1.1421  0.6958  3.2959
  144OSM   H16T15869   1.972  -0.448   4.826 -1.0353  1.1790  0.3660
  144OSM   C17S15870   1.799  -0.448   4.683 -0.3993  0.8146  0.5556
  144OSM   H17S15871   1.806  -0.344   4.645 -0.5323  0.1634 -1.4024
  144OSM   H17T15872   1.689  -0.464   4.688 -0.1997 -0.7279  0.4703
  144OSM   C18S15873   1.862  -0.548   4.590 -0.3334  0.0276 -0.1272
  144OSM   H18S15874   1.969  -0.526   4.572 -0.2187 -0.6713 -0.3271
  144OSM   H18T15875   1.818  -0.532   4.490  0.5490  2.1262 -0.2388
  144OSM   H18U15876   1.841  -0.653   4.620 -2.5225 -0.3428 -2.5585
  144OSM    C1F15877   1.941   0.541   6.155 -0.6288 -0.0684  0.0519
  144OSM     OF15878   2.012   0.592   6.243  0.3373 -0.5388 -0.5073
  144OSM    C2F15879   1.938   0.590   6.017 -0.1840 -0.3814 -0.0921
  144OSM    H2F15880   1.834   0.608   5.981 -0.3352  0.0429  0.5540
  144OSM    H2G15881   1.978   0.505   5.957  0.3266  0.8246 -1.5304
  144OSM    C3F15882   2.020   0.718   5.991  0.0109 -0.1815 -1.0345
  144OSM    H3F15883   2.104   0.723   6.063  1.7576 -1.0417 -2.9030
  144OSM    H3G15884   1.957   0.806   6.017  0.2589 -0.2007 -0.3673
  144OSM    C4F15885   2.070   0.728   5.847  0.9366 -0.0254  0.0073
  144OSM    H4F15886   2.140   0.646   5.822  1.4514 -0.8166  3.4823
  144OSM    H4G15887   2.133   0.819   5.832  3.9870 -1.9371  0.3830
  144OSM    C5F15888   1.973   0.724   5.734  0.0239 -0.6158  0.3456
  144OSM    H5F15889   1.901   0.807   5.747 -0.3074 -1.1659  2.5283
  144OSM    H5G15890   1.898   0.642   5.738  0.4353 -1.1175 -1.3752
  144OSM    C6F15891   2.055   0.731   5.604  0.9944 -0.2907  0.0701
  144OSM    H6F15892   2.113   0.636   5.595  2.9526  0.9385 -0.9478
  144OSM    H6G15893   2.133   0.810   5.606  1.1392 -0.4360  0.2058
  144OSM    C7F15894   1.981   0.744   5.473  0.5152  0.2109 -1.3004
  144OSM    H7F15895   1.928   0.842   5.473 -1.2826 -0.7075 -1.7704
  144OSM    H7G15896   1.893   0.675   5.478 -0.5820  1.6251 -0.0476
  144OSM    C8F15897   2.061   0.730   5.342 -0.0020 -0.1081  0.2457
  144OSM    H8F15898   2.107   0.630   5.351 -0.2562 -0.5442 -2.5924
  144OSM    H8G15899   2.140   0.807   5.354 -1.3094  1.0231  2.3293
  144OSM    C9F15900   1.983   0.756   5.216 -0.3099 -0.0203 -0.4712
  144OSM    H9F15901   1.923   0.848   5.217 -0.6646 -0.1573 -2.7952
  144OSM   C10F15902   1.966   0.663   5.112  0.5626  0.5319 -0.0221
  144OSM   H10F15903   1.901   0.675   5.024 -0.7083  1.0246  0.9562
  144OSM   C11F15904   2.038   0.531   5.106 -0.3347 -0.6954  0.3256
  144OSM   H11F15905   1.967   0.447   5.119 -3.1378  1.5436  0.3968
  144OSM   H11G15906   2.119   0.535   5.183  1.7715  0.5631 -1.7985
  144OSM   C12F15907   2.113   0.520   4.973  0.2296 -0.4970  0.4638
  144OSM   H12F15908   2.178   0.430   4.965 -0.9440 -1.2406 -1.9128
  144OSM   H12G15909   2.183   0.602   4.947  0.0568 -0.1396  1.1209
  144OSM   C13F15910   2.015   0.509   4.852 -0.3211  0.1393  0.3246
  144OSM   H13F15911   1.985   0.611   4.823 -0.8057  0.3956  1.6534
  144OSM   H13G15912   1.927   0.452   4.890 -0.3584 -0.0470 -0.0348
  144OSM   C14F15913   2.097   0.443   4.743 -0.3394 -0.2740 -0.0658
  144OSM   H14F15914   2.117   0.340   4.778  1.1990 -0.0720 -0.3090
  144OSM   H14G15915   2.196   0.492   4.746 -0.3670 -0.2058 -0.2331
  144OSM   C15F15916   2.044   0.474   4.605  0.3239  0.0704 -0.1837
  144OSM   H15F15917   2.006   0.579   4.601 -0.0903 -0.0042  1.3138
  144OSM   H15G15918   1.965   0.405   4.568  0.1247  0.4756 -0.5187
  144OSM   C16F15919   2.155   0.454   4.500  0.0632 -0.9183  0.5379
  144OSM   H16F15920   2.158   0.347   4.472  1.1971 -0.2808 -2.0568
  144OSM   H16G15921   2.254   0.474   4.545 -0.9640  1.5609  1.9103
  144OSM   C17F15922   2.148   0.545   4.377 -0.3609 -0.8426 -0.2384
  144OSM   H17F15923   2.150   0.647   4.421 -0.1861 -0.9400 -0.0150
  144OSM   H17G15924   2.050   0.530   4.328  0.6729 -3.5366 -1.6688
  144OSM   C18F15925   2.259   0.520   4.280 -0.3891 -0.2659  0.1320
  144OSM   H18F15926   2.354   0.568   4.313 -1.4511  0.5210  2.2920
  144OSM   H18G15927   2.233   0.559   4.180 -0.0083 -0.1491  0.0780
  144OSM   H18H15928   2.268   0.411   4.262 -4.0220 -0.5914 -0.4774
  145OSM      N15929   1.188   4.202   7.088  0.0384 -0.0113 -0.0296
  145OSM    C1515930   1.274   4.222   7.209  0.3630  0.1611  0.5055
  145OSM   H15A15931   1.207   4.240   7.291  0.4773 -0.2588  0.6949
  145OSM   H15B15932   1.334   4.310   7.188  0.8403 -0.6665 -2.0862
  145OSM   H15C15933   1.342   4.140   7.227 -0.0551 -0.0421  1.1607
  145OSM    C1415934   1.099   4.087   7.128 -0.5453  1.0473  0.4163
  145OSM   H14A15935   1.161   4.000   7.142  0.1402  1.5061  0.2446
  145OSM   H14B15936   1.032   4.073   7.045  0.3720 -0.5569 -0.1024
  145OSM   H14C15937   1.050   4.115   7.220  1.8882 -1.7188  2.7720
  145OSM    C1315938   1.099   4.326   7.068  0.3085 -0.1372 -0.5092
  145OSM   H13A15939   1.058   4.337   7.168  0.2019 -3.0874 -0.1278
  145OSM   H13B15940   1.012   4.307   7.007  0.8282  0.2728 -1.3928
  145OSM   H13C15941   1.140   4.417   7.028 -0.7577  0.5063 -0.1856
  145OSM    C1215942   1.269   4.171   6.966  0.3793 -0.0904  0.2198
  145OSM   H12A15943   1.327   4.083   6.989 -0.2721 -0.9920 -1.4366
  145OSM   H12B15944   1.339   4.252   6.957 -0.5216  0.7245  0.3154
  145OSM    C1115945   1.201   4.160   6.821  0.0850  0.1442 -0.5841
  145OSM   H11A15946   1.128   4.076   6.823  1.5477 -1.1489  0.2850
  145OSM   H11B15947   1.273   4.144   6.737  1.0720  1.1699  0.0350
  145OSM      P15948   1.155   4.408   6.736 -0.2657 -0.0930  0.1150
  145OSM    O1315949   1.036   4.495   6.761  0.2599  0.2934  0.1442
  145OSM    O1415950   1.289   4.446   6.784 -0.5681 -0.2653 -0.3796
  145OSM    O1115951   1.157   4.388   6.580  0.2290  0.0345  0.1485
  145OSM    O1215952   1.117   4.272   6.789 -0.7119  0.0842 -0.0816
  145OSM    C1S15953   1.088   4.282   6.520 -0.3489 -0.3521  0.4773
  145OSM    H1S15954   0.978   4.302   6.521 -0.4381 -0.8353  0.5739
  145OSM    H1T15955   1.109   4.187   6.572 -2.1385 -0.7327  0.5796
  145OSM     NF15956   1.048   4.143   6.318  0.4507 -0.0342  0.1393
  145OSM    HNF15957   1.067   4.046   6.306 -0.9454 -0.1018 -1.9684
  145OSM    C2S15958   1.135   4.251   6.375  0.4011 -0.3400 -1.0464
  145OSM    H2S15959   1.126   4.347   6.318 -1.7529  0.0579 -0.1094
  145OSM    C3S15960   1.291   4.202   6.370  0.0700 -0.0371 -0.1280
  145OSM    H3S15961   1.299   4.100   6.413 -1.6747 -0.3139 -0.3740
  145OSM     O315962   1.380   4.269   6.460 -0.8944  0.0233  0.2763
  145OSM    HO315963   1.331   4.301   6.536 -0.6981 -1.4100  1.0272
  145OSM    C4S15964   1.349   4.195   6.226  0.3221 -0.2523  0.3168
  145OSM    H4S15965   1.353   4.097   6.176 -0.0122  0.2307 -0.6713
  145OSM    C5S15966   1.411   4.301   6.162 -0.0767  0.2636 -1.0692
  145OSM    H5S15967   1.428   4.388   6.228  0.6951  0.3957 -1.4296
  145OSM    C6S15968   1.477   4.299   6.027  0.0769 -0.0583  0.2236
  145OSM    H6S15969   1.507   4.194   6.007 -2.3157 -0.6397 -0.6771
  145OSM    H6T15970   1.572   4.357   6.025  0.1091 -0.0351  1.6431
  145OSM    C7S15971   1.370   4.338   5.924 -0.7712  0.3225 -0.3288
  145OSM    H7S15972   1.327   4.435   5.955 -2.1666 -0.9566  2.0318
  145OSM    H7T15973   1.285   4.266   5.925  0.5433 -1.3026  1.6021
  145OSM    C8S15974   1.423   4.354   5.780  0.7614 -0.4016  0.0797
  145OSM    H8S15975   1.529   4.384   5.768 -0.0076  2.0698 -1.0870
  145OSM    H8T15976   1.362   4.431   5.728 -2.2151 -3.7631 -1.9058
  145OSM    C9S15977   1.406   4.217   5.700  0.2548  0.6205 -0.2856
  145OSM    H9S15978   1.298   4.207   5.678 -0.1062  3.0995  0.0673
  145OSM    H9T15979   1.446   4.137   5.767  0.5555 -0.1878 -1.4025
  145OSM   C10S15980   1.478   4.218   5.565  0.6348 -0.3438  0.8420
  145OSM   H10S15981   1.500   4.114   5.531 -2.0805 -1.1826  1.3451
  145OSM   H10T15982   1.574   4.273   5.573  0.6007 -0.3597  1.4390
  145OSM   C11S15983   1.399   4.274   5.446  0.2363  0.1468  0.0050
  145OSM   H11S15984   1.342   4.368   5.460 -0.9452 -0.4152 -0.8757
  145OSM   H11T15985   1.321   4.197   5.427  0.1063  0.1938  0.3457
  145OSM   C12S15986   1.483   4.276   5.313 -0.0843 -0.4616  0.1182
  145OSM   H12S15987   1.509   4.170   5.292  0.3957 -0.2911 -0.1464
  145OSM   H12T15988   1.577   4.331   5.330  0.5971 -0.9426 -1.7940
  145OSM   C13S15989   1.408   4.335   5.191 -0.4568 -0.1003 -0.2241
  145OSM   H13S15990   1.367   4.436   5.214 -0.5523  0.0039 -0.8500
  145OSM   H13T15991   1.325   4.265   5.169  1.2844 -1.6271 -2.2615
  145OSM   C14S15992   1.490   4.343   5.060  0.0749  0.1829 -0.1855
  145OSM   H14S15993   1.517   4.241   5.024  3.8448  0.4260  1.4960
  145OSM   H14T15994   1.590   4.388   5.076 -0.1320  0.3013  0.8282
  145OSM   C15S15995   1.398   4.418   4.964 -0.2158 -0.3015  0.7600
  145OSM   H15S15996   1.345   4.510   4.999 -0.7491  0.6676 -2.3456
  145OSM   H15T15997   1.311   4.353   4.941 -0.5035  0.0041  0.9613
  145OSM   C16S15998   1.468   4.455   4.835 -0.6117 -0.8008  1.2131
  145OSM   H16S15999   1.561   4.515   4.841  1.2072 -3.0420 -1.4069
  145OSM   H16T16000   1.395   4.514   4.777  0.5527 -1.1372 -0.7032
  145OSM   C17S16001   1.503   4.342   4.736  0.1612 -0.3678  0.0239
  145OSM   H17S16002   1.411   4.279   4.739 -1.2521  1.6030 -0.1676
  145OSM   H17T16003   1.584   4.277   4.775 -0.3724 -1.6339 -0.9193
  145OSM   C18S16004   1.546   4.382   4.602 -0.5875 -0.8482  1.1441
  145OSM   H18S16005   1.476   4.462   4.569  1.3467  0.1598 -0.7067
  145OSM   H18T16006   1.551   4.295   4.533  0.3671 -0.2551  0.4486
  145OSM   H18U16007   1.644   4.434   4.606 -1.2534  1.0213 -2.4644
  145OSM    C1F16008   0.929   4.178   6.281 -0.1098  0.9774  0.8944
  145OSM     OF16009   0.886   4.291   6.301  0.0192 -0.2892  0.0779
  145OSM    C2F16010   0.837   4.067   6.218 -0.0947 -0.1927 -0.2247
  145OSM    H2F16011   0.777   4.033   6.305 -0.4125  3.9609  1.3967
  145OSM    H2G16012   0.902   3.987   6.176  0.1766  1.2850 -2.7970
  145OSM    C3F16013   0.756   4.133   6.104 -0.4517 -0.3539  0.7195
  145OSM    H3F16014   0.707   4.224   6.144  0.7184  1.8239 -2.4248
  145OSM    H3G16015   0.672   4.069   6.068 -1.2300 -0.6326  2.9120
  145OSM    C4F16016   0.834   4.171   5.973 -0.1755 -0.9510 -0.9935
  145OSM    H4F16017   0.882   4.082   5.929  2.2591 -1.3954  2.1815
  145OSM    H4G16018   0.921   4.232   6.005  1.3562 -3.0500 -0.9954
  145OSM    C5F16019   0.754   4.258   5.870 -0.6649 -0.3326  1.0934
  145OSM    H5F16020   0.732   4.351   5.927 -0.2495  1.7609 -1.9266
  145OSM    H5G16021   0.655   4.217   5.842  0.5607 -1.1919 -2.5848
  145OSM    C6F16022   0.826   4.284   5.737  0.2176 -0.0890  0.1645
  145OSM    H6F16023   0.854   4.188   5.688 -2.3747 -1.5090  1.2888
  145OSM    H6G16024   0.920   4.341   5.754  0.2404  0.6221 -1.9983
  145OSM    C7F16025   0.742   4.375   5.638 -0.2498 -0.0908 -0.1828
  145OSM    H7F16026   0.713   4.472   5.682 -0.1787 -0.4772  0.7359
  145OSM    H7G16027   0.648   4.322   5.612 -0.4326  0.6327 -1.0697
  145OSM    C8F16028   0.824   4.395   5.509  0.6212 -0.1356 -0.0081
  145OSM    H8F16029   0.855   4.296   5.470 -0.6375  0.2298 -2.1461
  145OSM    H8G16030   0.917   4.448   5.536  0.0140  0.7168  0.4742
  145OSM    C9F16031   0.756   4.486   5.411 -0.5181  0.2810  0.5349
  145OSM    H9F16032   0.765   4.589   5.448  1.2424  0.3677 -0.0049
  145OSM   C10F16033   0.690   4.464   5.300 -0.1067 -0.1625  0.7884
  145OSM   H10F16034   0.669   4.546   5.229  0.2111 -1.5831 -1.0209
  145OSM   C11F16035   0.683   4.329   5.231  0.0214  0.6328  0.3279
  145OSM   H11F16036   0.603   4.320   5.155 -0.0380 -0.2118  0.4852
  145OSM   H11G16037   0.662   4.251   5.307 -0.0371 -0.6375 -0.9635
  145OSM   C12F16038   0.821   4.290   5.164  0.2625  0.2496 -0.3487
  145OSM   H12F16039   0.900   4.292   5.242 -0.4654  1.7530  0.3855
  145OSM   H12G16040   0.857   4.362   5.088 -1.0560 -1.9485 -3.2602
  145OSM   C13F16041   0.819   4.145   5.109 -0.2133  0.1439  0.4514
  145OSM   H13F16042   0.800   4.080   5.197  1.0274 -2.0537 -0.8115
  145OSM   H13G16043   0.925   4.127   5.082 -0.7679 -0.5617 -1.3366
  145OSM   C14F16044   0.727   4.106   4.991  0.1194  0.0706  0.5575
  145OSM   H14F16045   0.624   4.132   5.022  0.7616  1.9904  1.2548
  145OSM   H14G16046   0.739   3.996   4.986  0.8371  0.1907 -1.4347
  145OSM   C15F16047   0.761   4.169   4.854  0.9490  0.7507 -0.2677
  145OSM   H15F16048   0.865   4.149   4.821  1.0349 -0.0976  0.4800
  145OSM   H15G16049   0.748   4.279   4.866  1.1810  0.7844 -0.3308
  145OSM   C16F16050   0.663   4.122   4.751 -0.2133 -0.4367  0.2882
  145OSM   H16F16051   0.676   4.182   4.659 -2.0239 -0.7746 -0.2185
  145OSM   H16G16052   0.562   4.153   4.786 -0.6833 -0.6304 -0.8791
  145OSM   C17F16053   0.656   3.974   4.715 -0.0657 -0.3748  0.2135
  145OSM   H17F16054   0.640   3.908   4.803 -0.2536 -1.4530 -0.6062
  145OSM   H17G16055   0.755   3.946   4.672  0.8473  1.4397  1.0253
  145OSM   C18F16056   0.543   3.952   4.604 -0.2342  0.3815 -1.1230
  145OSM   H18F16057   0.561   3.849   4.565  0.9575 -0.3484  1.2178
  145OSM   H18G16058   0.550   4.030   4.526  0.0730  0.7118 -0.7657
  145OSM   H18H16059   0.440   3.960   4.645 -0.2596  1.8552 -1.4196
  146OSM      N16060   6.267   5.221   6.765 -0.0341 -1.4084 -0.1756
  146OSM    C1516061   6.116   5.188   6.752 -0.4734 -0.7608  0.2637
  146OSM   H15A16062   6.100   5.139   6.657  0.1230 -0.8802  0.2154
  146OSM   H15B16063   6.055   5.276   6.765 -0.0419 -0.6004  1.3118
  146OSM   H15C16064   6.088   5.119   6.830  0.9074  0.1209  1.6001
  146OSM    C1416065   6.279   5.313   6.883 -0.5980  0.2819 -0.2102
  146OSM   H14A16066   6.383   5.339   6.895 -0.6561  2.0524 -2.8581
  146OSM   H14B16067   6.241   5.278   6.978  4.9826  0.3223  2.4036
  146OSM   H14C16068   6.243   5.414   6.868  1.6397  1.5400  2.0540
  146OSM    C1316069   6.350   5.094   6.777 -0.9732 -0.2007 -0.6920
  146OSM   H13A16070   6.315   5.017   6.710 -1.1901  0.1567 -0.9979
  146OSM   H13B16071   6.340   5.052   6.876  0.6699  1.1948  0.1222
  146OSM   H13C16072   6.451   5.109   6.742 -1.1796 -0.9616 -1.6693
  146OSM    C1216073   6.303   5.292   6.633 -0.7335 -0.0985 -0.9411
  146OSM   H12A16074   6.263   5.242   6.546 -0.4221 -0.8167 -0.6756
  146OSM   H12B16075   6.410   5.281   6.621 -0.5691  0.2645  0.0979
  146OSM    C1116076   6.261   5.443   6.619 -0.0743  0.1422  0.3715
  146OSM   H11A16077   6.157   5.448   6.655  1.0160  4.1347  3.7779
  146OSM   H11B16078   6.259   5.469   6.511  0.4862 -2.8220 -0.4623
  146OSM      P16079   6.497   5.557   6.672  0.3231  0.1302 -0.0978
  146OSM    O1316080   6.537   5.661   6.768 -0.4377 -0.2699  0.2714
  146OSM    O1416081   6.567   5.424   6.696  0.4259  0.1377 -0.0507
  146OSM    O1116082   6.522   5.598   6.520 -0.1958 -0.0091  0.2859
  146OSM    O1216083   6.343   5.536   6.686  0.2173 -0.4976 -0.5505
  146OSM    C1S16084   6.530   5.498   6.413 -0.2409  0.0460 -0.3227
  146OSM    H1S16085   6.433   5.443   6.409  1.6348 -3.6178 -0.4416
  146OSM    H1T16086   6.607   5.420   6.433 -1.9618 -1.5531  0.4375
  146OSM     NF16087   6.492   5.493   6.147 -0.2226 -0.1339  0.1538
  146OSM    HNF16088   6.555   5.443   6.090  1.1781 -0.1253  1.6182
  146OSM    C2S16089   6.553   5.563   6.266  0.2575  0.0491  0.4766
  146OSM    H2S16090   6.493   5.656   6.270 -1.3725 -0.7938 -2.0990
  146OSM    C3S16091   6.700   5.594   6.262 -0.1398 -0.3294 -0.2346
  146OSM    H3S16092   6.763   5.503   6.264 -0.7266 -0.7296  0.7491
  146OSM     O316093   6.750   5.672   6.368  0.3091 -0.2972  0.2390
  146OSM    HO316094   6.687   5.671   6.440  0.4170  0.7383  0.3617
  146OSM    C4S16095   6.729   5.665   6.134 -0.2738 -0.0010  0.5352
  146OSM    H4S16096   6.701   5.771   6.124 -0.7720 -0.0225  1.5468
  146OSM    C5S16097   6.796   5.608   6.035  0.3618  0.3868  0.2199
  146OSM    H5S16098   6.840   5.508   6.040  2.3867  1.1271 -1.2576
  146OSM    C6S16099   6.834   5.675   5.901 -0.1128  0.6886  0.4979
  146OSM    H6S16100   6.944   5.690   5.892 -0.2953  1.5711 -0.4573
  146OSM    H6T16101   6.791   5.776   5.892 -2.6784  0.0346  3.7091
  146OSM    C7S16102   6.786   5.601   5.768  0.6464  0.1092 -0.5049
  146OSM    H7S16103   6.677   5.579   5.770  0.8408 -0.8083  0.4272
  146OSM    H7T16104   6.825   5.497   5.762 -1.8437 -0.8815 -0.6738
  146OSM    C8S16105   6.829   5.682   5.641 -0.3727 -0.1467  0.1872
  146OSM    H8S16106   6.935   5.657   5.620 -1.1411 -1.9240 -1.8694
  146OSM    H8T16107   6.819   5.791   5.662  2.9763  0.7375 -1.9924
  146OSM    C9S16108   6.748   5.626   5.519 -0.5512 -0.1368  0.1913
  146OSM    H9S16109   6.640   5.652   5.521 -0.5511 -0.1445  0.3147
  146OSM    H9T16110   6.751   5.515   5.516 -0.5374 -0.1147 -0.5944
  146OSM   C10S16111   6.815   5.670   5.389  0.0209  0.0160  0.4755
  146OSM   H10S16112   6.913   5.619   5.376  0.3978  0.2772  2.0350
  146OSM   H10T16113   6.841   5.778   5.393 -3.2284  1.1299 -3.1387
  146OSM   C11S16114   6.728   5.627   5.266  0.3402 -0.6371  0.0210
  146OSM   H11S16115   6.643   5.699   5.258  1.1637  0.2419 -1.2371
  146OSM   H11T16116   6.688   5.525   5.285  2.3088 -1.7726 -1.6269
  146OSM   C12S16117   6.803   5.632   5.130  0.2011  0.6544 -0.4061
  146OSM   H12S16118   6.908   5.595   5.125  0.3798  1.3612 -3.5455
  146OSM   H12T16119   6.824   5.735   5.094 -1.7393  1.3168  0.2278
  146OSM   C13S16120   6.725   5.565   5.012 -0.8411 -0.5932  0.0826
  146OSM   H13S16121   6.676   5.470   5.043 -0.5645 -1.3028 -1.5626
  146OSM   H13T16122   6.805   5.550   4.937  0.3891 -1.4632  1.5118
  146OSM   C14S16123   6.600   5.646   4.957 -0.6667  0.9066 -1.0244
  146OSM   H14S16124   6.619   5.755   4.962 -0.7745  0.8730  1.0399
  146OSM   H14T16125   6.518   5.628   5.031  0.1074 -0.5349 -0.4807
  146OSM   C15S16126   6.558   5.607   4.819  0.2399  0.2643 -0.4317
  146OSM   H15S16127   6.469   5.669   4.797 -0.0482  0.1718  0.4432
  146OSM   H15T16128   6.532   5.499   4.819  1.3527 -0.0471 -2.2383
  146OSM   C16S16129   6.672   5.630   4.718  0.7436  0.3898  0.1319
  146OSM   H16S16130   6.756   5.560   4.737  1.0329  0.4998 -0.6976
  146OSM   H16T16131   6.697   5.738   4.723  1.2886  0.2400  0.8621
  146OSM   C17S16132   6.614   5.588   4.581 -0.5291  0.1461 -0.0491
  146OSM   H17S16133   6.520   5.645   4.564 -1.2010 -0.5230  1.2693
  146OSM   H17T16134   6.586   5.481   4.569  0.4789 -0.0594 -0.6097
  146OSM   C18S16135   6.704   5.631   4.467 -0.5523  0.4526  0.5205
  146OSM   H18S16136   6.747   5.727   4.501  1.4108 -1.2911  3.3965
  146OSM   H18T16137   6.640   5.645   4.376  2.0920 -0.9604 -1.7077
  146OSM   H18U16138   6.780   5.553   4.445 -2.2000 -1.5713  1.5946
  146OSM    C1F16139   6.358   5.466   6.142 -0.0555 -0.0564  0.3264
  146OSM     OF16140   6.275   5.520   6.212  0.3784  0.3877 -0.3961
  146OSM    C2F16141   6.324   5.352   6.048  0.6368  0.1110  0.9690
  146OSM    H2F16142   6.279   5.273   6.112  0.2322 -1.5762 -1.2526
  146OSM    H2G16143   6.417   5.311   6.003  0.4458  1.9462 -1.2969
  146OSM    C3F16144   6.218   5.405   5.948  0.2827  0.6237 -0.0871
  146OSM    H3F16145   6.241   5.498   5.892  0.3360 -0.5348 -2.0731
  146OSM    H3G16146   6.128   5.434   6.007  1.5004  4.5322  0.1578
  146OSM    C4F16147   6.181   5.304   5.840  0.0459 -0.6334 -0.7669
  146OSM    H4F16148   6.167   5.200   5.878  1.8015 -1.7169 -2.8545
  146OSM    H4G16149   6.268   5.294   5.771 -1.6085 -0.7214 -2.9236
  146OSM    C5F16150   6.061   5.351   5.760 -0.1325 -0.1574 -0.6052
  146OSM    H5F16151   6.088   5.446   5.709  0.2405  1.7371  2.7629
  146OSM    H5G16152   5.976   5.379   5.826  0.8429 -0.8382  1.0040
  146OSM    C6F16153   6.009   5.245   5.661  0.4157 -0.2583  0.1102
  146OSM    H6F16154   5.978   5.154   5.717 -2.5050 -0.1533 -1.1294
  146OSM    H6G16155   6.089   5.224   5.587  2.2302  1.4307  1.4699
  146OSM    C7F16156   5.886   5.297   5.590  0.0343  0.1074  0.2411
  146OSM    H7F16157   5.920   5.399   5.564 -0.0770 -0.4488 -2.3236
  146OSM    H7G16158   5.791   5.311   5.647 -2.2034  0.7758 -3.3331
  146OSM    C8F16159   5.851   5.226   5.457 -0.2430  0.8830  0.2963
  146OSM    H8F16160   5.763   5.281   5.417 -2.2764 -0.0159  3.2101
  146OSM    H8G16161   5.813   5.125   5.480  0.1945 -0.0225 -2.5819
  146OSM    C9F16162   5.968   5.199   5.353 -0.2352 -0.1728  0.0594
  146OSM    H9F16163   6.038   5.122   5.390 -0.9537 -1.5768 -1.3714
  146OSM   C10F16164   5.969   5.244   5.224 -0.0212  0.1719 -1.1585
  146OSM   H10F16165   6.043   5.218   5.147  2.3130  0.3898  0.8990
  146OSM   C11F16166   5.853   5.322   5.167 -0.4509  0.5460 -0.7181
  146OSM   H11F16167   5.900   5.416   5.129 -0.8500  0.6627 -0.9250
  146OSM   H11G16168   5.773   5.355   5.236  0.3706 -0.5550  0.8179
  146OSM   C12F16169   5.785   5.265   5.043 -0.6274  0.3677  0.2404
  146OSM   H12F16170   5.736   5.168   5.067 -1.4265  0.8157  0.4547
  146OSM   H12G16171   5.860   5.233   4.967  0.4445 -1.4998  1.9760
  146OSM   C13F16172   5.688   5.366   4.994  0.0139 -0.4836  0.3660
  146OSM   H13F16173   5.738   5.465   4.984 -3.4336  1.5180  1.1701
  146OSM   H13G16174   5.599   5.378   5.059  0.8589 -0.4515  1.5351
  146OSM   C14F16175   5.618   5.331   4.862 -0.7268  0.3170 -0.2172
  146OSM   H14F16176   5.694   5.284   4.796 -1.1555 -1.5599  0.5606
  146OSM   H14G16177   5.541   5.254   4.887  0.1964 -0.2916  0.8620
  146OSM   C15F16178   5.560   5.453   4.794 -0.1745 -0.7132  0.1909
  146OSM   H15F16179   5.635   5.535   4.792  0.6882 -1.4501  1.2366
  146OSM   H15G16180   5.471   5.479   4.855 -0.1157 -0.0147 -0.0160
  146OSM   C16F16181   5.513   5.415   4.655 -0.5427  0.0032 -0.0019
  146OSM   H16F16182   5.443   5.329   4.662  1.4428 -1.5771  1.6834
  146OSM   H16G16183   5.597   5.376   4.595  0.6598 -0.6636  2.0195
  146OSM   C17F16184   5.439   5.527   4.592 -0.1830 -0.4928 -0.4661
  146OSM   H17F16185   5.502   5.618   4.595 -2.5400  1.1821  1.1524
  146OSM   H17G16186   5.338   5.542   4.635  0.7101  3.0467  0.6788
  146OSM   C18F16187   5.415   5.493   4.447  0.3270  0.2241 -0.4477
  146OSM   H18F16188   5.357   5.570   4.392  0.8970  0.9112 -0.0978
  146OSM   H18G16189   5.353   5.401   4.445  1.0308 -0.2475 -0.7504
  146OSM   H18H16190   5.513   5.469   4.401  0.9533  2.0613 -0.1574
  147OSM      N16191   5.224   0.714   1.903 -0.6071 -0.4877  0.3098
  147OSM    C1516192   5.299   0.601   1.977 -0.3446  0.2078  0.6809
  147OSM   H15A16193   5.314   0.509   1.923  2.9268 -0.3732  2.3644
  147OSM   H15B16194   5.232   0.580   2.059 -1.5089  1.8929  0.2142
  147OSM   H15C16195   5.391   0.637   2.021  1.2863 -1.8512 -0.8478
  147OSM    C1416196   5.294   0.746   1.775 -0.1478 -0.4598  0.1080
  147OSM   H14A16197   5.292   0.667   1.701 -1.5820  0.5862 -1.0256
  147OSM   H14B16198   5.400   0.761   1.785 -0.1181 -0.6310  0.0546
  147OSM   H14C16199   5.252   0.833   1.727  2.6261  1.1083  0.3290
  147OSM    C1316200   5.088   0.666   1.871 -0.1334 -0.0071  0.3253
  147OSM   H13A16201   5.034   0.640   1.961  0.7909  0.3016  0.9871
  147OSM   H13B16202   5.084   0.575   1.811 -1.9255 -0.5449  1.1928
  147OSM   H13C16203   5.023   0.739   1.826 -0.6303  0.7085  2.1526
  147OSM    C1216204   5.212   0.840   1.984  0.4569 -0.2513 -0.3921
  147OSM   H12A16205   5.179   0.819   2.085  1.4271  2.7054  0.6504
  147OSM   H12B16206   5.134   0.897   1.935 -1.4994 -1.1849  1.4746
  147OSM    C1116207   5.336   0.925   1.988 -0.4202  1.1247 -0.0134
  147OSM   H11A16208   5.364   0.969   1.889  0.6520 -0.2366 -0.3425
  147OSM   H11B16209   5.424   0.859   2.003 -1.1652  0.4223  1.4685
  147OSM      P16210   5.206   1.129   2.077 -0.3381 -0.1483  0.3480
  147OSM    O1316211   5.243   1.260   2.136 -0.2178 -0.1145  0.0354
  147OSM    O1416212   5.165   1.136   1.932 -0.3278 -0.1980 -0.1296
  147OSM    O1116213   5.091   1.056   2.157 -0.9428  0.5038  0.3744
  147OSM    O1216214   5.335   1.030   2.084 -0.3641  0.2286  0.3760
  147OSM    C1S16215   5.115   1.027   2.300 -0.2424 -0.3788  0.2564
  147OSM    H1S16216   5.139   1.121   2.354 -2.1033  0.3742 -0.1601
  147OSM    H1T16217   5.200   0.956   2.310 -0.5385 -0.8896 -0.6971
  147OSM     NF16218   5.048   0.917   2.497  0.4773 -0.6696 -0.2812
  147OSM    HNF16219   5.072   0.825   2.526 -0.4065 -1.2218 -1.2145
  147OSM    C2S16220   5.004   0.945   2.366  0.0024 -0.0817  0.3231
  147OSM    H2S16221   4.909   1.002   2.374 -0.5649 -0.5096 -2.4345
  147OSM    C3S16222   4.972   0.813   2.282 -0.1775  0.3040 -0.3533
  147OSM    H3S16223   5.069   0.761   2.271  0.0958  0.2909  1.8299
  147OSM     O316224   4.928   0.830   2.147 -0.4551  0.1544  0.1963
  147OSM    HO316225   4.950   0.923   2.140  2.2864 -0.2899  1.4182
  147OSM    C4S16226   4.874   0.731   2.351  0.0843  0.3718 -0.3547
  147OSM    H4S16227   4.919   0.642   2.399  1.2751 -0.2510 -2.4946
  147OSM    C5S16228   4.738   0.740   2.358  0.1096  0.2956 -0.1889
  147OSM    H5S16229   4.688   0.821   2.303  0.1684  0.1687 -0.4317
  147OSM    C6S16230   4.648   0.640   2.431  0.4628 -0.8724 -0.6182
  147OSM    H6S16231   4.556   0.624   2.372 -1.4599  1.0096  1.6749
  147OSM    H6T16232   4.619   0.692   2.525  1.9621 -0.0643 -0.5708
  147OSM    C7S16233   4.705   0.508   2.469  0.7737  0.6601  0.2922
  147OSM    H7S16234   4.776   0.458   2.400  0.4418 -3.0472  2.3500
  147OSM    H7T16235   4.624   0.434   2.491  0.3839  1.1424  0.5001
  147OSM    C8S16236   4.790   0.517   2.599  0.2658 -0.2679  0.1942
  147OSM    H8S16237   4.818   0.624   2.610  1.1852 -0.5698  0.8966
  147OSM    H8T16238   4.884   0.463   2.572  1.0739 -0.5685  3.2420
  147OSM    C9S16239   4.736   0.441   2.720  0.2631  0.1395 -0.0581
  147OSM    H9S16240   4.717   0.337   2.685 -2.4198  1.0903 -1.6476
  147OSM    H9T16241   4.632   0.476   2.733  0.7839  1.1297  1.7722
  147OSM   C10S16242   4.818   0.454   2.850 -0.3692  0.3257  0.1739
  147OSM   H10S16243   4.816   0.556   2.893  2.3321 -0.2767  1.9956
  147OSM   H10T16244   4.924   0.427   2.831  0.4331  2.5253  1.1517
  147OSM   C11S16245   4.776   0.365   2.977  0.4408 -0.4147 -0.0980
  147OSM   H11S16246   4.760   0.264   2.934  1.6357 -1.1386  1.0796
  147OSM   H11T16247   4.674   0.389   3.014  1.6256 -0.2060  3.4354
  147OSM   C12S16248   4.885   0.361   3.081  0.6702  0.4273 -0.0543
  147OSM   H12S16249   4.901   0.465   3.115  1.6331  0.2215  0.1491
  147OSM   H12T16250   4.978   0.326   3.033  0.6433  1.8220 -1.2011
  147OSM   C13S16251   4.850   0.265   3.196  0.1605 -0.1139 -0.5704
  147OSM   H13S16252   4.819   0.167   3.153  0.1962 -1.6139  2.5400
  147OSM   H13T16253   4.754   0.308   3.230 -0.6712 -1.2540 -1.4057
  147OSM   C14S16254   4.952   0.254   3.304 -0.1859  0.1264 -0.3416
  147OSM   H14S16255   4.985   0.359   3.320  0.7029 -0.3496  1.2160
  147OSM   H14T16256   5.043   0.196   3.279 -0.8400 -0.6938 -0.8710
  147OSM   C15S16257   4.884   0.177   3.423 -0.5611 -0.5127  0.5252
  147OSM   H15S16258   4.852   0.076   3.391 -2.3947  1.0999 -3.5194
  147OSM   H15T16259   4.805   0.241   3.467  0.3746  2.2302 -1.4476
  147OSM   C16S16260   4.980   0.155   3.538 -0.1656  0.5001  0.9744
  147OSM   H16S16261   5.002   0.259   3.571 -0.9425  0.4656  1.6359
  147OSM   H16T16262   5.060   0.093   3.491 -0.8204 -1.4814  2.3340
  147OSM   C17S16263   4.919   0.087   3.663  0.1892 -0.2828 -0.2381
  147OSM   H17S16264   4.823   0.128   3.703 -0.0613 -1.2595  0.1967
  147OSM   H17T16265   4.992   0.104   3.745  0.0894 -1.2658  0.0668
  147OSM   C18S16266   4.886  -0.061   3.644 -0.4270  0.5513 -0.9742
  147OSM   H18S16267   4.819  -0.097   3.725 -0.4761  0.8955 -0.8593
  147OSM   H18T16268   4.976  -0.124   3.660 -1.4657 -0.6727  0.3003
  147OSM   H18U16269   4.833  -0.089   3.551  1.6428 -1.3507 -1.6917
  147OSM    C1F16270   5.067   1.009   2.593 -0.3877  0.3302  0.1370
  147OSM     OF16271   5.042   1.128   2.569  0.1497  0.1626  0.8386
  147OSM    C2F16272   5.122   0.951   2.730  0.0180 -0.5565  0.3674
  147OSM    H2F16273   5.228   0.972   2.759 -0.8202  1.1774  2.4338
  147OSM    H2G16274   5.097   0.843   2.726 -3.4809  0.0722  1.7991
  147OSM    C3F16275   5.026   0.988   2.844  0.3167  0.3008 -0.5798
  147OSM    H3F16276   5.059   0.925   2.929  1.2373  1.6348  0.0984
  147OSM    H3G16277   4.927   0.951   2.810  1.0889 -1.2767 -1.1957
  147OSM    C4F16278   5.031   1.133   2.889 -0.4709 -0.4570 -0.4114
  147OSM    H4F16279   4.956   1.161   2.965  1.3774 -1.7310  2.0086
  147OSM    H4G16280   5.020   1.204   2.803  0.6523 -0.2480 -0.3967
  147OSM    C5F16281   5.164   1.176   2.952  0.8517 -0.0108  0.4923
  147OSM    H5F16282   5.161   1.285   2.973  0.0501  0.3446 -1.2979
  147OSM    H5G16283   5.243   1.151   2.879  1.0100 -4.1921  1.8380
  147OSM    C6F16284   5.211   1.110   3.082  0.4790 -0.0761 -0.5469
  147OSM    H6F16285   5.322   1.110   3.089  0.4270 -0.9883  0.4676
  147OSM    H6G16286   5.169   1.008   3.079 -3.9428  1.4496  1.1334
  147OSM    C7F16287   5.169   1.181   3.209 -1.5308  0.1009 -0.1695
  147OSM    H7F16288   5.146   1.288   3.190  0.3560  0.3966 -1.0570
  147OSM    H7G16289   5.246   1.176   3.289  1.1581  0.0382 -2.6129
  147OSM    C8F16290   5.035   1.121   3.263  0.7747  0.5410 -0.4771
  147OSM    H8F16291   5.060   1.020   3.301  0.0693 -0.0175 -1.4596
  147OSM    H8G16292   4.971   1.090   3.178  0.0712 -2.6943  1.0929
  147OSM    C9F16293   4.956   1.209   3.352  0.0510 -0.1667 -0.0488
  147OSM    H9F16294   4.883   1.271   3.300 -1.1221 -2.6922 -1.6136
  147OSM   C10F16295   4.955   1.213   3.485  0.4765  0.2342 -0.4811
  147OSM   H10F16296   4.894   1.289   3.537 -0.7145 -1.2504  0.3818
  147OSM   C11F16297   5.035   1.127   3.575 -0.3268 -0.1478  0.3231
  147OSM   H11F16298   5.084   1.178   3.660 -0.1305  0.3727 -0.0963
  147OSM   H11G16299   5.118   1.084   3.514 -1.7452 -1.2865 -0.8636
  147OSM   C12F16300   4.952   1.014   3.637  0.1521 -0.0292 -0.0847
  147OSM   H12F16301   5.031   0.957   3.690 -0.0123 -1.7806 -1.6470
  147OSM   H12G16302   4.929   0.940   3.558 -0.4188  0.1293 -0.0687
  147OSM   C13F16303   4.848   1.054   3.735  0.2358 -0.0403  0.6529
  147OSM   H13F16304   4.769   1.116   3.687  1.0861 -0.5484 -1.5005
  147OSM   H13G16305   4.880   1.131   3.809  1.5732 -0.2846  0.3573
  147OSM   C14F16306   4.783   0.933   3.804 -0.3871 -0.1173  0.0371
  147OSM   H14F16307   4.857   0.851   3.813 -0.0456  0.1279 -0.4767
  147OSM   H14G16308   4.717   0.888   3.728 -1.6331  1.7855 -0.0911
  147OSM   C15F16309   4.701   0.964   3.931 -0.4323 -0.2238  0.3672
  147OSM   H15F16310   4.698   1.074   3.951 -1.1707 -0.6432  2.8066
  147OSM   H15G16311   4.752   0.939   4.026  0.7948  0.8044  0.0166
  147OSM   C16F16312   4.558   0.918   3.917 -0.0995 -0.3755 -0.0656
  147OSM   H16F16313   4.525   0.923   3.811  0.0018 -2.3658 -0.2443
  147OSM   H16G16314   4.495   0.987   3.977 -0.1496 -1.6383  1.3924
  147OSM   C17F16315   4.536   0.771   3.944  0.2493 -0.0306  0.0873
  147OSM   H17F16316   4.562   0.730   4.044 -0.9427 -1.6738 -0.2351
  147OSM   H17G16317   4.612   0.720   3.881  0.0959  1.4285 -1.3274
  147OSM   C18F16318   4.395   0.712   3.925  0.1658 -0.1539  0.0703
  147OSM   H18F16319   4.399   0.602   3.916  1.2136 -0.2692  1.6237
  147OSM   H18G16320   4.348   0.757   3.834 -1.4291 -0.8857  0.5014
  147OSM   H18H16321   4.338   0.722   4.020  1.2151  1.0681  0.6047
  148OSM      N16322   3.613   2.630   2.224  0.8424  0.6995  1.0611
  148OSM    C1516323   3.679   2.606   2.094 -0.6014 -0.0415  0.7037
  148OSM   H15A16324   3.775   2.559   2.106  0.5806  2.0808 -0.0606
  148OSM   H15B16325   3.690   2.703   2.049 -1.5475 -0.6359 -0.8783
  148OSM   H15C16326   3.621   2.540   2.031  0.4534 -0.5130  0.2153
  148OSM    C1416327   3.595   2.500   2.297 -0.1129  0.5688 -0.3654
  148OSM   H14A16328   3.507   2.448   2.262 -0.4979 -0.6578  2.1955
  148OSM   H14B16329   3.573   2.508   2.402 -2.3004 -0.4467 -0.7038
  148OSM   H14C16330   3.678   2.434   2.279 -0.9627 -0.0267 -2.4170
  148OSM    C1316331   3.700   2.721   2.303  0.7690  0.5189  0.2029
  148OSM   H13A16332   3.687   2.719   2.410  0.3532  1.2825  0.1789
  148OSM   H13B16333   3.688   2.825   2.276 -2.0980  0.3570  0.5767
  148OSM   H13C16334   3.804   2.713   2.274  0.5351  1.9941 -1.2057
  148OSM    C1216335   3.478   2.697   2.209  1.2027  0.6939 -0.0762
  148OSM   H12A16336   3.483   2.788   2.152 -2.1361  0.7486 -0.5004
  148OSM   H12B16337   3.455   2.737   2.307  0.0603  0.3207 -0.1715
  148OSM    C1116338   3.364   2.602   2.156 -0.3749 -0.2293 -0.2363
  148OSM   H11A16339   3.401   2.552   2.064 -0.8805 -0.1779 -0.4689
  148OSM   H11B16340   3.287   2.671   2.115 -1.3006 -1.0246  0.1331
  148OSM      P16341   3.191   2.437   2.235  0.0516  0.4622  0.0421
  148OSM    O1316342   3.084   2.539   2.210  0.2806 -0.3000 -0.0181
  148OSM    O1416343   3.222   2.338   2.125 -0.8711 -0.0979 -0.5555
  148OSM    O1116344   3.162   2.360   2.368 -0.1840  0.9934  0.0656
  148OSM    O1216345   3.321   2.511   2.259 -0.5181  0.1790 -0.7259
  148OSM    C1S16346   3.274   2.343   2.461  0.4597 -0.5406  0.4787
  148OSM    H1S16347   3.285   2.438   2.517 -0.3671 -0.4142  0.4390
  148OSM    H1T16348   3.376   2.329   2.418  0.1250  1.2642 -1.0234
  148OSM     NF16349   3.317   2.255   2.685 -0.3274  0.4413  0.4836
  148OSM    HNF16350   3.386   2.185   2.698  1.5989  2.2324  0.5395
  148OSM    C2S16351   3.243   2.234   2.570 -0.2119  0.3091 -0.7161
  148OSM    H2S16352   3.136   2.263   2.582 -0.2168  0.3725 -0.9165
  148OSM    C3S16353   3.258   2.102   2.497  0.4502 -0.4168  0.1675
  148OSM    H3S16354   3.363   2.088   2.464  0.2296 -0.4849 -0.5437
  148OSM     O316355   3.187   2.101   2.371  0.0345 -0.3162 -0.2668
  148OSM    HO316356   3.161   2.193   2.375 -0.9927 -0.4657  5.6533
  148OSM    C4S16357   3.216   1.984   2.586  0.4469  0.2633  0.2467
  148OSM    H4S16358   3.298   1.930   2.638 -0.6022 -0.8086  0.8393
  148OSM    C5S16359   3.090   1.944   2.616 -0.5772 -1.1202  0.2608
  148OSM    H5S16360   3.014   2.004   2.566 -0.3375  0.5647  1.8161
  148OSM    C6S16361   3.051   1.844   2.717 -0.2817  1.1280  0.1409
  148OSM    H6S16362   3.016   1.755   2.662  3.5943  0.4261 -1.4974
  148OSM    H6T16363   2.964   1.863   2.783 -0.6779 -1.3530  0.4172
  148OSM    C7S16364   3.156   1.798   2.820 -0.0356  0.0206  1.3091
  148OSM    H7S16365   3.206   1.887   2.863  0.5419 -1.3194  3.5602
  148OSM    H7T16366   3.235   1.734   2.773 -1.8969 -0.7634 -0.9910
  148OSM    C8S16367   3.100   1.726   2.940 -0.3541  1.0770 -0.0397
  148OSM    H8S16368   3.184   1.682   2.998 -1.4389 -2.3271 -0.8328
  148OSM    H8T16369   3.043   1.639   2.903 -0.0897  0.7304  0.3581
  148OSM    C9S16370   3.038   1.819   3.038  0.8332  0.6438 -0.4171
  148OSM    H9S16371   2.951   1.858   2.980 -0.4066 -2.4366 -0.8234
  148OSM    H9T16372   3.101   1.906   3.068  1.1150 -0.0518  1.0988
  148OSM   C10S16373   2.983   1.740   3.148 -0.1027  0.0227  0.8769
  148OSM   H10S16374   3.058   1.694   3.215 -1.0094 -1.0231  1.2194
  148OSM   H10T16375   2.939   1.649   3.102  1.4874 -0.0837 -0.4988
  148OSM   C11S16376   2.894   1.813   3.240 -0.3594  0.6685 -0.1445
  148OSM   H11S16377   2.792   1.820   3.195 -1.2513 -2.8075  1.0803
  148OSM   H11T16378   2.937   1.914   3.262 -0.4214  0.5824  0.3778
  148OSM   C12S16379   2.892   1.757   3.380 -0.3969  0.7682 -0.3800
  148OSM   H12S16380   2.992   1.776   3.424 -1.5364  1.4452  2.0564
  148OSM   H12T16381   2.887   1.646   3.380  1.8014  0.4701  3.6239
  148OSM   C13S16382   2.794   1.833   3.467 -0.3627 -0.3550 -0.1492
  148OSM   H13S16383   2.688   1.802   3.453 -0.3926 -0.7860  0.9748
  148OSM   H13T16384   2.815   1.942   3.461  3.5570 -0.9438  0.4770
  148OSM   C14S16385   2.818   1.805   3.618  0.3475  0.2609  0.1257
  148OSM   H14S16386   2.737   1.867   3.662  0.6515  0.7013  0.0725
  148OSM   H14T16387   2.916   1.840   3.654  0.4182 -0.2585  0.4423
  148OSM   C15S16388   2.791   1.663   3.655 -0.7413  0.6170  0.1993
  148OSM   H15S16389   2.861   1.596   3.599  1.4748  0.0509  3.3566
  148OSM   H15T16390   2.689   1.622   3.638 -1.5042  2.6508 -0.3721
  148OSM   C16S16391   2.822   1.638   3.803  0.4226  0.4512  1.1407
  148OSM   H16S16392   2.752   1.701   3.862 -0.7319 -0.8371  1.1909
  148OSM   H16T16393   2.930   1.664   3.807  0.3321  1.6532 -1.5809
  148OSM   C17S16394   2.810   1.494   3.845  0.0284  0.0211 -0.2330
  148OSM   H17S16395   2.871   1.434   3.775 -0.7319 -0.4757 -0.4788
  148OSM   H17T16396   2.709   1.450   3.839  0.3922 -1.0210  0.9451
  148OSM   C18S16397   2.848   1.485   4.000  0.0774  0.9058  0.4001
  148OSM   H18S16398   2.769   1.524   4.068  0.0133 -0.1773  0.9674
  148OSM   H18T16399   2.935   1.553   4.012  0.3876  0.4887  0.5413
  148OSM   H18U16400   2.881   1.383   4.030 -2.3209 -0.4189 -1.1099
  148OSM    C1F16401   3.301   2.349   2.775  0.3941  0.0149 -0.1815
  148OSM     OF16402   3.200   2.421   2.776 -0.3600  0.3099  0.0046
  148OSM    C2F16403   3.417   2.350   2.875 -0.6909 -0.6657 -0.0902
  148OSM    H2F16404   3.447   2.455   2.893 -0.4380 -1.1468  2.6542
  148OSM    H2G16405   3.497   2.282   2.838 -1.3524 -1.6176  0.1838
  148OSM    C3F16406   3.365   2.295   3.006  0.9015 -0.1799 -0.4874
  148OSM    H3F16407   3.307   2.203   2.985 -1.5354  1.3359 -0.8442
  148OSM    H3G16408   3.282   2.359   3.042  0.3194 -1.2548  0.1312
  148OSM    C4F16409   3.470   2.282   3.114  0.1542  0.3721  0.0505
  148OSM    H4F16410   3.521   2.375   3.148 -0.1656 -0.0240  1.7007
  148OSM    H4G16411   3.540   2.202   3.082  0.8519  1.3084 -0.8466
  148OSM    C5F16412   3.407   2.216   3.246 -0.7998 -0.1730 -0.5363
  148OSM    H5F16413   3.339   2.132   3.219  0.0240 -0.9180 -0.3412
  148OSM    H5G16414   3.344   2.296   3.291  0.7095  0.4650  0.5002
  148OSM    C6F16415   3.510   2.172   3.342 -0.5341  0.2559  0.2183
  148OSM    H6F16416   3.583   2.250   3.375 -0.9236  0.5603  0.3623
  148OSM    H6G16417   3.575   2.097   3.291  1.1763  0.4606  2.0007
  148OSM    C7F16418   3.461   2.111   3.475 -0.0238 -0.4697  0.5066
  148OSM    H7F16419   3.389   2.028   3.458 -0.5436 -0.6483  3.0780
  148OSM    H7G16420   3.403   2.184   3.535  0.0396 -0.4533  0.5482
  148OSM    C8F16421   3.561   2.037   3.556 -0.7255  0.8489 -0.1182
  148OSM    H8F16422   3.613   1.958   3.498  1.9575  2.2003  0.3103
  148OSM    H8G16423   3.502   1.985   3.635  3.0426 -0.8145  1.8520
  148OSM    C9F16424   3.659   2.127   3.623 -0.3586  0.2660  0.1441
  148OSM    H9F16425   3.704   2.202   3.555 -1.9862  0.8357 -0.3440
  148OSM   C10F16426   3.686   2.141   3.755 -0.2199  0.3952  0.5839
  148OSM   H10F16427   3.773   2.203   3.781  0.5411  0.1209 -1.1356
  148OSM   C11F16428   3.633   2.059   3.874 -0.9057 -0.2869  0.1944
  148OSM   H11F16429   3.727   2.011   3.908  0.0560 -0.1940 -2.1529
  148OSM   H11G16430   3.558   1.980   3.852 -2.3730  0.7350  1.2741
  148OSM   C12F16431   3.578   2.142   3.986  0.9929  0.3950  0.3371
  148OSM   H12F16432   3.492   2.192   3.938 -1.1817  0.5271  3.9872
  148OSM   H12G16433   3.650   2.218   4.022  0.8728  1.1058 -0.8864
  148OSM   C13F16434   3.541   2.060   4.106  0.0465 -0.0982  0.1861
  148OSM   H13F16435   3.627   2.002   4.146 -0.4149 -1.1650 -0.3034
  148OSM   H13G16436   3.467   1.978   4.086  0.1672 -0.1088 -0.2305
  148OSM   C14F16437   3.488   2.153   4.212 -0.2153 -0.9783  0.2336
  148OSM   H14F16438   3.392   2.200   4.180  0.2151 -1.1885 -1.5017
  148OSM   H14G16439   3.559   2.237   4.229  0.5799 -1.5460 -0.1894
  148OSM   C15F16440   3.480   2.073   4.341  0.4363  0.2415  0.4746
  148OSM   H15F16441   3.561   1.997   4.343  0.6220  0.0840 -3.7730
  148OSM   H15G16442   3.385   2.018   4.327 -0.2555  1.8973 -2.2601
  148OSM   C16F16443   3.482   2.157   4.467  0.7510  1.2517 -0.0457
  148OSM   H16F16444   3.378   2.183   4.497  0.3436 -0.4944  0.1894
  148OSM   H16G16445   3.531   2.253   4.442  1.3721  0.9245 -0.1006
  148OSM   C17F16446   3.541   2.079   4.591 -0.1839 -0.8519  0.4506
  148OSM   H17F16447   3.648   2.062   4.568  0.3725  0.4078  1.9911
  148OSM   H17G16448   3.488   1.987   4.624 -0.3725 -0.6144  0.8099
  148OSM   C18F16449   3.545   2.176   4.709  0.4636 -0.7751 -0.2109
  148OSM   H18F16450   3.442   2.191   4.748  0.3461  1.8035 -1.2760
  148OSM   H18G16451   3.590   2.269   4.668  0.6252 -1.0258 -0.6008
  148OSM   H18H16452   3.609   2.142   4.794  1.9233  1.5946 -0.2487
  149OSM      N16453   2.303   6.606   1.651 -1.1526 -0.1942 -0.1471
  149OSM    C1516454   2.221   6.725   1.690 -0.4591  0.2819  0.5598
  149OSM   H15A16455   2.280   6.807   1.728 -1.2383  2.2978 -2.2701
  149OSM   H15B16456   2.159   6.698   1.774  0.6202  0.7670  1.5493
  149OSM   H15C16457   2.174   6.767   1.602  2.9221  2.2640 -0.5219
  149OSM    C1416458   2.207   6.504   1.601 -0.1214 -0.1203  0.0655
  149OSM   H14A16459   2.141   6.539   1.522 -0.0267 -1.7587 -0.7838
  149OSM   H14B16460   2.156   6.448   1.679  0.1426 -1.6401 -0.8074
  149OSM   H14C16461   2.263   6.439   1.535  1.1873  0.0531  0.9720
  149OSM    C1316462   2.397   6.642   1.545 -0.0350  0.1074  0.3866
  149OSM   H13A16463   2.457   6.729   1.565  0.4626  0.6390 -2.8716
  149OSM   H13B16464   2.339   6.658   1.455  1.0248 -1.8189 -0.7130
  149OSM   H13C16465   2.462   6.564   1.509 -2.0187 -1.8449  0.7403
  149OSM    C1216466   2.384   6.547   1.765  0.8910 -0.0915 -0.9297
  149OSM   H12A16467   2.325   6.534   1.854  0.1422  0.0538 -1.3924
  149OSM   H12B16468   2.460   6.617   1.797  1.3290 -1.1280  0.4237
  149OSM    C1116469   2.447   6.405   1.739 -0.3153  0.1574 -0.0657
  149OSM   H11A16470   2.531   6.392   1.811 -1.7834 -1.0946  1.5206
  149OSM   H11B16471   2.490   6.410   1.637  1.1965  1.4387  0.5897
  149OSM      P16472   2.340   6.195   1.856 -0.0524 -0.4915 -0.5837
  149OSM    O1316473   2.221   6.213   1.937  0.1947 -0.2414  0.6000
  149OSM    O1416474   2.373   6.061   1.799 -0.8763  0.5659 -0.9180
  149OSM    O1116475   2.462   6.246   1.946  0.3052 -0.0211 -0.1755
  149OSM    O1216476   2.347   6.306   1.741 -0.8706 -0.2996 -0.3891
  149OSM    C1S16477   2.457   6.352   2.041 -0.1742 -0.3755 -0.2303
  149OSM    H1S16478   2.373   6.422   2.023 -0.2391 -0.2699  0.4495
  149OSM    H1T16479   2.555   6.404   2.045 -0.0777 -0.4637 -1.2167
  149OSM     NF16480   2.405   6.414   2.278  0.3404 -0.9549  0.3257
  149OSM    HNF16481   2.471   6.455   2.340 -1.0582  1.3639  0.4099
  149OSM    C2S16482   2.443   6.305   2.190 -0.2690 -0.0840 -0.2178
  149OSM    H2S16483   2.353   6.240   2.191 -0.2763 -0.0955 -1.2522
  149OSM    C3S16484   2.562   6.226   2.250 -0.2237  0.1863 -0.5040
  149OSM    H3S16485   2.652   6.290   2.261  0.4806 -0.4429 -2.2519
  149OSM     O316486   2.605   6.116   2.172  0.2356 -0.6195  0.3246
  149OSM    HO316487   2.561   6.137   2.089 -3.0062 -0.8577  1.8169
  149OSM    C4S16488   2.519   6.172   2.385  0.2463  0.1878 -0.8354
  149OSM    H4S16489   2.450   6.087   2.382 -0.2273  0.4728  0.9295
  149OSM    C5S16490   2.560   6.209   2.509  0.0453  0.3555  0.0193
  149OSM    H5S16491   2.636   6.288   2.515 -0.0828  0.7146 -2.0802
  149OSM    C6S16492   2.500   6.137   2.630 -0.2704 -0.2699 -0.0452
  149OSM    H6S16493   2.420   6.068   2.596  1.3034 -2.0356 -0.3190
  149OSM    H6T16494   2.456   6.214   2.697  1.3926  0.1078  0.6557
  149OSM    C7S16495   2.612   6.059   2.708  0.1245 -0.0187  1.0480
  149OSM    H7S16496   2.686   6.140   2.721  0.2892 -0.1099  0.7063
  149OSM    H7T16497   2.657   5.978   2.645  0.2810  0.3226  0.7167
  149OSM    C8S16498   2.568   6.008   2.843  0.3297 -0.2869  0.2424
  149OSM    H8S16499   2.491   6.077   2.884  0.8504  0.6605 -0.3283
  149OSM    H8T16500   2.653   6.002   2.915  0.8126  1.6684 -0.1013
  149OSM    C9S16501   2.509   5.863   2.840  0.1451  0.9247  0.6051
  149OSM    H9S16502   2.590   5.788   2.831 -2.4330 -2.0009  0.0422
  149OSM    H9T16503   2.440   5.846   2.754  0.3072  0.5941  0.5367
  149OSM   C10S16504   2.424   5.823   2.963  0.1094 -0.0240 -0.5063
  149OSM   H10S16505   2.395   5.720   2.933 -0.2828  0.1330 -0.6762
  149OSM   H10T16506   2.345   5.901   2.972  0.7165  0.5444  0.0657
  149OSM   C11S16507   2.514   5.805   3.093 -0.2958 -0.0520  0.0079
  149OSM   H11S16508   2.566   5.898   3.124  0.3606 -1.3963  3.3122
  149OSM   H11T16509   2.599   5.737   3.070  0.0415 -0.4650  2.2509
  149OSM   C12S16510   2.445   5.728   3.202 -0.1680 -0.0113  0.0305
  149OSM   H12S16511   2.420   5.629   3.158 -0.0222 -0.5603  1.1579
  149OSM   H12T16512   2.346   5.775   3.222 -0.6500 -0.3271 -1.4717
  149OSM   C13S16513   2.532   5.696   3.317  0.0983  0.4285 -0.5580
  149OSM   H13S16514   2.557   5.796   3.358 -2.8801  1.6831 -1.5506
  149OSM   H13T16515   2.632   5.654   3.291  0.0844  0.8268 -1.2783
  149OSM   C14S16516   2.476   5.612   3.426 -0.5768 -0.2599 -1.0301
  149OSM   H14S16517   2.451   5.508   3.396 -1.7891 -0.5491  0.7795
  149OSM   H14T16518   2.375   5.643   3.460 -0.0243 -0.7121  1.2106
  149OSM   C15S16519   2.586   5.591   3.533 -0.0189  0.1047 -0.6332
  149OSM   H15S16520   2.608   5.689   3.581  1.5332 -0.9318  0.8541
  149OSM   H15T16521   2.674   5.554   3.476  0.3185 -1.6670  0.9600
  149OSM   C16S16522   2.567   5.481   3.639 -0.0412  0.0492  0.1304
  149OSM   H16S16523   2.577   5.398   3.566 -0.4855  0.7070 -0.7013
  149OSM   H16T16524   2.467   5.494   3.687  0.2594 -1.1965  1.1238
  149OSM   C17S16525   2.673   5.457   3.751 -0.4642  0.4223 -0.1365
  149OSM   H17S16526   2.634   5.369   3.806  1.1517 -0.3190 -0.1112
  149OSM   H17T16527   2.675   5.548   3.815 -0.8373  1.1514 -1.1196
  149OSM   C18S16528   2.810   5.426   3.691  0.3402  0.0755  0.0725
  149OSM   H18S16529   2.887   5.418   3.771  0.7261  0.9451 -0.2005
  149OSM   H18T16530   2.830   5.518   3.632 -1.0321 -1.2423 -2.6560
  149OSM   H18U16531   2.810   5.338   3.623 -0.1461 -1.7083  2.2591
  149OSM    C1F16532   2.286   6.474   2.288 -0.2359  0.7965  0.2038
  149OSM     OF16533   2.194   6.426   2.219 -0.2933 -0.7999  0.0268
  149OSM    C2F16534   2.259   6.595   2.375  0.0309  0.6902 -0.2074
  149OSM    H2F16535   2.178   6.655   2.328 -1.0530  0.0644  0.8265
  149OSM    H2G16536   2.355   6.650   2.384  0.1003  0.5675 -0.1909
  149OSM    C3F16537   2.216   6.547   2.520 -0.5853  0.0754 -0.6602
  149OSM    H3F16538   2.298   6.493   2.570  0.5457  1.1393 -1.3028
  149OSM    H3G16539   2.130   6.483   2.491  0.9100 -1.0366 -2.9309
  149OSM    C4F16540   2.168   6.664   2.611 -0.2236  0.3942 -0.2917
  149OSM    H4F16541   2.086   6.717   2.557  0.8130 -0.5951 -3.0425
  149OSM    H4G16542   2.253   6.734   2.628  0.9959 -1.1258  0.0634
  149OSM    C5F16543   2.121   6.613   2.755 -0.1954  0.4687 -0.3782
  149OSM    H5F16544   2.054   6.530   2.724  0.1273  0.0550  0.0259
  149OSM    H5G16545   2.058   6.687   2.808 -0.3000  0.6840 -0.7992
  149OSM    C6F16546   2.234   6.574   2.843  0.1086  0.0738 -0.0084
  149OSM    H6F16547   2.293   6.667   2.859  1.1671 -0.9330  2.4741
  149OSM    H6G16548   2.300   6.497   2.799 -0.2369  1.7099 -3.8460
  149OSM    C7F16549   2.201   6.504   2.976  0.1775  0.4730 -0.5263
  149OSM    H7F16550   2.210   6.393   2.968  2.5208  0.1891  3.3608
  149OSM    H7G16551   2.094   6.523   3.000  0.0858  1.2975 -1.5376
  149OSM    C8F16552   2.288   6.557   3.084  0.8990  0.2551 -0.4366
  149OSM    H8F16553   2.241   6.525   3.179 -0.4714  0.4761 -1.0124
  149OSM    H8G16554   2.300   6.667   3.073 -0.4685  0.3633 -1.0900
  149OSM    C9F16555   2.430   6.507   3.072 -0.1344  0.5123  0.5249
  149OSM    H9F16556   2.496   6.585   3.033 -0.9908  0.3250 -1.4283
  149OSM   C10F16557   2.484   6.384   3.098  0.0511 -0.4051 -0.3990
  149OSM   H10F16558   2.593   6.370   3.086 -0.2414 -3.0509 -0.4775
  149OSM   C11F16559   2.403   6.272   3.170 -0.8052  0.2083 -0.5174
  149OSM   H11F16560   2.387   6.180   3.111 -0.3388  0.0322 -0.3741
  149OSM   H11G16561   2.302   6.307   3.199 -0.5384  0.2363  0.4155
  149OSM   C12F16562   2.492   6.241   3.300 -0.7263 -0.4048  0.9029
  149OSM   H12F16563   2.478   6.326   3.369 -3.1161 -0.4447  0.5499
  149OSM   H12G16564   2.599   6.222   3.276 -1.3631 -1.9326 -1.0143
  149OSM   C13F16565   2.433   6.127   3.379 -0.7185 -1.0567 -0.0630
  149OSM   H13F16566   2.444   6.035   3.316 -0.4303 -0.0065 -1.5929
  149OSM   H13G16567   2.328   6.133   3.416 -1.2514  0.6970 -1.6914
  149OSM   C14F16568   2.509   6.119   3.512 -0.2785  0.1927 -0.3252
  149OSM   H14F16569   2.487   6.221   3.548  0.2688 -0.3493  1.6654
  149OSM   H14G16570   2.618   6.112   3.490 -0.1850  1.0229 -0.1412
  149OSM   C15F16571   2.469   6.017   3.617  0.4852 -0.1096  0.6804
  149OSM   H15F16572   2.456   5.912   3.580 -2.0917  0.3429  0.0829
  149OSM   H15G16573   2.370   6.051   3.653  0.6962 -1.1291  2.2998
  149OSM   C16F16574   2.569   6.010   3.733  0.7693  0.5227 -1.0768
  149OSM   H16F16575   2.578   6.115   3.769 -1.8886 -0.0126  1.6139
  149OSM   H16G16576   2.669   5.973   3.704  1.5719  0.4311  1.5160
  149OSM   C17F16577   2.516   5.933   3.857 -0.2603 -0.5092 -0.8034
  149OSM   H17F16578   2.419   5.979   3.886  0.6843  0.7861  0.4179
  149OSM   H17G16579   2.579   5.955   3.945 -1.2343 -1.0874  0.0569
  149OSM   C18F16580   2.489   5.782   3.840 -0.3611 -0.0546  0.3639
  149OSM   H18F16581   2.410   5.770   3.763  0.7662 -0.4928 -0.7604
  149OSM   H18G16582   2.446   5.734   3.930 -2.5612 -1.7127 -1.4579
  149OSM   H18H16583   2.590   5.740   3.817 -0.8022 -1.1304  0.3807
  150OSM      N16584   0.066   2.053   2.122  0.1630  0.3581 -0.1356
  150OSM    C1516585  -0.027   2.002   2.011  0.3841 -0.7080  0.4473
  150OSM   H15A16586  -0.028   2.066   1.925 -1.4173 -1.0740  0.1662
  150OSM   H15B16587  -0.129   1.997   2.046  0.2190 -0.0760  0.0579
  150OSM   H15C16588   0.003   1.900   1.992  2.2435 -0.3980  1.4787
  150OSM    C1416589   0.211   2.039   2.086  0.5123 -0.3068  0.5867
  150OSM   H14A16590   0.236   2.114   2.012  1.9447 -1.8731 -0.5866
  150OSM   H14B16591   0.238   1.948   2.036  0.6739 -1.0020  1.8794
  150OSM   H14C16592   0.276   2.065   2.168 -0.1721  0.7728  0.8101
  150OSM    C1316593   0.035   2.198   2.137 -0.1685  0.1051  0.2977
  150OSM   H13A16594   0.069   2.248   2.048  0.3684 -1.0635 -0.1714
  150OSM   H13B16595   0.099   2.240   2.214  2.1004 -0.1942 -1.3328
  150OSM   H13C16596  -0.068   2.231   2.143 -0.6211 -0.8818 -1.4430
  150OSM    C1216597   0.033   1.976   2.251  0.0091 -1.0334  0.5484
  150OSM   H12A16598   0.090   2.022   2.330 -1.4803  2.9925 -0.4325
  150OSM   H12B16599   0.064   1.873   2.245  0.2274 -1.1119  2.4883
  150OSM    C1116600  -0.113   1.989   2.301  0.4332  0.3870  0.0645
  150OSM   H11A16601  -0.155   2.081   2.257 -1.1215  0.3854  1.4513
  150OSM   H11B16602  -0.096   1.990   2.411  1.8718  2.1092 -0.1334
  150OSM      P16603  -0.342   1.853   2.282 -0.0503 -0.3960  0.1533
  150OSM    O1316604  -0.407   1.948   2.190 -0.3110  0.1189  0.4969
  150OSM    O1416605  -0.371   1.708   2.273  0.3520  0.1104  0.2418
  150OSM    O1116606  -0.370   1.908   2.431 -0.1559  0.1630  0.4380
  150OSM    O1216607  -0.183   1.874   2.258  0.7430  0.3357 -0.5215
  150OSM    C1S16608  -0.324   1.835   2.546  0.2471 -0.1290 -0.3108
  150OSM    H1S16609  -0.218   1.802   2.541 -0.0054 -0.8240 -1.6497
  150OSM    H1T16610  -0.389   1.747   2.569  0.3099 -0.1582 -0.2426
  150OSM     NF16611  -0.285   1.839   2.791 -0.3305  0.1163 -0.2442
  150OSM    HNF16612  -0.351   1.806   2.858 -0.8441 -0.3099 -0.9501
  150OSM    C2S16613  -0.331   1.918   2.678  0.4988 -0.3877  0.1620
  150OSM    H2S16614  -0.261   2.004   2.671 -1.2737  1.1007 -0.0850
  150OSM    C3S16615  -0.473   1.986   2.694 -0.1166 -0.3603 -0.3768
  150OSM    H3S16616  -0.547   1.904   2.708 -1.3717  0.3127 -2.5558
  150OSM     O316617  -0.531   2.043   2.577  0.4047 -0.2393 -0.2930
  150OSM    HO316618  -0.470   2.024   2.505 -0.2462 -2.7608 -0.2621
  150OSM    C4S16619  -0.487   2.066   2.820 -0.0887 -0.4012 -0.0000
  150OSM    H4S16620  -0.519   2.016   2.913 -0.6498  1.3457  0.7841
  150OSM    C5S16621  -0.450   2.198   2.826 -0.4085 -0.1661 -0.7737
  150OSM    H5S16622  -0.402   2.250   2.741  1.8198 -2.7707 -1.2598
  150OSM    C6S16623  -0.485   2.285   2.943 -0.2688  0.4099  0.6276
  150OSM    H6S16624  -0.593   2.309   2.935 -0.2529  0.5786  0.8983
  150OSM    H6T16625  -0.420   2.375   2.948 -0.1625  0.5068 -1.4985
  150OSM    C7S16626  -0.474   2.228   3.091 -0.6041 -0.2599  0.0182
  150OSM    H7S16627  -0.393   2.152   3.100  0.0530  0.5358  0.8842
  150OSM    H7T16628  -0.563   2.165   3.113 -1.0519  0.5257  0.5117
  150OSM    C8S16629  -0.454   2.340   3.194  0.2971  0.4361 -0.5944
  150OSM    H8S16630  -0.545   2.404   3.189  0.3848  0.5970 -0.2097
  150OSM    H8T16631  -0.371   2.402   3.155 -1.3091  3.1860  0.1010
  150OSM    C9S16632  -0.439   2.293   3.341  0.6654 -0.4337  0.2988
  150OSM    H9S16633  -0.435   2.385   3.403  1.7793  1.3550 -2.2446
  150OSM    H9T16634  -0.335   2.255   3.350  1.9716  2.2332 -2.1601
  150OSM   C10S16635  -0.550   2.209   3.400 -0.5346  0.3615  0.4616
  150OSM   H10S16636  -0.572   2.125   3.332  3.2854 -3.1969  3.1203
  150OSM   H10T16637  -0.637   2.278   3.386  0.1723  1.1771 -0.0117
  150OSM   C11S16638  -0.530   2.173   3.545  1.1230  0.1578  0.2049
  150OSM   H11S16639  -0.621   2.114   3.570  0.6329  0.0720 -1.6319
  150OSM   H11T16640  -0.531   2.267   3.604  2.7273  0.6178 -0.4499
  150OSM   C12S16641  -0.403   2.092   3.582  0.4985 -0.0336 -0.1749
  150OSM   H12S16642  -0.320   2.113   3.512  2.7363  1.2868  2.6947
  150OSM   H12T16643  -0.432   1.987   3.558 -0.9871  0.8303 -2.5874
  150OSM   C13S16644  -0.361   2.092   3.730  0.3203 -0.2256  0.0637
  150OSM   H13S16645  -0.326   2.192   3.762  0.3770 -0.5651  1.1150
  150OSM   H13T16646  -0.277   2.021   3.740 -0.1124 -0.5751  1.4842
  150OSM   C14S16647  -0.471   2.034   3.820 -0.1010  1.1405  0.1948
  150OSM   H14S16648  -0.480   1.926   3.796 -0.1744  1.6564 -2.3122
  150OSM   H14T16649  -0.570   2.083   3.817 -1.2769 -1.1708 -0.7378
  150OSM   C15S16650  -0.424   2.051   3.965  0.5132  0.0108  0.9444
  150OSM   H15S16651  -0.429   2.160   3.986  1.8013  0.3736 -0.4864
  150OSM   H15T16652  -0.317   2.021   3.977  0.5478  0.5866  2.2777
  150OSM   C16S16653  -0.532   1.985   4.058 -0.2863  0.5218 -0.0383
  150OSM   H16S16654  -0.530   1.879   4.026 -2.9414 -0.2266  1.9240
  150OSM   H16T16655  -0.629   2.028   4.026 -0.4409 -1.2930 -2.3013
  150OSM   C17S16656  -0.502   2.008   4.207 -0.1334  0.1288 -0.0441
  150OSM   H17S16657  -0.391   2.001   4.216  0.1396  0.7129 -2.3842
  150OSM   H17T16658  -0.546   1.922   4.261 -0.6547  0.8189  0.6649
  150OSM   C18S16659  -0.547   2.139   4.285  0.0465  0.0600 -0.0111
  150OSM   H18S16660  -0.519   2.135   4.392  0.5046  0.3639 -0.1166
  150OSM   H18T16661  -0.656   2.163   4.276 -0.1354 -0.0288  1.7283
  150OSM   H18U16662  -0.487   2.223   4.243  0.5474  1.1333  2.6696
  150OSM    C1F16663  -0.160   1.797   2.799 -0.1877 -1.5815 -0.4513
  150OSM     OF16664  -0.074   1.845   2.722 -0.0643  0.1022  0.2151
  150OSM    C2F16665  -0.124   1.701   2.909 -0.3441  1.2429  0.3157
  150OSM    H2F16666  -0.137   1.605   2.853  0.9968  2.1889 -1.7544
  150OSM    H2G16667  -0.196   1.713   2.993 -2.1302  1.1457 -1.1288
  150OSM    C3F16668   0.025   1.713   2.955  0.2333  0.7138 -0.2038
  150OSM    H3F16669   0.049   1.812   2.999  0.6767  0.7723 -0.5688
  150OSM    H3G16670   0.088   1.695   2.865  0.5447 -0.7870  0.2879
  150OSM    C4F16671   0.065   1.601   3.057  0.0637 -0.3002  0.0278
  150OSM    H4F16672   0.174   1.606   3.074  0.3560  0.9758 -1.9029
  150OSM    H4G16673   0.032   1.504   3.012 -0.1528 -1.3899  2.3629
  150OSM    C5F16674   0.007   1.601   3.196  0.3897 -0.4839 -0.6473
  150OSM    H5F16675  -0.101   1.577   3.190  0.5964 -1.6839  0.1648
  150OSM    H5G16676   0.008   1.706   3.232  0.1572 -0.3795 -0.9358
  150OSM    C6F16677   0.096   1.521   3.295  0.2213 -0.1401 -0.2778
  150OSM    H6F16678   0.185   1.582   3.321 -0.4442  0.4087  0.7915
  150OSM    H6G16679   0.128   1.435   3.232 -0.1988  1.5066 -2.9116
  150OSM    C7F16680   0.021   1.484   3.419  0.1254  0.5383  0.1448
  150OSM    H7F16681  -0.059   1.416   3.384  1.7115 -0.5267 -1.5923
  150OSM    H7G16682  -0.041   1.565   3.463 -1.4330 -1.6654  2.2826
  150OSM    C8F16683   0.119   1.413   3.517  0.7462 -0.3181 -0.1164
  150OSM    H8F16684   0.203   1.474   3.556  1.4979 -1.7975  0.6863
  150OSM    H8G16685   0.183   1.335   3.469  1.6698 -0.2356  0.9384
  150OSM    C9F16686   0.043   1.348   3.633 -0.6710 -0.6423  0.3086
  150OSM    H9F16687  -0.055   1.395   3.650 -1.1784 -1.6842  0.3823
  150OSM   C10F16688   0.073   1.237   3.691 -0.0837 -0.3644 -0.8344
  150OSM   H10F16689   0.006   1.202   3.771  1.4278 -0.8015  0.2825
  150OSM   C11F16690   0.178   1.147   3.650 -0.9382  0.8336  0.4911
  150OSM   H11F16691   0.240   1.133   3.741  0.1306  0.1579 -0.3159
  150OSM   H11G16692   0.251   1.188   3.576  0.3655 -0.1877  1.1681
  150OSM   C12F16693   0.122   1.009   3.600 -0.3532  0.3479  0.3593
  150OSM   H12F16694   0.205   0.946   3.561 -0.2638 -0.1957  1.3966
  150OSM   H12G16695   0.045   1.030   3.523  0.1480  1.5527  0.1605
  150OSM   C13F16696   0.048   0.937   3.713 -0.2108  0.1967  0.4202
  150OSM   H13F16697  -0.005   0.844   3.682  0.6655 -0.1380 -0.0994
  150OSM   H13G16698  -0.028   1.009   3.752 -0.4793  0.6947 -0.9435
  150OSM   C14F16699   0.133   0.896   3.830  0.0246 -0.3787  0.7198
  150OSM   H14F16700   0.179   0.993   3.859  0.5893 -0.6956  0.8904
  150OSM   H14G16701   0.214   0.829   3.796  0.1036 -0.4086  0.9619
  150OSM   C15F16702   0.049   0.832   3.942  0.6192  0.0152  0.4407
  150OSM   H15F16703   0.010   0.731   3.917  1.6548 -0.3304  0.1771
  150OSM   H15G16704  -0.036   0.900   3.963  1.4083  1.5502 -1.0566
  150OSM   C16F16705   0.128   0.799   4.062 -0.0749 -0.2156 -0.5499
  150OSM   H16F16706   0.205   0.877   4.078  0.6337 -1.1206  0.6343
  150OSM   H16G16707   0.185   0.704   4.051 -1.1991 -0.8926 -0.7600
  150OSM   C17F16708   0.036   0.767   4.184  0.0843 -0.5066  0.1115
  150OSM   H17F16709  -0.027   0.683   4.148 -1.3376  0.6744 -0.2821
  150OSM   H17G16710  -0.035   0.851   4.203  0.8225  0.3154 -0.7123
  150OSM   C18F16711   0.123   0.731   4.306 -0.2186 -0.0547 -0.2159
  150OSM   H18F16712   0.072   0.690   4.396  0.7058 -0.0475  0.3280
  150OSM   H18G16713   0.186   0.818   4.335  1.3798 -0.3743 -2.4917
  150OSM   H18H16714   0.193   0.651   4.275  1.0269  1.1998 -0.7176
  151OSM      N16715   6.004   0.307   2.224 -0.2415  0.9070 -0.2012
  151OSM    C1516716   6.012   0.165   2.171 -0.1374  0.6964 -0.3681
  151OSM   H15A16717   5.988   0.087   2.242  1.7123  1.0503  0.7119
  151OSM   H15B16718   6.116   0.143   2.154 -0.2218 -1.5271  1.5260
  151OSM   H15C16719   5.949   0.162   2.083 -1.4343 -0.9916  0.5690
  151OSM    C1416720   6.070   0.313   2.364 -0.0864  0.5387  0.7720
  151OSM   H14A16721   6.056   0.411   2.408  2.4195  0.5099  1.7625
  151OSM   H14B16722   6.175   0.288   2.362 -0.2802 -0.4146  1.6751
  151OSM   H14C16723   6.037   0.234   2.429 -1.0126  0.2891  0.0278
  151OSM    C1316724   6.080   0.391   2.128 -0.2847 -0.3605 -0.6767
  151OSM   H13A16725   6.048   0.390   2.025 -0.0826  0.9222 -0.7666
  151OSM   H13B16726   6.180   0.354   2.108 -0.3453  0.8484 -3.7343
  151OSM   H13C16727   6.070   0.493   2.162  1.6341 -0.1113 -0.7481
  151OSM    C1216728   5.865   0.367   2.227 -0.5513  0.1673 -0.6800
  151OSM   H12A16729   5.865   0.473   2.251 -1.0799 -0.2126  1.1552
  151OSM   H12B16730   5.816   0.318   2.309 -0.9187  0.9440 -0.4197
  151OSM    C1116731   5.782   0.338   2.100  0.0614 -1.0519  0.2287
  151OSM   H11A16732   5.832   0.385   2.013  0.7422 -3.3751 -0.7232
  151OSM   H11B16733   5.689   0.391   2.129  1.8349  0.6793  3.1388
  151OSM      P16734   5.719   0.146   1.939 -0.1073 -0.2126  0.1015
  151OSM    O1316735   5.632   0.247   1.867 -0.7104  0.7273  0.1898
  151OSM    O1416736   5.842   0.100   1.864  0.5416 -0.5913  0.2447
  151OSM    O1116737   5.639   0.013   1.969  0.8470 -0.1153  0.2487
  151OSM    O1216738   5.757   0.198   2.082  0.1098  0.5754  0.1783
  151OSM    C1S16739   5.689  -0.100   2.041  0.0239 -0.5466 -0.2292
  151OSM    H1S16740   5.799  -0.095   2.058 -0.0699 -1.4065  0.7617
  151OSM    H1T16741   5.671  -0.191   1.981  1.9065 -0.0717 -1.6040
  151OSM     NF16742   5.665  -0.194   2.262  0.2190  0.2447  0.0463
  151OSM    HNF16743   5.626  -0.285   2.270  0.4691  0.0989 -0.3675
  151OSM    C2S16744   5.603  -0.103   2.175 -0.5268  0.3995  0.5000
  151OSM    H2S16745   5.613  -0.002   2.222  1.5885 -0.2162  1.4687
  151OSM    C3S16746   5.456  -0.142   2.144 -0.3882 -0.3410  0.6421
  151OSM    H3S16747   5.470  -0.245   2.106 -1.3672 -0.2952  0.1052
  151OSM     O316748   5.391  -0.076   2.029  0.0489 -0.4291  0.3612
  151OSM    HO316749   5.472  -0.044   1.989 -1.1203  0.9853 -1.0167
  151OSM    C4S16750   5.366  -0.147   2.266 -0.8558 -0.2878 -0.1487
  151OSM    H4S16751   5.364  -0.253   2.296  1.2735 -0.2913  0.1086
  151OSM    C5S16752   5.301  -0.043   2.332  0.2904  0.7025 -0.0611
  151OSM    H5S16753   5.307   0.059   2.290  0.4265  0.0836 -1.6451
  151OSM    C6S16754   5.222  -0.056   2.455  0.2443  0.4262  0.0806
  151OSM    H6S16755   5.114  -0.059   2.431  0.1739  1.5303  0.1880
  151OSM    H6T16756   5.226   0.040   2.512 -1.4276  1.4718 -1.4405
  151OSM    C7S16757   5.263  -0.172   2.556 -0.3099 -0.0110  0.3144
  151OSM    H7S16758   5.258  -0.268   2.499 -0.2688  0.1042  0.1132
  151OSM    H7T16759   5.172  -0.195   2.616 -1.1328 -1.7537 -1.4601
  151OSM    C8S16760   5.389  -0.143   2.630 -0.6992 -0.3623  0.4659
  151OSM    H8S16761   5.382  -0.036   2.658  1.6729 -0.1162  0.2504
  151OSM    H8T16762   5.479  -0.155   2.566  0.4747 -2.7536  2.4073
  151OSM    C9S16763   5.420  -0.223   2.752  0.7200  0.4912  0.3971
  151OSM    H9S16764   5.408  -0.330   2.723 -0.1787  1.1245 -1.7632
  151OSM    H9T16765   5.339  -0.199   2.825  0.0067  1.1782 -0.5931
  151OSM   C10S16766   5.546  -0.188   2.814 -0.3780 -0.0725 -0.0537
  151OSM   H10S16767   5.536  -0.079   2.829 -0.1757 -0.3060  2.0722
  151OSM   H10T16768   5.623  -0.215   2.739  0.5141 -0.8563  1.1117
  151OSM   C11S16769   5.558  -0.254   2.951  0.8904  0.1038  0.3615
  151OSM   H11S16770   5.551  -0.364   2.934  1.1500  0.1602 -0.1333
  151OSM   H11T16771   5.474  -0.225   3.018  1.1568  1.2188  0.2274
  151OSM   C12S16772   5.683  -0.215   3.026 -0.8136 -0.3018 -0.0220
  151OSM   H12S16773   5.687  -0.104   3.024  0.8798 -0.3127  0.9145
  151OSM   H12T16774   5.785  -0.239   2.987  1.3329  2.7250  3.1719
  151OSM   C13S16775   5.687  -0.248   3.176  0.9038  0.7112 -0.7309
  151OSM   H13S16776   5.669  -0.357   3.189 -0.5711  0.9176 -0.9180
  151OSM   H13T16777   5.606  -0.191   3.226  1.3068 -1.2619  2.4638
  151OSM   C14S16778   5.813  -0.209   3.252 -0.6930  0.4219  0.2754
  151OSM   H14S16779   5.833  -0.102   3.232 -0.1795 -0.0567 -2.1365
  151OSM   H14T16780   5.898  -0.259   3.200 -0.7057  0.4083  0.2671
  151OSM   C15S16781   5.790  -0.253   3.396 -0.1195  0.6133 -0.1888
  151OSM   H15S16782   5.890  -0.286   3.431 -0.8631 -1.0181  0.5539
  151OSM   H15T16783   5.728  -0.345   3.405 -1.9283  1.6950 -1.0014
  151OSM   C16S16784   5.748  -0.139   3.485  0.6079  0.0636 -0.5141
  151OSM   H16S16785   5.644  -0.107   3.464  0.7940  1.4150  0.5278
  151OSM   H16T16786   5.809  -0.049   3.465 -0.8772  1.5220  1.1269
  151OSM   C17S16787   5.752  -0.172   3.636 -0.2985  0.4676 -0.4320
  151OSM   H17S16788   5.713  -0.275   3.650 -0.5533  0.7667  1.3524
  151OSM   H17T16789   5.687  -0.099   3.689 -1.1387 -1.2178  0.9738
  151OSM   C18S16790   5.893  -0.179   3.699 -0.8663 -0.2476  0.2742
  151OSM   H18S16791   5.964  -0.247   3.648  0.6910  0.6529  1.1368
  151OSM   H18T16792   5.900  -0.231   3.797  0.6866 -0.3787  0.1266
  151OSM   H18U16793   5.942  -0.080   3.711  2.7611 -1.9580  0.9496
  151OSM    C1F16794   5.787  -0.185   2.318  0.0741  0.5320 -0.0255
  151OSM     OF16795   5.856  -0.084   2.309  0.3096  0.0703 -0.0265
  151OSM    C2F16796   5.831  -0.310   2.385  0.3235  0.0064 -0.7824
  151OSM    H2F16797   5.917  -0.345   2.323  0.3977  2.4014 -2.1632
  151OSM    H2G16798   5.749  -0.384   2.388  0.4866 -0.1483 -0.1259
  151OSM    C3F16799   5.875  -0.284   2.537  0.0025  0.3291  0.2382
  151OSM    H3F16800   5.793  -0.233   2.592  0.5120 -1.6428  3.0845
  151OSM    H3G16801   5.968  -0.223   2.530 -0.7660  1.3687 -1.5443
  151OSM    C4F16802   5.906  -0.415   2.612 -0.1689 -0.1510  0.4058
  151OSM    H4F16803   5.993  -0.452   2.554 -0.7921  1.9709 -2.0843
  151OSM    H4G16804   5.823  -0.489   2.604 -0.8600  0.7051 -0.6592
  151OSM    C5F16805   5.928  -0.384   2.761 -0.1570 -0.0305  0.1482
  151OSM    H5F16806   5.831  -0.374   2.814 -1.0797  0.1137 -1.5003
  151OSM    H5G16807   5.978  -0.287   2.782  0.9348 -0.7498  0.9384
  151OSM    C6F16808   5.994  -0.496   2.842 -0.8540 -0.1828 -0.3144
  151OSM    H6F16809   6.094  -0.523   2.800 -1.1823 -3.2709  0.6580
  151OSM    H6G16810   5.941  -0.593   2.829 -0.6629 -0.1800 -1.2419
  151OSM    C7F16811   6.016  -0.449   2.992  0.6840 -0.4379 -0.3543
  151OSM    H7F16812   5.916  -0.437   3.038  1.4771 -2.2721  2.0579
  151OSM    H7G16813   6.068  -0.351   2.984  1.0734 -0.7781 -2.5270
  151OSM    C8F16814   6.101  -0.548   3.072  0.1191 -0.2980 -0.6166
  151OSM    H8F16815   6.123  -0.499   3.169  0.6852 -2.1647  0.2249
  151OSM    H8G16816   6.198  -0.569   3.022 -0.3054  0.6666 -1.9241
  151OSM    C9F16817   6.033  -0.677   3.113 -0.5366 -0.8561 -0.0858
  151OSM    H9F16818   6.086  -0.768   3.083  0.6158 -0.0063 -0.7195
  151OSM   C10F16819   5.914  -0.694   3.173  0.2378 -0.2340  0.1521
  151OSM   H10F16820   5.882  -0.795   3.202 -1.0791  0.4820  1.3003
  151OSM   C11F16821   5.812  -0.591   3.228 -0.3518  0.5074  0.8335
  151OSM   H11F16822   5.720  -0.595   3.166  0.1495  0.4431  0.0834
  151OSM   H11G16823   5.850  -0.488   3.242  0.0636  0.6206 -0.8767
  151OSM   C12F16824   5.769  -0.640   3.365  0.1154 -0.5122 -0.6424
  151OSM   H12F16825   5.728  -0.742   3.358 -0.3080 -0.3173 -1.1195
  151OSM   H12G16826   5.688  -0.569   3.394  1.2896  0.4281  0.4669
  151OSM   C13F16827   5.881  -0.625   3.466 -0.0315  0.2896  0.6134
  151OSM   H13F16828   5.912  -0.519   3.475 -0.9691  0.7285 -0.9494
  151OSM   H13G16829   5.965  -0.684   3.425  0.3191 -0.0139  1.7285
  151OSM   C14F16830   5.843  -0.678   3.604 -0.1577  0.3390 -0.0013
  151OSM   H14F16831   5.927  -0.643   3.668  2.4508 -0.1676 -2.9337
  151OSM   H14G16832   5.841  -0.789   3.615 -1.2260  0.2410 -1.0136
  151OSM   C15F16833   5.710  -0.626   3.657 -0.2723  0.1549 -0.6356
  151OSM   H15F16834   5.627  -0.694   3.629 -0.8078  0.8031 -0.6423
  151OSM   H15G16835   5.680  -0.525   3.622  0.6177  0.4310 -0.6286
  151OSM   C16F16836   5.699  -0.601   3.814 -0.1481 -0.4518  0.1599
  151OSM   H16F16837   5.775  -0.527   3.845 -1.6814  1.3882 -0.2710
  151OSM   H16G16838   5.710  -0.701   3.862 -2.4801 -0.3761  0.9764
  151OSM   C17F16839   5.563  -0.552   3.865  0.5773  0.4301  0.9323
  151OSM   H17F16840   5.490  -0.633   3.843 -0.7514  2.0768 -1.1312
  151OSM   H17G16841   5.530  -0.466   3.803  0.4038 -0.7972 -0.7450
  151OSM   C18F16842   5.568  -0.526   4.012  0.7730 -0.7515  0.2339
  151OSM   H18F16843   5.569  -0.610   4.084  0.1652  0.3517  1.5987
  151OSM   H18G16844   5.471  -0.475   4.032  0.6757 -0.9397  0.2402
  151OSM   H18H16845   5.652  -0.462   4.047 -0.6690  1.0502  0.6087
  152OSM      N16846   0.634   3.244   2.198  0.0604  1.1871 -1.0558
  152OSM    C1516847   0.551   3.156   2.099  0.4344  0.0323 -0.5546
  152OSM   H15A16848   0.534   3.062   2.149  0.6110 -0.9734 -2.3153
  152OSM   H15B16849   0.605   3.158   2.005  0.6033  0.8579 -0.4493
  152OSM   H15C16850   0.456   3.206   2.085 -0.8193 -2.4956 -1.8224
  152OSM    C1416851   0.778   3.190   2.196  0.2292  0.2834 -0.0770
  152OSM   H14A16852   0.823   3.224   2.103 -0.3351 -1.5224 -1.0699
  152OSM   H14B16853   0.779   3.082   2.202  2.1621  0.3314  1.8876
  152OSM   H14C16854   0.827   3.237   2.280 -1.6759  0.0884  1.1924
  152OSM    C1316855   0.636   3.384   2.141 -0.2430  0.3196 -0.0836
  152OSM   H13A16856   0.534   3.414   2.123 -0.2381 -0.7448 -2.1518
  152OSM   H13B16857   0.700   3.390   2.054  1.6125  0.2817  1.2070
  152OSM   H13C16858   0.685   3.453   2.210  0.1885  1.3025 -1.3298
  152OSM    C1216859   0.565   3.233   2.334 -0.8393  0.2338  0.4013
  152OSM   H12A16860   0.524   3.134   2.338 -0.3262 -0.0473 -0.8992
  152OSM   H12B16861   0.482   3.301   2.331  0.0290  1.4673  2.2721
  152OSM    C1116862   0.642   3.279   2.460  0.4510  0.1601 -0.5281
  152OSM   H11A16863   0.742   3.232   2.464  0.1412 -0.4663 -0.0757
  152OSM   H11B16864   0.582   3.246   2.547 -1.5097 -0.6013 -2.0910
  152OSM      P16865   0.547   3.520   2.474  0.2396 -0.3740  0.2591
  152OSM    O1316866   0.593   3.657   2.501 -0.1662 -0.4146  0.2737
  152OSM    O1416867   0.452   3.507   2.368  0.0614  0.8288  0.0380
  152OSM    O1116868   0.487   3.460   2.608 -0.2578 -0.6876  0.1141
  152OSM    O1216869   0.666   3.419   2.455  0.2681 -0.3303  0.7183
  152OSM    C1S16870   0.561   3.430   2.728 -0.1634 -0.5285 -0.0693
  152OSM    H1S16871   0.658   3.378   2.714  0.2286  0.4237 -1.0794
  152OSM    H1T16872   0.499   3.369   2.797  2.7472 -0.4669  2.8463
  152OSM     NF16873   0.642   3.528   2.948  0.3331  0.3207 -0.4721
  152OSM    HNF16874   0.582   3.494   3.020  2.4552  1.2968  1.8660
  152OSM    C2S16875   0.578   3.560   2.822  0.3678 -0.3150  0.3281
  152OSM    H2S16876   0.638   3.639   2.772 -0.9716  0.8159  0.4528
  152OSM    C3S16877   0.435   3.618   2.839  0.2987  0.0221 -0.7014
  152OSM    H3S16878   0.371   3.531   2.865  0.6933  0.0258  0.3303
  152OSM     O316879   0.390   3.706   2.730  0.1478  0.2680  0.1371
  152OSM    HO316880   0.439   3.677   2.653 -0.5469 -1.0327  0.1400
  152OSM    C4S16881   0.429   3.724   2.948  0.4980 -0.1756 -0.1838
  152OSM    H4S16882   0.491   3.812   2.923 -1.1168  0.5645 -1.8204
  152OSM    C5S16883   0.359   3.722   3.057 -0.1151 -0.6821  0.9316
  152OSM    H5S16884   0.295   3.633   3.067 -0.3098 -0.4424  1.8766
  152OSM    C6S16885   0.342   3.824   3.169  0.8479  0.1342  0.3507
  152OSM    H6S16886   0.297   3.771   3.256 -1.2871 -0.1313 -0.8258
  152OSM    H6T16887   0.261   3.892   3.133  0.6074 -0.0719  0.4926
  152OSM    C7S16888   0.467   3.910   3.215  0.0172 -0.2308 -0.5393
  152OSM    H7S16889   0.526   3.959   3.134 -0.0199 -0.0534 -0.4598
  152OSM    H7T16890   0.539   3.837   3.259 -1.7350 -1.3576  0.5805
  152OSM    C8S16891   0.439   4.018   3.325 -0.8533 -0.3206  0.1852
  152OSM    H8S16892   0.352   4.076   3.286 -1.7454 -0.5422  1.7313
  152OSM    H8T16893   0.527   4.085   3.322  1.4103 -3.0867  0.5150
  152OSM    C9S16894   0.407   3.974   3.463 -0.9054  0.2982 -0.6453
  152OSM    H9S16895   0.497   3.922   3.503 -2.5513 -0.2141  2.7307
  152OSM    H9T16896   0.309   3.923   3.473  0.0474 -1.2789  1.2910
  152OSM   C10S16897   0.393   4.095   3.560 -0.5914  0.4106  0.0501
  152OSM   H10S16898   0.310   4.164   3.538  1.7887  3.4626  0.0100
  152OSM   H10T16899   0.483   4.152   3.527 -0.2264 -0.6829 -0.9736
  152OSM   C11S16900   0.412   4.065   3.718 -0.4739  0.2930  0.3824
  152OSM   H11S16901   0.405   4.161   3.774 -2.1179  0.6145 -0.3020
  152OSM   H11T16902   0.511   4.016   3.731 -1.2181 -1.5811 -0.5789
  152OSM   C12S16903   0.314   3.959   3.761  0.1755 -0.5249  0.9075
  152OSM   H12S16904   0.324   3.872   3.694  3.0767  1.3862 -1.3836
  152OSM   H12T16905   0.212   4.005   3.757  0.4661  0.0347 -1.9470
  152OSM   C13S16906   0.350   3.913   3.899 -0.9113  0.1257 -0.2188
  152OSM   H13S16907   0.460   3.912   3.916 -1.1715 -2.0611  1.7149
  152OSM   H13T16908   0.335   3.805   3.921  1.7750 -0.3624 -0.4284
  152OSM   C14S16909   0.285   4.002   4.004  0.1668 -0.1652  0.6150
  152OSM   H14S16910   0.175   3.986   3.998  0.1024  0.7191 -1.4876
  152OSM   H14T16911   0.303   4.108   3.978 -0.1178 -0.2911 -0.1362
  152OSM   C15S16912   0.330   3.976   4.145 -0.3015 -0.1205  0.2750
  152OSM   H15S16913   0.440   3.991   4.154 -0.3862  0.3489  0.5712
  152OSM   H15T16914   0.302   3.869   4.153  0.9896 -0.8856 -3.4943
  152OSM   C16S16915   0.255   4.051   4.260 -0.2113  0.0677 -0.6479
  152OSM   H16S16916   0.281   4.013   4.362  0.4439  0.9931 -0.4566
  152OSM   H16T16917   0.149   4.021   4.247 -0.0114 -0.9081 -0.1335
  152OSM   C17S16918   0.264   4.200   4.243  0.5572  0.0054  0.0068
  152OSM   H17S16919   0.183   4.233   4.174 -0.2717 -0.4386  0.7378
  152OSM   H17T16920   0.369   4.229   4.220  1.6354 -0.3961  3.7148
  152OSM   C18S16921   0.246   4.272   4.376 -0.1624 -0.2207  0.0111
  152OSM   H18S16922   0.241   4.383   4.365 -1.7436 -0.3897 -1.5062
  152OSM   H18T16923   0.330   4.254   4.446  0.5610 -0.1346 -0.8190
  152OSM   H18U16924   0.150   4.250   4.428 -0.7668 -0.0681 -0.9956
  152OSM    C1F16925   0.766   3.486   2.946 -0.0616 -0.1801  0.1243
  152OSM     OF16926   0.845   3.500   2.861 -0.3198  0.2741  0.1025
  152OSM    C2F16927   0.815   3.397   3.063  0.9880 -0.4120  0.3545
  152OSM    H2F16928   0.869   3.313   3.014 -0.7454 -1.2480 -0.2124
  152OSM    H2G16929   0.723   3.373   3.119  0.4947 -0.4200 -0.4395
  152OSM    C3F16930   0.917   3.466   3.154 -0.1548  0.1721  0.4159
  152OSM    H3F16931   0.878   3.566   3.179 -0.7217  0.3611 -1.1102
  152OSM    H3G16932   1.013   3.493   3.104  1.4623 -0.3891  3.0123
  152OSM    C4F16933   0.981   3.383   3.274  0.1481 -0.1350  0.1202
  152OSM    H4F16934   1.078   3.431   3.301 -0.5558  1.9320 -0.7801
  152OSM    H4G16935   1.005   3.283   3.234 -0.2056 -1.9103  3.9202
  152OSM    C5F16936   0.889   3.387   3.394  0.2577 -0.1550 -0.0474
  152OSM    H5F16937   0.783   3.370   3.365 -0.8451  1.4794  2.7060
  152OSM    H5G16938   0.898   3.489   3.436  1.3143  0.0112 -0.6513
  152OSM    C6F16939   0.932   3.284   3.498  0.0949 -0.6565 -0.0570
  152OSM    H6F16940   1.037   3.305   3.525  0.1555 -0.7133 -0.2504
  152OSM    H6G16941   0.916   3.184   3.452 -2.7050  0.0171 -0.7677
  152OSM    C7F16942   0.851   3.305   3.630  0.5848  0.4903  0.3305
  152OSM    H7F16943   0.745   3.277   3.610  0.9917 -1.3358  0.5202
  152OSM    H7G16944   0.851   3.413   3.657 -1.3096  0.4430  0.6172
  152OSM    C8F16945   0.897   3.216   3.748 -0.4889  0.9130  0.7317
  152OSM    H8F16946   1.007   3.216   3.758 -0.2841  3.3452 -0.9046
  152OSM    H8G16947   0.876   3.109   3.725 -0.2210  0.7715  1.1387
  152OSM    C9F16948   0.818   3.259   3.868  0.2994  0.6203 -1.2178
  152OSM    H9F16949   0.717   3.216   3.873  0.5380  0.0402 -1.4087
  152OSM   C10F16950   0.866   3.336   3.965 -0.3966 -0.3856 -0.9591
  152OSM   H10F16951   0.806   3.363   4.053  0.9602 -3.5595  1.1254
  152OSM   C11F16952   0.999   3.400   3.974 -0.2115  0.0631  0.2183
  152OSM   H11F16953   0.979   3.509   3.981 -0.4593 -0.0013  0.5529
  152OSM   H11G16954   1.062   3.389   3.883 -3.2805 -0.4424 -2.0001
  152OSM   C12F16955   1.092   3.362   4.091  0.4516 -0.9495  0.3957
  152OSM   H12F16956   1.043   3.378   4.190  0.5303  2.1472  0.0428
  152OSM   H12G16957   1.173   3.438   4.106 -0.7033 -0.1131  3.1503
  152OSM   C13F16958   1.165   3.229   4.084  0.1745  0.8212 -0.1459
  152OSM   H13F16959   1.223   3.209   3.991 -0.6202 -3.7747  0.0784
  152OSM   H13G16960   1.080   3.157   4.085 -0.4023  1.5014  0.0255
  152OSM   C14F16961   1.249   3.180   4.205  0.9007 -0.9752 -0.4468
  152OSM   H14F16962   1.351   3.222   4.196  0.4773  0.7431  1.7655
  152OSM   H14G16963   1.259   3.070   4.192  0.9844 -0.7916 -2.1816
  152OSM   C15F16964   1.196   3.196   4.349  0.4500 -0.0250 -0.2978
  152OSM   H15F16965   1.096   3.153   4.372  0.2920 -0.2327 -1.3274
  152OSM   H15G16966   1.188   3.304   4.373 -0.2653 -0.3242  0.8470
  152OSM   C16F16967   1.306   3.153   4.441  0.0280  0.1968  0.3271
  152OSM   H16F16968   1.400   3.208   4.418  0.6721 -0.9240  0.1690
  152OSM   H16G16969   1.340   3.048   4.429  0.3913  0.4603 -1.0840
  152OSM   C17F16970   1.266   3.166   4.585  0.3334  0.2296 -0.6496
  152OSM   H17F16971   1.196   3.091   4.627 -1.0852  2.2815  0.8245
  152OSM   H17G16972   1.224   3.266   4.605 -2.3379 -0.9854  0.2691
  152OSM   C18F16973   1.390   3.139   4.684 -0.4391 -0.7298  0.0036
  152OSM   H18F16974   1.346   3.151   4.785 -2.3254 -4.0007 -0.2810
  152OSM   H18G16975   1.467   3.211   4.649 -2.0617  0.2322 -1.7185
  152OSM   H18H16976   1.415   3.031   4.676 -2.0712 -1.2860  1.6939
  153OSM      N16977   1.313   2.034   2.224  0.1050  0.2631 -0.5786
  153OSM    C1516978   1.363   1.890   2.209 -0.0496 -0.7564  0.1735
  153OSM   H15A16979   1.295   1.820   2.256 -1.3467  0.6306  0.4161
  153OSM   H15B16980   1.460   1.884   2.257 -0.1605 -2.1436  0.2763
  153OSM   H15C16981   1.371   1.858   2.106 -2.6136 -0.9414 -0.0385
  153OSM    C1416982   1.419   2.118   2.162 -0.2472  0.1307 -0.5441
  153OSM   H14A16983   1.458   2.081   2.069  2.0368  0.9656  0.0038
  153OSM   H14B16984   1.514   2.118   2.215 -0.2146  0.3072 -0.6028
  153OSM   H14C16985   1.401   2.224   2.154 -1.2800 -0.0428 -0.6601
  153OSM    C1316986   1.191   2.044   2.147 -0.1170  0.4247 -0.4131
  153OSM   H13A16987   1.224   2.033   2.044  0.5085  4.0814 -0.7368
  153OSM   H13B16988   1.142   2.141   2.147 -2.2224 -0.5737  0.0584
  153OSM   H13C16989   1.117   1.968   2.168  1.0868  0.1130  3.4546
  153OSM    C1216990   1.285   2.055   2.373  0.0906  0.0272 -0.0734
  153OSM   H12A16991   1.375   2.039   2.431 -0.2520 -1.6806  0.0376
  153OSM   H12B16992   1.227   1.969   2.402 -0.3169  0.0710 -0.7360
  153OSM    C1116993   1.220   2.192   2.422 -0.3879  0.3270  0.0793
  153OSM   H11A16994   1.194   2.183   2.530  1.0236  1.8231  0.5664
  153OSM   H11B16995   1.130   2.221   2.364  0.0775  0.4751 -0.5752
  153OSM      P16996   1.435   2.325   2.489  0.1953  0.2787  0.4292
  153OSM    O1316997   1.547   2.236   2.456  0.0292  0.0945 -0.0593
  153OSM    O1416998   1.472   2.468   2.473  0.0237 -0.0026  1.2148
  153OSM    O1116999   1.391   2.291   2.634  0.3885 -0.3552 -0.6852
  153OSM    O1217000   1.311   2.299   2.398  0.6117 -0.0372  0.1486
  153OSM    C1S17001   1.457   2.355   2.751 -0.1005 -0.0927  0.2042
  153OSM    H1S17002   1.409   2.454   2.769 -2.1139 -0.3013 -3.0543
  153OSM    H1T17003   1.568   2.354   2.744 -0.1774  0.9930 -2.9705
  153OSM     NF17004   1.501   2.337   2.999 -0.3287  0.2668  0.4984
  153OSM    HNF17005   1.594   2.325   3.033 -0.4195 -0.0679  0.6314
  153OSM    C2S17006   1.440   2.263   2.876 -0.6199  0.0099 -0.1621
  153OSM    H2S17007   1.330   2.265   2.888 -0.5786 -0.8793  0.4586
  153OSM    C3S17008   1.495   2.112   2.847 -0.3418 -0.7258  0.2341
  153OSM    H3S17009   1.606   2.118   2.840 -0.4599 -0.0617 -1.7753
  153OSM     O317010   1.441   2.059   2.730 -0.4049  0.2671  0.1664
  153OSM    HO317011   1.390   2.132   2.693 -0.0930 -0.1532 -1.1626
  153OSM    C4S17012   1.470   2.019   2.963 -0.1970  0.2124  0.2185
  153OSM    H4S17013   1.553   2.026   3.035 -2.8023 -0.3435  3.5063
  153OSM    C5S17014   1.366   1.927   2.983 -1.6891 -0.1547 -0.2644
  153OSM    H5S17015   1.283   1.903   2.915 -2.4826 -1.7743  1.2055
  153OSM    C6S17016   1.373   1.816   3.076 -0.1909 -0.2982 -0.2370
  153OSM    H6S17017   1.361   1.722   3.019 -1.2618 -0.0141 -0.5222
  153OSM    H6T17018   1.279   1.829   3.134 -0.2949 -0.4077 -0.3817
  153OSM    C7S17019   1.495   1.818   3.174  0.0370  0.1475 -0.0945
  153OSM    H7S17020   1.500   1.917   3.224 -0.4330  0.2043 -0.1539
  153OSM    H7T17021   1.597   1.805   3.131  0.6631 -0.2737  1.4538
  153OSM    C8S17022   1.466   1.703   3.272  1.0631  0.0077 -0.2142
  153OSM    H8S17023   1.443   1.610   3.214  0.1506 -0.2198  0.4854
  153OSM    H8T17024   1.378   1.717   3.338  1.3999 -2.7559  0.9635
  153OSM    C9S17025   1.579   1.673   3.371 -0.3174  0.5392  0.7545
  153OSM    H9S17026   1.569   1.741   3.458 -0.2219 -1.6498  2.5636
  153OSM    H9T17027   1.673   1.700   3.318 -1.0587  2.2792  0.2760
  153OSM   C10S17028   1.586   1.527   3.422 -0.0680  0.5031 -0.3255
  153OSM   H10S17029   1.686   1.519   3.470  0.5905  0.4960 -1.6583
  153OSM   H10T17030   1.588   1.475   3.324  1.0734 -0.6164  0.2619
  153OSM   C11S17031   1.473   1.472   3.518  0.7770 -0.2884 -0.9958
  153OSM   H11S17032   1.476   1.363   3.538 -1.1453 -0.0087  1.2176
  153OSM   H11T17033   1.376   1.487   3.466  0.7664 -1.7552 -1.4440
  153OSM   C12S17034   1.482   1.535   3.656 -0.6867 -0.3157 -0.2510
  153OSM   H12S17035   1.502   1.644   3.654  0.2491 -0.4106  1.7516
  153OSM   H12T17036   1.567   1.483   3.704 -1.8624 -1.3522  0.7604
  153OSM   C13S17037   1.356   1.519   3.741 -0.5401 -0.2903 -0.6236
  153OSM   H13S17038   1.320   1.416   3.720  3.3883 -2.2108  0.9772
  153OSM   H13T17039   1.279   1.596   3.718 -2.4825 -1.3695  1.8051
  153OSM   C14S17040   1.385   1.506   3.897  0.2008  0.0113  0.6361
  153OSM   H14S17041   1.295   1.496   3.961  0.4307  0.0284  0.9659
  153OSM   H14T17042   1.431   1.601   3.933 -0.9040  1.1234 -0.7547
  153OSM   C15S17043   1.483   1.395   3.941 -0.1992 -0.5965 -0.4980
  153OSM   H15S17044   1.516   1.426   4.042  1.8363 -1.8830 -0.7148
  153OSM   H15T17045   1.573   1.393   3.877  1.2062  0.1336  1.3856
  153OSM   C16S17046   1.421   1.259   3.929  0.4278  0.4993 -0.7214
  153OSM   H16S17047   1.430   1.221   3.825  1.0432 -1.8521  0.1473
  153OSM   H16T17048   1.315   1.260   3.962  0.7458  1.1251  0.3411
  153OSM   C17S17049   1.497   1.164   4.027  0.1365 -0.4075  1.0726
  153OSM   H17S17050   1.605   1.177   4.003  0.1728 -2.6619 -0.3095
  153OSM   H17T17051   1.482   1.063   3.982  1.4221 -0.2875  0.3432
  153OSM   C18S17052   1.462   1.168   4.176 -0.2338 -0.1324  0.4508
  153OSM   H18S17053   1.510   1.253   4.229  1.2683 -0.5194 -0.2322
  153OSM   H18T17054   1.506   1.076   4.220 -1.0086 -0.9493 -0.4356
  153OSM   H18U17055   1.352   1.160   4.188 -0.6074  1.4512 -1.3230
  153OSM    C1F17056   1.450   2.454   3.034 -0.3536 -0.7133 -0.3181
  153OSM     OF17057   1.342   2.502   2.996  0.3411 -0.0973  0.0027
  153OSM    C2F17058   1.540   2.540   3.108 -0.0845  0.2123  0.5333
  153OSM    H2F17059   1.483   2.634   3.120 -0.1554  0.2612 -0.1631
  153OSM    H2G17060   1.631   2.565   3.049 -1.3549  0.2465 -1.5057
  153OSM    C3F17061   1.589   2.484   3.243  0.2930  0.0888  0.4394
  153OSM    H3F17062   1.643   2.387   3.246 -2.1271 -1.4035 -0.7332
  153OSM    H3G17063   1.498   2.471   3.305  0.5515 -0.3767  0.7210
  153OSM    C4F17064   1.676   2.579   3.316  1.0543  0.4318 -0.2210
  153OSM    H4F17065   1.620   2.675   3.315 -2.4593 -1.4193  1.1728
  153OSM    H4G17066   1.772   2.586   3.259  1.0516 -0.2297 -0.3115
  153OSM    C5F17067   1.716   2.538   3.458 -0.1893 -0.0035 -0.0882
  153OSM    H5F17068   1.769   2.620   3.511 -1.2208  0.0051  0.9762
  153OSM    H5G17069   1.792   2.456   3.456  1.0390  1.0809  0.4285
  153OSM    C6F17070   1.599   2.489   3.543 -0.0335 -1.0221 -0.7010
  153OSM    H6F17071   1.555   2.397   3.497  0.0918 -0.9597 -0.9471
  153OSM    H6G17072   1.534   2.578   3.534  2.6449  1.2758  0.9956
  153OSM    C7F17073   1.653   2.458   3.685  0.3155 -0.1223 -0.2575
  153OSM    H7F17074   1.753   2.411   3.693  0.9345  1.4123  2.2096
  153OSM    H7G17075   1.576   2.394   3.732 -1.9570  2.0575 -0.8125
  153OSM    C8F17076   1.644   2.596   3.773  0.2425  0.5902  0.3492
  153OSM    H8F17077   1.539   2.631   3.777  0.5502  1.5716 -0.0568
  153OSM    H8G17078   1.695   2.675   3.714 -1.4613  1.2413 -0.3270
  153OSM    C9F17079   1.714   2.580   3.909  0.1217  0.7249  0.9572
  153OSM    H9F17080   1.818   2.616   3.904  1.4107 -2.6998  0.4279
  153OSM   C10F17081   1.672   2.535   4.027 -0.4358  0.9997  0.2644
  153OSM   H10F17082   1.750   2.498   4.096  1.0475  0.8516 -1.4267
  153OSM   C11F17083   1.534   2.481   4.059  0.5983 -0.5542 -0.6706
  153OSM   H11F17084   1.481   2.474   3.961  1.7716 -0.4477 -1.3408
  153OSM   H11G17085   1.478   2.551   4.123 -1.5237 -1.5174 -1.3786
  153OSM   C12F17086   1.537   2.344   4.117 -0.3944 -0.4893 -0.3147
  153OSM   H12F17087   1.575   2.277   4.037  0.3304 -1.7815  1.0718
  153OSM   H12G17088   1.428   2.325   4.105  0.0558 -3.0073 -0.9399
  153OSM   C13F17089   1.612   2.337   4.252  0.4583 -0.3192 -0.2557
  153OSM   H13F17090   1.553   2.405   4.317  0.7093 -0.8012  0.4764
  153OSM   H13G17091   1.718   2.368   4.241  0.0554  1.2372 -0.0479
  153OSM   C14F17092   1.600   2.196   4.310  0.7061 -1.6448 -0.1345
  153OSM   H14F17093   1.641   2.115   4.246 -1.5087 -3.0845  0.1724
  153OSM   H14G17094   1.494   2.176   4.339  1.1630  0.0878  3.2087
  153OSM   C15F17095   1.683   2.188   4.436  0.2712 -1.6072  0.0264
  153OSM   H15F17096   1.668   2.271   4.508  1.3508 -1.3541 -0.0262
  153OSM   H15G17097   1.791   2.191   4.410  0.2726 -1.1026  0.0883
  153OSM   C16F17098   1.657   2.058   4.507 -0.3302 -0.6037 -0.0223
  153OSM   H16F17099   1.657   1.980   4.427 -0.5113  0.5900 -1.2093
  153OSM   H16G17100   1.557   2.070   4.553 -1.6903 -1.6294 -2.5102
  153OSM   C17F17101   1.759   2.028   4.632 -0.0464 -0.1586  0.2852
  153OSM   H17F17102   1.857   2.007   4.583  1.0202  0.8441  1.8867
  153OSM   H17G17103   1.726   1.944   4.697  2.1686 -0.7707  0.6974
  153OSM   C18F17104   1.765   2.148   4.717 -0.5490 -0.1984 -0.3495
  153OSM   H18F17105   1.667   2.200   4.720 -0.6761 -0.4631  2.0543
  153OSM   H18G17106   1.840   2.219   4.674  0.0685 -1.4512 -1.4084
  153OSM   H18H17107   1.788   2.115   4.820 -1.5326 -1.7081 -0.5941
  154OSM      N17108   5.770   5.659   1.823 -0.0161  0.9022  0.3933
  154OSM    C1517109   5.879   5.603   1.912 -0.4078 -0.7714 -0.5333
  154OSM   H15A17110   5.892   5.496   1.899 -0.0406 -1.0444  1.7155
  154OSM   H15B17111   5.872   5.637   2.014  1.4091 -0.7197 -0.3863
  154OSM   H15C17112   5.977   5.636   1.881 -0.6927  0.1344 -0.4878
  154OSM    C1417113   5.761   5.570   1.700  0.4363 -0.9809  0.1659
  154OSM   H14A17114   5.683   5.597   1.631 -1.8340 -2.1417  2.1253
  154OSM   H14B17115   5.754   5.464   1.721  1.0395 -1.2156 -0.7579
  154OSM   H14C17116   5.853   5.585   1.645  0.1673  0.3679  0.0456
  154OSM    C1317117   5.648   5.655   1.896  0.4680 -0.2340 -0.1841
  154OSM   H13A17118   5.648   5.741   1.960  3.7743  0.3374 -0.7963
  154OSM   H13B17119   5.628   5.561   1.945 -1.3234 -0.5242 -1.3719
  154OSM   H13C17120   5.566   5.664   1.825  0.5433 -1.5713 -0.4700
  154OSM    C1217121   5.805   5.800   1.768 -0.3121 -0.1199  0.0063
  154OSM   H12A17122   5.731   5.826   1.693 -0.5149  0.6075  0.4572
  154OSM   H12B17123   5.903   5.801   1.722  0.3888 -0.1687  1.4457
  154OSM    C1117124   5.802   5.924   1.860 -0.1442 -0.1858 -0.3107
  154OSM   H11A17125   5.846   6.008   1.802  0.7687  0.2365  0.9441
  154OSM   H11B17126   5.861   5.914   1.954 -1.7321 -0.5865  0.6826
  154OSM      P17127   5.569   6.051   1.816  0.1195  0.0085  0.1595
  154OSM    O1317128   5.628   6.190   1.795 -0.3677  0.2737  0.1866
  154OSM    O1417129   5.542   5.980   1.688  0.0949 -0.0391  0.5282
  154OSM    O1117130   5.443   6.063   1.903  0.3382  0.3772  0.5561
  154OSM    O1217131   5.671   5.971   1.900  0.8295 -0.4256  0.3068
  154OSM    C1S17132   5.447   6.107   2.040 -0.1003 -0.8333  0.1350
  154OSM    H1S17133   5.547   6.110   2.089 -0.6790 -0.2042  1.3431
  154OSM    H1T17134   5.393   6.040   2.111 -1.9866  0.4786  0.0466
  154OSM     NF17135   5.344   6.264   2.201 -0.1019 -0.0887  0.0394
  154OSM    HNF17136   5.253   6.236   2.232 -1.5967  2.4734 -1.6336
  154OSM    C2S17137   5.364   6.245   2.060  0.6085 -0.0042 -0.0173
  154OSM    H2S17138   5.419   6.334   2.023 -1.1400  1.7231  1.3061
  154OSM    C3S17139   5.235   6.242   1.979  0.1185 -0.9097 -0.6141
  154OSM    H3S17140   5.165   6.160   2.005  1.4371 -3.0984 -3.4243
  154OSM     O317141   5.257   6.226   1.840  0.1108  0.3751 -0.0146
  154OSM    HO317142   5.338   6.175   1.845  0.4129  0.9296  1.0263
  154OSM    C4S17143   5.150   6.367   2.004 -0.3099  0.1862 -0.6191
  154OSM    H4S17144   5.193   6.466   1.982  0.4279  0.0708  0.2688
  154OSM    C5S17145   5.031   6.370   2.069 -0.3555 -2.0585 -0.3288
  154OSM    H5S17146   4.981   6.279   2.104  0.6528 -3.5125 -2.4394
  154OSM    C6S17147   4.939   6.490   2.099  0.1327 -0.4941 -0.2753
  154OSM    H6S17148   4.832   6.473   2.074 -0.2162 -0.7055  1.2405
  154OSM    H6T17149   4.986   6.581   2.057 -1.0031  1.2892  2.0836
  154OSM    C7S17150   4.950   6.531   2.249  0.0576 -0.1637  0.2860
  154OSM    H7S17151   4.885   6.621   2.258  2.3031  1.8948 -2.6117
  154OSM    H7T17152   5.051   6.571   2.271 -0.5272  0.6155  1.7167
  154OSM    C8S17153   4.916   6.421   2.349  0.5975  0.0874  0.2871
  154OSM    H8S17154   4.991   6.339   2.340 -0.6455 -0.8754 -2.1028
  154OSM    H8T17155   4.819   6.370   2.333  1.3153 -0.8458 -1.3569
  154OSM    C9S17156   4.905   6.460   2.499  0.6838  0.3354 -0.3803
  154OSM    H9S17157   4.832   6.542   2.517 -0.4032 -1.1137  2.3901
  154OSM    H9T17158   5.002   6.498   2.537  1.3920  0.0992 -1.8913
  154OSM   C10S17159   4.880   6.337   2.593 -0.1919 -0.3232  0.6507
  154OSM   H10S17160   4.958   6.263   2.564 -0.9272 -1.6681  1.9838
  154OSM   H10T17161   4.785   6.297   2.551 -0.1258 -1.1619  1.2755
  154OSM   C11S17162   4.869   6.375   2.737  0.1090  0.0564 -0.9671
  154OSM   H11S17163   4.779   6.333   2.787  2.0781 -1.9829  1.1249
  154OSM   H11T17164   4.867   6.486   2.742  0.0962  0.0170  2.2031
  154OSM   C12S17165   4.997   6.342   2.821 -0.5930  0.4479  0.2688
  154OSM   H12S17166   5.008   6.396   2.917 -0.2462 -0.0358  0.5023
  154OSM   H12T17167   5.078   6.377   2.753 -0.7570  1.4022  0.5453
  154OSM   C13S17168   5.031   6.193   2.841 -0.5970  0.0504  0.3624
  154OSM   H13S17169   5.128   6.192   2.896 -0.8236 -0.8266  0.7714
  154OSM   H13T17170   5.054   6.143   2.745 -0.7865  1.0187 -0.1884
  154OSM   C14S17171   4.926   6.117   2.921  0.4710  0.6995 -0.7668
  154OSM   H14S17172   4.824   6.124   2.878 -0.3871  1.8898  1.2709
  154OSM   H14T17173   4.919   6.165   3.022 -3.5396 -0.1614 -0.4722
  154OSM   C15S17174   4.949   5.971   2.945 -0.3063  0.0870 -0.3118
  154OSM   H15S17175   4.970   5.922   2.848  1.1166 -0.2375  0.1432
  154OSM   H15T17176   4.853   5.933   2.987 -1.1037  2.4633  0.2115
  154OSM   C16S17177   5.068   5.943   3.045 -0.0910  0.7211  0.4710
  154OSM   H16S17178   5.059   6.010   3.133  0.5590 -0.0093  1.1073
  154OSM   H16T17179   5.165   5.966   2.994  0.3942 -0.2450  0.9315
  154OSM   C17S17180   5.073   5.793   3.083 -0.0074  0.5286 -0.3326
  154OSM   H17S17181   5.170   5.773   3.133  1.0758  0.7540 -2.2508
  154OSM   H17T17182   5.082   5.730   2.991  0.3639 -0.4340  0.3500
  154OSM   C18S17183   4.956   5.739   3.166 -0.1473  0.2010  0.8170
  154OSM   H18S17184   4.855   5.758   3.122 -0.0678  0.3107  0.6811
  154OSM   H18T17185   4.960   5.787   3.266  2.5165 -1.1076  1.4284
  154OSM   H18U17186   4.984   5.632   3.173 -0.2419  0.2387  1.9475
  154OSM    C1F17187   5.437   6.291   2.289  0.0693  0.3416  0.4706
  154OSM     OF17188   5.546   6.343   2.255  0.2394  0.1031 -0.7037
  154OSM    C2F17189   5.403   6.258   2.424  0.5946  0.8877 -0.2297
  154OSM    H2F17190   5.378   6.149   2.421 -0.3268  1.0864 -0.1917
  154OSM    H2G17191   5.310   6.309   2.456 -0.0450  0.8563 -1.9724
  154OSM    C3F17192   5.507   6.289   2.543  0.0729 -0.0085  0.6225
  154OSM    H3F17193   5.502   6.400   2.552 -3.1223 -0.1552  1.7761
  154OSM    H3G17194   5.607   6.273   2.498  0.3169 -1.4979  1.6369
  154OSM    C4F17195   5.473   6.213   2.665  0.4099 -0.3867  0.3238
  154OSM    H4F17196   5.465   6.107   2.631 -1.2965  0.4772 -2.2553
  154OSM    H4G17197   5.373   6.238   2.707  0.5872  1.1904 -0.1209
  154OSM    C5F17198   5.582   6.223   2.770 -0.3624  0.3604 -0.0149
  154OSM    H5F17199   5.621   6.327   2.772  2.1061 -0.5118 -0.3380
  154OSM    H5G17200   5.657   6.150   2.733 -1.5851  0.3281 -2.6527
  154OSM    C6F17201   5.540   6.184   2.915  0.0821  0.4712  0.1927
  154OSM    H6F17202   5.453   6.238   2.957  0.5704  0.1978  1.6323
  154OSM    H6G17203   5.625   6.210   2.983  1.8107 -1.0812 -1.2655
  154OSM    C7F17204   5.513   6.033   2.933 -0.3198  0.6913 -0.1141
  154OSM    H7F17205   5.604   5.991   2.886  0.4768  2.1741  0.0288
  154OSM    H7G17206   5.430   6.003   2.865 -1.2425  0.1877  1.1932
  154OSM    C8F17207   5.498   5.983   3.077  0.5986  0.2470  0.0843
  154OSM    H8F17208   5.414   6.034   3.129  0.1298  0.0123 -0.4331
  154OSM    H8G17209   5.588   6.022   3.130  0.6676 -0.5075  0.5409
  154OSM    C9F17210   5.487   5.829   3.086  0.0764 -0.3460 -0.8140
  154OSM    H9F17211   5.397   5.779   3.048  0.7346 -3.2377  1.1105
  154OSM   C10F17212   5.560   5.753   3.161  0.0178 -0.8191  0.2543
  154OSM   H10F17213   5.540   5.645   3.157  3.2277 -1.4710 -2.8280
  154OSM   C11F17214   5.679   5.776   3.255 -0.7522 -0.6247 -0.1995
  154OSM   H11F17215   5.713   5.882   3.261 -1.3660 -0.4663  0.7498
  154OSM   H11G17216   5.768   5.717   3.223 -1.3071 -1.1256 -0.8494
  154OSM   C12F17217   5.650   5.733   3.397 -0.1394  0.4042 -0.6212
  154OSM   H12F17218   5.643   5.623   3.407  0.1864  0.4142 -0.2735
  154OSM   H12G17219   5.556   5.785   3.426  0.5674  1.1955  0.3028
  154OSM   C13F17220   5.757   5.784   3.498 -0.5766 -0.1529 -0.4410
  154OSM   H13F17221   5.769   5.893   3.480 -2.4471 -0.1401 -1.8951
  154OSM   H13G17222   5.855   5.746   3.462 -0.8104 -2.6254  1.2936
  154OSM   C14F17223   5.742   5.728   3.640 -0.6679  0.7914  0.1834
  154OSM   H14F17224   5.842   5.741   3.687 -0.9762 -0.5903  1.2770
  154OSM   H14G17225   5.715   5.621   3.636 -2.1763  1.1603 -0.2669
  154OSM   C15F17226   5.630   5.805   3.723 -0.2243  0.5194  0.1499
  154OSM   H15F17227   5.538   5.752   3.690 -0.3122  1.3059 -0.9225
  154OSM   H15G17228   5.627   5.909   3.684  0.7358  0.1028 -1.1125
  154OSM   C16F17229   5.646   5.804   3.870 -0.1836  0.2302 -0.3442
  154OSM   H16F17230   5.740   5.859   3.893 -0.5557  2.1171 -2.9334
  154OSM   H16G17231   5.667   5.700   3.904  0.7309  0.6159  0.3145
  154OSM   C17F17232   5.532   5.884   3.934 -0.0060  0.1569  0.2585
  154OSM   H17F17233   5.437   5.829   3.915 -2.3511  4.0806 -0.5582
  154OSM   H17G17234   5.511   5.982   3.886  1.1752  0.2062 -0.2014
  154OSM   C18F17235   5.551   5.900   4.081  0.2873  0.0979  0.2992
  154OSM   H18F17236   5.639   5.966   4.098 -0.1034  0.3671  1.3095
  154OSM   H18G17237   5.561   5.801   4.131  1.4147 -0.3671 -0.7902
  154OSM   H18H17238   5.470   5.960   4.128  1.5242  0.0990  2.5683
  155OSM      N17239   2.255   3.500   2.308  0.0093 -0.9666 -0.4777
  155OSM    C1517240   2.112   3.466   2.297 -0.2504  0.0392 -0.1042
  155OSM   H15A17241   2.086   3.397   2.377  0.3683  2.0007  1.8972
  155OSM   H15B17242   2.094   3.417   2.203 -3.1409  2.0477 -0.7281
  155OSM   H15C17243   2.050   3.553   2.283 -0.9017 -0.1465  1.3929
  155OSM    C1417244   2.342   3.382   2.283 -0.3282 -0.3542 -0.1468
  155OSM   H14A17245   2.448   3.400   2.273  0.0775 -2.3879  0.0952
  155OSM   H14B17246   2.309   3.324   2.197 -0.9150  1.0897 -0.9379
  155OSM   H14C17247   2.333   3.305   2.358  0.0458 -1.4055 -1.1380
  155OSM    C1317248   2.302   3.598   2.206 -0.3509 -0.7766 -0.8226
  155OSM   H13A17249   2.302   3.560   2.105  0.5180  2.8275 -2.3385
  155OSM   H13B17250   2.406   3.614   2.228 -0.9205 -0.1647  1.7787
  155OSM   H13C17251   2.253   3.695   2.210  0.5695 -0.3546  1.6149
  155OSM    C1217252   2.281   3.567   2.442 -0.0178  0.3682 -0.5896
  155OSM   H12A17253   2.247   3.496   2.515  2.7549 -1.0215 -0.5532
  155OSM   H12B17254   2.223   3.658   2.445  0.8806  0.9620  2.4926
  155OSM    C1117255   2.428   3.607   2.475  0.2424 -0.2256  0.2691
  155OSM   H11A17256   2.501   3.527   2.452  0.3026 -0.0663 -0.1034
  155OSM   H11B17257   2.442   3.620   2.584  0.9271  3.9584 -0.1487
  155OSM      P17258   2.380   3.859   2.460  0.2179  0.1774 -0.5018
  155OSM    O1317259   2.448   3.977   2.401  0.2133  0.1109 -0.4205
  155OSM    O1417260   2.232   3.845   2.439 -0.8520  0.5241 -0.0016
  155OSM    O1117261   2.415   3.859   2.622  0.5629 -0.1690  0.1718
  155OSM    O1217262   2.455   3.728   2.408 -0.8415 -0.1820  0.2655
  155OSM    C1S17263   2.551   3.847   2.657 -0.5026  0.3574  0.3314
  155OSM    H1S17264   2.614   3.905   2.586  0.7949 -2.5940 -1.1193
  155OSM    H1T17265   2.584   3.744   2.635 -1.4023  0.2523 -0.6419
  155OSM     NF17266   2.727   3.860   2.821  0.3674  0.3412 -0.6625
  155OSM    HNF17267   2.755   3.769   2.852 -0.7058  0.3043  0.2344
  155OSM    C2S17268   2.590   3.873   2.807  1.1812  0.5375  0.1338
  155OSM    H2S17269   2.551   3.973   2.837  0.5173 -0.4864  3.0192
  155OSM    C3S17270   2.502   3.769   2.890  0.2535 -0.5099 -0.4215
  155OSM    H3S17271   2.531   3.668   2.854  0.1736 -0.8962  0.5606
  155OSM     O317272   2.361   3.774   2.862  0.3432  0.4691 -0.0225
  155OSM    HO317273   2.362   3.823   2.779 -0.4319  0.1266 -0.2423
  155OSM    C4S17274   2.526   3.784   3.039 -0.2217 -0.7048 -0.4224
  155OSM    H4S17275   2.593   3.699   3.061 -1.9562 -1.7119  1.3163
  155OSM    C5S17276   2.492   3.869   3.136  0.2669 -0.1189  0.3300
  155OSM    H5S17277   2.430   3.953   3.101  2.2612  1.9579  1.4480
  155OSM    C6S17278   2.532   3.865   3.287  0.1797 -0.1194  0.3708
  155OSM    H6S17279   2.441   3.831   3.340  0.5750  0.0284  1.1557
  155OSM    H6T17280   2.557   3.959   3.340 -0.0864  1.0399 -1.4729
  155OSM    C7S17281   2.643   3.758   3.321  0.6318  0.1283  0.2545
  155OSM    H7S17282   2.734   3.801   3.273  1.6824 -0.9079  1.2401
  155OSM    H7T17283   2.620   3.654   3.287  0.6519  0.4533 -0.7687
  155OSM    C8S17284   2.665   3.740   3.474  0.2859 -0.0369  0.1079
  155OSM    H8S17285   2.671   3.841   3.520 -1.9553 -0.0241  0.4939
  155OSM    H8T17286   2.758   3.685   3.502  0.8797  0.5007 -0.7616
  155OSM    C9S17287   2.553   3.646   3.527 -0.2258 -0.3485  0.6864
  155OSM    H9S17288   2.544   3.561   3.456 -1.3010  1.3757 -1.3580
  155OSM    H9T17289   2.461   3.709   3.534  1.8074  2.7913  1.0191
  155OSM   C10S17290   2.577   3.595   3.671 -0.0261  0.6745 -0.1516
  155OSM   H10S17291   2.607   3.677   3.739 -0.2448  1.5477 -1.0873
  155OSM   H10T17292   2.668   3.534   3.655  0.7251  1.3050  1.5091
  155OSM   C11S17293   2.468   3.517   3.733  0.2065  0.7504 -0.5317
  155OSM   H11S17294   2.438   3.439   3.659  0.4000 -1.3076  1.4367
  155OSM   H11T17295   2.375   3.576   3.748 -0.1294  1.4433 -4.3109
  155OSM   C12S17296   2.513   3.450   3.867  0.2173  0.4468  0.2563
  155OSM   H12S17297   2.505   3.536   3.937 -0.5342 -0.0579  0.8172
  155OSM   H12T17298   2.619   3.417   3.867  0.5536  1.4726  1.5206
  155OSM   C13S17299   2.425   3.332   3.917 -0.2121 -0.0524  0.2373
  155OSM   H13S17300   2.442   3.241   3.855  2.3966 -2.1533  3.6985
  155OSM   H13T17301   2.318   3.361   3.918 -0.5359 -0.9951  3.5085
  155OSM   C14S17302   2.462   3.284   4.053 -0.0780  0.1704 -0.5150
  155OSM   H14S17303   2.472   3.363   4.131  3.2844 -1.2580  0.6782
  155OSM   H14T17304   2.571   3.261   4.050 -0.2010 -0.6868  0.8644
  155OSM   C15S17305   2.376   3.164   4.106 -0.1371 -0.7550 -0.3478
  155OSM   H15S17306   2.383   3.080   4.034 -1.1652 -2.1660  1.1192
  155OSM   H15T17307   2.268   3.185   4.125 -0.4560 -0.3178 -2.4001
  155OSM   C16S17308   2.421   3.111   4.241 -0.3557 -0.1735 -0.6629
  155OSM   H16S17309   2.354   3.024   4.258 -0.5270 -0.0294 -0.5916
  155OSM   H16T17310   2.407   3.195   4.313 -0.4042 -0.9522  0.2518
  155OSM   C17S17311   2.569   3.055   4.246 -0.1274 -0.2953 -0.0967
  155OSM   H17S17312   2.626   3.122   4.178 -1.6829 -0.2086 -1.3778
  155OSM   H17T17313   2.564   2.948   4.219  0.5578 -0.3614  0.0124
  155OSM   C18S17314   2.607   3.053   4.393 -0.3189 -0.3381 -0.3725
  155OSM   H18S17315   2.593   3.150   4.446 -0.3013 -0.3935 -0.2653
  155OSM   H18T17316   2.717   3.038   4.405 -0.0061  2.3086  0.9141
  155OSM   H18U17317   2.553   2.968   4.439  0.7492 -1.2889 -0.8298
  155OSM    C1F17318   2.820   3.948   2.793  0.2663 -1.1943  0.0444
  155OSM     OF17319   2.800   4.042   2.713  0.0111  0.8216  0.1622
  155OSM    C2F17320   2.964   3.931   2.853  0.0650 -0.0342  0.1798
  155OSM    H2F17321   2.982   3.822   2.837  0.7663 -0.0030  0.7499
  155OSM    H2G17322   2.961   3.932   2.964  1.7100 -1.5521  0.2851
  155OSM    C3F17323   3.076   4.015   2.784 -0.3310  0.7469 -0.2929
  155OSM    H3F17324   3.069   4.125   2.793 -0.2668  0.9096 -1.9358
  155OSM    H3G17325   3.086   3.990   2.676 -2.5740  1.4453 -0.6993
  155OSM    C4F17326   3.207   3.974   2.854  0.0871  0.2221 -0.2333
  155OSM    H4F17327   3.290   4.024   2.799 -1.0348  0.4165 -1.7858
  155OSM    H4G17328   3.241   3.868   2.849  1.2066  0.5830 -0.5479
  155OSM    C5F17329   3.196   4.006   3.007 -0.2728  0.4864  0.1053
  155OSM    H5F17330   3.127   3.937   3.059  0.6514  0.6492  1.6146
  155OSM    H5G17331   3.164   4.111   3.023  0.4015  0.4086  2.1843
  155OSM    C6F17332   3.325   3.989   3.094 -0.7144 -0.4341  0.0849
  155OSM    H6F17333   3.408   4.052   3.056 -0.6924 -0.0097  0.8300
  155OSM    H6G17334   3.348   3.880   3.096  0.4254 -0.1964  0.5250
  155OSM    C7F17335   3.304   4.034   3.236 -0.3516 -0.2794  0.1016
  155OSM    H7F17336   3.209   3.993   3.276  1.1992 -2.8255  1.5001
  155OSM    H7G17337   3.300   4.145   3.237  1.3826 -0.1959  1.4431
  155OSM    C8F17338   3.405   3.986   3.336 -0.5801 -0.0392  0.3557
  155OSM    H8F17339   3.413   3.878   3.312  0.6004 -0.0122  0.5671
  155OSM    H8G17340   3.359   3.993   3.437 -0.0954  1.2167  0.5037
  155OSM    C9F17341   3.536   4.068   3.327  0.2174  0.7971 -0.1330
  155OSM    H9F17342   3.586   4.070   3.229  0.2244  0.6284 -0.1334
  155OSM   C10F17343   3.569   4.177   3.401  0.3986  0.3870 -0.0105
  155OSM   H10F17344   3.657   4.237   3.373  0.7576 -0.2973 -0.3996
  155OSM   C11F17345   3.506   4.215   3.530  1.0923  0.6359 -0.5290
  155OSM   H11F17346   3.447   4.132   3.573  0.9686 -0.4082 -2.5777
  155OSM   H11G17347   3.435   4.298   3.512 -0.5059 -0.3484  0.9531
  155OSM   C12F17348   3.617   4.248   3.637 -0.1058  0.4919 -0.1928
  155OSM   H12F17349   3.699   4.313   3.600  0.1473  0.5079  0.3915
  155OSM   H12G17350   3.671   4.152   3.649  0.4283  0.8400  0.2163
  155OSM   C13F17351   3.557   4.308   3.762  0.0546  0.0265  1.0382
  155OSM   H13F17352   3.471   4.243   3.788 -0.7197  0.4521 -0.3493
  155OSM   H13G17353   3.522   4.413   3.758  0.3812  0.1145  0.1872
  155OSM   C14F17354   3.656   4.301   3.876  0.3818 -0.1380  0.1296
  155OSM   H14F17355   3.745   4.356   3.836  0.5274  0.0885  0.7513
  155OSM   H14G17356   3.689   4.200   3.906  1.0135 -0.3290 -1.1497
  155OSM   C15F17357   3.607   4.357   4.013 -0.9073  0.1851  0.1770
  155OSM   H15F17358   3.600   4.468   4.007 -1.2817  0.1162 -0.8051
  155OSM   H15G17359   3.692   4.340   4.083  0.2021  0.4077 -1.0675
  155OSM   C16F17360   3.472   4.299   4.068 -0.9532  0.1594  0.5266
  155OSM   H16F17361   3.471   4.191   4.043  2.2157 -0.1161  1.2198
  155OSM   H16G17362   3.387   4.345   4.014  0.3663 -0.0784 -1.8924
  155OSM   C17F17363   3.472   4.328   4.219  0.4148 -0.4035  0.0339
  155OSM   H17F17364   3.483   4.438   4.229  1.3558 -0.3110 -1.5925
  155OSM   H17G17365   3.559   4.274   4.263 -1.0303 -1.8456  1.2387
  155OSM   C18F17366   3.349   4.290   4.292  0.0818  0.5309  0.2136
  155OSM   H18F17367   3.318   4.190   4.254 -1.8770  0.5910  1.5192
  155OSM   H18G17368   3.263   4.354   4.263 -0.6465 -1.6759 -3.0632
  155OSM   H18H17369   3.375   4.287   4.400  0.5978 -0.9681  0.0670
  156OSM      N17370   4.877   4.005   2.291  0.1955  1.2223 -0.1298
  156OSM    C1517371   4.815   4.015   2.425 -0.5043  0.2916 -1.3498
  156OSM   H15A17372   4.709   4.027   2.439 -0.3140  0.9146 -0.2993
  156OSM   H15B17373   4.869   4.086   2.486  0.5656 -2.5403  1.2497
  156OSM   H15C17374   4.827   3.920   2.474  0.1652  0.7976 -0.4944
  156OSM    C1417375   5.021   3.975   2.309  0.5406 -0.2403 -0.6476
  156OSM   H14A17376   5.065   4.059   2.360 -1.4998  0.4461  0.0455
  156OSM   H14B17377   5.071   3.951   2.216  1.5180  0.0392 -0.2025
  156OSM   H14C17378   5.021   3.889   2.375  0.7236  0.5710  0.4260
  156OSM    C1317379   4.815   3.873   2.239 -0.5129  0.3349 -0.3082
  156OSM   H13A17380   4.835   3.796   2.312 -0.5988  0.6550  0.0573
  156OSM   H13B17381   4.859   3.836   2.148  1.8223 -2.2491  1.6610
  156OSM   H13C17382   4.708   3.880   2.225 -0.3074  1.2107 -1.5232
  156OSM    C1217383   4.842   4.118   2.196 -0.0175  0.2728  0.1913
  156OSM   H12A17384   4.869   4.081   2.098 -1.0539 -2.7100  0.9349
  156OSM   H12B17385   4.915   4.197   2.213  1.6856 -0.9231 -1.1698
  156OSM    C1117386   4.692   4.172   2.195  0.0796  0.7574  0.1992
  156OSM   H11A17387   4.682   4.269   2.141 -2.4113  0.1639 -0.5652
  156OSM   H11B17388   4.671   4.210   2.298  2.0072 -0.0424  0.9230
  156OSM      P17389   4.440   4.074   2.171 -0.0912  0.0364  0.5628
  156OSM    O1317390   4.386   4.198   2.105  0.0458  0.5681  0.3660
  156OSM    O1417391   4.377   3.946   2.145  0.0366  0.5613  0.0960
  156OSM    O1117392   4.443   4.093   2.329  0.0812  0.1020 -0.1595
  156OSM    O1217393   4.596   4.073   2.149 -0.4606 -0.7127 -0.7225
  156OSM    C1S17394   4.329   4.073   2.409  1.4712 -0.0651  0.4185
  156OSM    H1S17395   4.284   3.977   2.375  0.8881  0.3717 -0.0758
  156OSM    H1T17396   4.263   4.159   2.384  2.6145  0.5264 -0.6734
  156OSM     NF17397   4.240   4.013   2.629 -0.1264  0.7313 -0.3719
  156OSM    HNF17398   4.170   4.073   2.665  0.1201 -0.0534  1.4874
  156OSM    C2S17399   4.353   4.068   2.564 -0.4239 -0.1401 -0.8705
  156OSM    H2S17400   4.427   3.985   2.571 -0.6439 -0.3874 -1.4347
  156OSM    C3S17401   4.415   4.193   2.623 -0.5048 -0.6802 -0.5156
  156OSM    H3S17402   4.347   4.279   2.607  1.0193  0.4150 -1.3184
  156OSM     O317403   4.531   4.236   2.554 -0.5163 -0.0355 -0.1262
  156OSM    HO317404   4.519   4.188   2.472 -0.2224 -0.0775 -0.1445
  156OSM    C4S17405   4.440   4.170   2.777 -0.4370  0.4282  0.0863
  156OSM    H4S17406   4.373   4.209   2.854  1.9572 -0.4457  2.7646
  156OSM    C5S17407   4.540   4.093   2.821  0.1459  0.9476  0.0094
  156OSM    H5S17408   4.609   4.037   2.756 -0.0294 -0.8387  1.3093
  156OSM    C6S17409   4.555   4.057   2.968  0.9252  0.4999 -0.0156
  156OSM    H6S17410   4.661   4.061   3.003  0.4265 -1.3158  1.9522
  156OSM    H6T17411   4.532   3.951   2.991 -0.1156  0.4793 -1.1242
  156OSM    C7S17412   4.467   4.141   3.067 -0.5156 -0.4074  0.5090
  156OSM    H7S17413   4.359   4.116   3.058 -1.0174  1.6600  0.2939
  156OSM    H7T17414   4.466   4.252   3.062  0.3482 -0.2658  2.4752
  156OSM    C8S17415   4.505   4.105   3.215 -0.0760 -0.0751  0.9399
  156OSM    H8S17416   4.612   4.131   3.227  0.3574 -1.9739  1.4313
  156OSM    H8T17417   4.486   3.997   3.230 -1.3537  0.1072  0.7622
  156OSM    C9S17418   4.431   4.187   3.316 -0.3226 -0.3359  0.7152
  156OSM    H9S17419   4.323   4.175   3.289 -0.9143  0.4608  2.5602
  156OSM    H9T17420   4.459   4.294   3.310 -1.1838 -0.1873 -1.7114
  156OSM   C10S17421   4.457   4.135   3.459  0.5101  0.4252  0.4887
  156OSM   H10S17422   4.564   4.142   3.487  0.0446  0.6443  2.3166
  156OSM   H10T17423   4.419   4.031   3.469  0.4482  0.4175  0.1937
  156OSM   C11S17424   4.378   4.229   3.557  0.3406  0.6220  0.0295
  156OSM   H11S17425   4.276   4.248   3.517  0.7083  2.4965 -0.0947
  156OSM   H11T17426   4.419   4.332   3.556 -3.1205  2.1515  1.1188
  156OSM   C12S17427   4.370   4.168   3.699 -0.4875 -0.1494 -0.1036
  156OSM   H12S17428   4.475   4.140   3.721 -0.5576 -0.3721 -0.0590
  156OSM   H12T17429   4.328   4.066   3.702  3.1201 -1.7712 -0.2601
  156OSM   C13S17430   4.330   4.250   3.817 -0.4462 -0.2455  0.3026
  156OSM   H13S17431   4.223   4.274   3.802 -1.2025 -1.0104  3.6505
  156OSM   H13T17432   4.397   4.337   3.803 -2.4585  1.3708  0.3925
  156OSM   C14S17433   4.344   4.181   3.946 -0.0795  0.0363  0.2073
  156OSM   H14S17434   4.448   4.144   3.956  1.0216  2.0151 -2.5723
  156OSM   H14T17435   4.278   4.092   3.944 -0.2951  0.1910  0.3651
  156OSM   C15S17436   4.299   4.275   4.059  0.3338  0.1560  0.3348
  156OSM   H15S17437   4.191   4.263   4.079  0.4115 -1.0689  0.0971
  156OSM   H15T17438   4.316   4.381   4.033 -0.3725  0.7217  2.0831
  156OSM   C16S17439   4.378   4.246   4.186  0.0775  0.4598  0.1310
  156OSM   H16S17440   4.487   4.259   4.169  0.0591  1.0594  0.4542
  156OSM   H16T17441   4.365   4.144   4.228  1.8637  0.0807 -0.1821
  156OSM   C17S17442   4.352   4.357   4.298 -0.1913  0.1396  0.5614
  156OSM   H17S17443   4.242   4.355   4.308 -0.9267 -0.3550 -4.6557
  156OSM   H17T17444   4.378   4.458   4.258  1.3860 -0.3825  0.1963
  156OSM   C18S17445   4.424   4.316   4.426  0.0078 -1.1232 -0.3053
  156OSM   H18S17446   4.531   4.288   4.422  0.2592 -0.6286  1.7457
  156OSM   H18T17447   4.380   4.227   4.475  1.1374 -1.4007  0.2270
  156OSM   H18U17448   4.429   4.389   4.510 -0.5934 -1.9180  0.4382
  156OSM    C1F17449   4.205   3.882   2.603  0.4757 -0.2490  0.0154
  156OSM     OF17450   4.288   3.802   2.567 -0.2028 -0.7348 -0.5638
  156OSM    C2F17451   4.062   3.835   2.625 -0.0130  0.2356  0.1496
  156OSM    H2F17452   4.062   3.724   2.621 -1.5407  0.2293 -3.4428
  156OSM    H2G17453   4.005   3.865   2.535  0.9922 -1.8460 -1.2705
  156OSM    C3F17454   3.990   3.879   2.757 -0.1533 -1.3107  0.5924
  156OSM    H3F17455   3.890   3.831   2.749 -1.0211  0.3587  0.9249
  156OSM    H3G17456   3.982   3.989   2.773 -1.7319 -1.0875 -1.3305
  156OSM    C4F17457   4.051   3.816   2.879  1.2199  0.2370 -0.1786
  156OSM    H4F17458   4.148   3.870   2.888  0.6786  0.9381  1.9400
  156OSM    H4G17459   4.066   3.707   2.870  0.7348  0.3297 -3.7357
  156OSM    C5F17460   3.959   3.856   2.997  0.4132  0.0068  0.5231
  156OSM    H5F17461   3.863   3.800   2.999  1.0752 -1.1865 -0.0739
  156OSM    H5G17462   3.917   3.958   2.987 -2.5445 -0.9113  2.1597
  156OSM    C6F17463   4.026   3.838   3.133  0.2280  0.0270 -0.6402
  156OSM    H6F17464   4.082   3.933   3.148 -1.8150  1.2319 -0.2494
  156OSM    H6G17465   4.098   3.753   3.140 -0.8157 -0.7759  0.8216
  156OSM    C7F17466   3.924   3.823   3.254  0.3104  0.0924  0.1399
  156OSM    H7F17467   3.857   3.738   3.230 -0.2710 -0.0833  2.2016
  156OSM    H7G17468   3.856   3.911   3.259 -1.2201 -0.9278 -1.7303
  156OSM    C8F17469   3.991   3.783   3.389 -0.0644 -0.1774 -0.4269
  156OSM    H8F17470   4.058   3.696   3.373  0.7933  0.6049 -1.2640
  156OSM    H8G17471   3.913   3.758   3.464  1.6938 -0.5734  1.3468
  156OSM    C9F17472   4.077   3.895   3.453 -0.5406 -0.6070  0.2502
  156OSM    H9F17473   4.183   3.891   3.427 -0.6746 -0.2605 -0.3872
  156OSM   C10F17474   4.040   3.985   3.543 -1.1752 -0.2033  0.1118
  156OSM   H10F17475   4.119   4.048   3.586 -0.3233 -2.0855  1.4267
  156OSM   C11F17476   3.897   4.019   3.595 -0.1380  0.3338 -0.2180
  156OSM   H11F17477   3.822   3.983   3.521  0.4859 -0.6050 -0.4077
  156OSM   H11G17478   3.879   4.128   3.606  0.6430  0.7280 -2.3597
  156OSM   C12F17479   3.857   3.963   3.740 -0.8615 -0.0532 -0.4121
  156OSM   H12F17480   3.875   3.854   3.750  0.5934  0.3030  1.3237
  156OSM   H12G17481   3.748   3.975   3.755 -0.5854  0.5930  1.3530
  156OSM   C13F17482   3.921   4.035   3.858 -0.5148 -0.3029  0.9113
  156OSM   H13F17483   3.897   4.142   3.838  1.7032  0.1305  0.3171
  156OSM   H13G17484   4.031   4.027   3.872 -0.0839 -1.8151 -2.4578
  156OSM   C14F17485   3.852   3.982   3.987  0.3960  0.1669 -0.4936
  156OSM   H14F17486   3.877   3.874   3.992 -1.2327 -0.2336 -0.5001
  156OSM   H14G17487   3.742   3.978   3.970  0.3137 -2.8074  0.2494
  156OSM   C15F17488   3.862   4.058   4.122 -0.3570  0.2176 -0.5130
  156OSM   H15F17489   3.819   4.159   4.105  0.0079  0.4107 -0.3046
  156OSM   H15G17490   3.969   4.076   4.147 -0.0423  0.0453 -1.6808
  156OSM   C16F17491   3.794   3.998   4.249 -0.5767  0.4660  0.1653
  156OSM   H16F17492   3.814   4.058   4.340 -0.1115 -1.4547  1.3792
  156OSM   H16G17493   3.840   3.899   4.267 -0.3830  0.1162 -1.9507
  156OSM   C17F17494   3.639   3.975   4.226 -0.6640 -0.2373  0.2773
  156OSM   H17F17495   3.620   3.890   4.157  1.8211 -1.8788  1.4737
  156OSM   H17G17496   3.606   4.069   4.176 -1.0465 -0.3036  0.3997
  156OSM   C18F17497   3.549   3.956   4.350  0.4210  1.1464 -0.5217
  156OSM   H18F17498   3.441   3.965   4.326 -0.1866 -1.6898  0.7360
  156OSM   H18G17499   3.571   4.020   4.438  2.2854 -0.2385  0.0967
  156OSM   H18H17500   3.564   3.853   4.390 -1.7520  1.2609  0.7733
  157OSM      N17501   4.868   4.871   1.839  1.2632 -0.0739  0.4100
  157OSM    C1517502   4.732   4.859   1.903  0.0305 -0.1637  0.2375
  157OSM   H15A17503   4.740   4.909   1.998  3.0111  0.5358 -0.2832
  157OSM   H15B17504   4.702   4.757   1.922  0.1975 -0.1747  0.4447
  157OSM   H15C17505   4.653   4.915   1.856 -0.0167 -1.8222 -1.8024
  157OSM    C1417506   4.856   4.814   1.703  0.5680  0.5314  0.0057
  157OSM   H14A17507   4.766   4.858   1.663 -1.3226 -2.4583  0.6019
  157OSM   H14B17508   4.841   4.707   1.702  1.3236  0.3838 -2.7242
  157OSM   H14C17509   4.928   4.843   1.628 -0.3680 -0.2362 -1.2304
  157OSM    C1317510   4.904   5.012   1.835  0.2622 -0.1222 -0.7490
  157OSM   H13A17511   4.994   5.027   1.779  0.5919  1.2742  0.1088
  157OSM   H13B17512   4.924   5.035   1.939 -0.7552 -0.6796 -0.4020
  157OSM   H13C17513   4.828   5.075   1.792 -0.8709 -2.3587 -2.2027
  157OSM    C1217514   4.970   4.802   1.922  0.0978 -0.3629 -0.0570
  157OSM   H12A17515   5.055   4.794   1.855 -1.6386 -0.6222 -2.3611
  157OSM   H12B17516   4.934   4.701   1.936  0.6530 -0.8037 -1.5762
  157OSM    C1117517   5.015   4.861   2.060  0.4914  0.4044  0.5167
  157OSM   H11A17518   5.068   4.780   2.116 -2.4334 -0.9894  1.4580
  157OSM   H11B17519   4.920   4.873   2.117  0.2811  0.3634  0.1766
  157OSM      P17520   5.251   4.970   2.033 -0.1480  0.4268 -0.2765
  157OSM    O1317521   5.281   4.844   1.964 -0.0561  0.3492 -0.0503
  157OSM    O1417522   5.283   5.094   1.958 -0.4809 -0.5444 -0.4005
  157OSM    O1117523   5.308   4.972   2.181  0.6923 -0.3878  0.8335
  157OSM    O1217524   5.098   4.974   2.057  0.2325 -0.1555  0.0589
  157OSM    C1S17525   5.302   5.092   2.256  0.8654  0.2954  0.2276
  157OSM    H1S17526   5.195   5.110   2.279 -0.0557 -0.9554 -2.6541
  157OSM    H1T17527   5.338   5.184   2.205 -0.7621  1.0371  0.3377
  157OSM     NF17528   5.358   5.193   2.469  0.3623 -0.2406 -0.3098
  157OSM    HNF17529   5.428   5.263   2.457 -0.2429  0.3326 -0.5585
  157OSM    C2S17530   5.379   5.083   2.384 -0.4989 -0.3836 -0.2734
  157OSM    H2S17531   5.349   4.990   2.436  2.3785 -1.9199 -1.1590
  157OSM    C3S17532   5.530   5.044   2.356  0.0300  0.1201 -0.4713
  157OSM    H3S17533   5.581   5.123   2.298  1.0758 -1.4480 -1.7929
  157OSM     O317534   5.552   4.922   2.288  0.0033  0.2741  0.0304
  157OSM    HO317535   5.464   4.901   2.256 -0.7611  3.6424 -0.4283
  157OSM    C4S17536   5.610   5.031   2.493 -0.1827 -0.4567 -0.1243
  157OSM    H4S17537   5.567   4.967   2.572 -0.3905 -2.3087 -1.6570
  157OSM    C5S17538   5.726   5.092   2.519 -0.7946  0.3093  0.1187
  157OSM    H5S17539   5.786   5.134   2.436  3.5377 -0.4609  2.5530
  157OSM    C6S17540   5.808   5.065   2.645  0.1629 -0.0690 -0.1522
  157OSM    H6S17541   5.827   5.162   2.695 -1.4372  1.1117 -1.6863
  157OSM    H6T17542   5.903   5.035   2.595 -1.0318 -1.1723 -1.8754
  157OSM    C7S17543   5.772   4.940   2.732  0.3002 -1.0052  0.6067
  157OSM    H7S17544   5.765   4.845   2.673  0.8857 -0.3868 -0.4916
  157OSM    H7T17545   5.686   4.957   2.801 -1.1574 -1.9539 -0.8936
  157OSM    C8S17546   5.892   4.907   2.825 -0.2095  0.5502 -0.6925
  157OSM    H8S17547   5.924   4.992   2.888 -0.3437 -0.9335  1.4874
  157OSM    H8T17548   5.975   4.862   2.766  1.0816 -2.0007  2.7610
  157OSM    C9S17549   5.855   4.794   2.935 -0.2813  0.1650  0.2110
  157OSM    H9S17550   5.957   4.774   2.975  0.8680  0.6472 -2.2642
  157OSM    H9T17551   5.809   4.703   2.889 -1.1244  0.3458  0.6777
  157OSM   C10S17552   5.755   4.838   3.042 -0.1111 -0.1817  0.1498
  157OSM   H10S17553   5.661   4.872   2.993  0.1240  3.2868  1.8272
  157OSM   H10T17554   5.792   4.921   3.106  1.1112 -0.8329  0.3151
  157OSM   C11S17555   5.732   4.721   3.144  0.2468  0.2991 -0.6357
  157OSM   H11S17556   5.834   4.694   3.180  0.3604  3.6476  2.1093
  157OSM   H11T17557   5.683   4.634   3.096 -0.4260 -0.3955  1.2272
  157OSM   C12S17558   5.652   4.770   3.265 -0.0068 -0.5628  0.5259
  157OSM   H12S17559   5.550   4.804   3.236  0.7653  1.7605  0.2808
  157OSM   H12T17560   5.703   4.853   3.318 -1.0082 -0.8307  1.9700
  157OSM   C13S17561   5.635   4.662   3.371  0.3686  0.4869 -0.6994
  157OSM   H13S17562   5.738   4.624   3.386  0.6695 -0.1991 -3.8176
  157OSM   H13T17563   5.568   4.589   3.322 -0.9720 -0.6223  2.5315
  157OSM   C14S17564   5.574   4.701   3.506  0.1123 -0.1553  0.1152
  157OSM   H14S17565   5.562   4.606   3.562  0.7911 -1.5759 -2.0321
  157OSM   H14T17566   5.482   4.758   3.484 -1.3812 -2.3105  0.4615
  157OSM   C15S17567   5.655   4.797   3.602  0.2589  0.3701 -0.6444
  157OSM   H15S17568   5.668   4.893   3.547 -0.2032 -0.6607 -2.6680
  157OSM   H15T17569   5.759   4.758   3.603  0.3820  0.5430 -2.4073
  157OSM   C16S17570   5.594   4.808   3.742 -0.0994  0.4634 -0.9603
  157OSM   H16S17571   5.576   4.707   3.783  0.3632  0.3975 -0.9082
  157OSM   H16T17572   5.499   4.865   3.736  0.1895  0.9323 -1.1586
  157OSM   C17S17573   5.684   4.878   3.844 -0.7836 -0.5030 -0.9097
  157OSM   H17S17574   5.729   4.973   3.808 -0.4793 -0.7690 -1.2276
  157OSM   H17T17575   5.765   4.804   3.858 -0.2763  0.1527 -0.3219
  157OSM   C18S17576   5.614   4.909   3.971 -0.3027 -0.5548 -0.4861
  157OSM   H18S17577   5.677   4.975   4.035  0.2614 -1.3719 -0.1810
  157OSM   H18T17578   5.591   4.817   4.029  1.1993 -1.2810 -1.0055
  157OSM   H18U17579   5.516   4.957   3.950 -0.1486 -0.0398 -0.0505
  157OSM    C1F17580   5.241   5.204   2.537  0.3529  0.9867  0.6060
  157OSM     OF17581   5.167   5.104   2.543 -0.1290  0.0991 -0.5352
  157OSM    C2F17582   5.213   5.331   2.608  1.2066 -0.2327  0.3361
  157OSM    H2F17583   5.165   5.400   2.536  0.7410  0.1350  0.9842
  157OSM    H2G17584   5.309   5.378   2.638  1.2845 -0.2568  0.1249
  157OSM    C3F17585   5.112   5.311   2.730 -0.6677  0.5449  0.8531
  157OSM    H3F17586   5.112   5.209   2.773  1.0913  0.2840  0.3006
  157OSM    H3G17587   5.008   5.304   2.691 -0.5845 -0.4350  0.7890
  157OSM    C4F17588   5.126   5.409   2.841  0.3727  0.1861  0.3501
  157OSM    H4F17589   5.032   5.415   2.899 -0.2240  2.1325 -0.7371
  157OSM    H4G17590   5.136   5.512   2.801  0.8016 -0.4515 -1.2604
  157OSM    C5F17591   5.238   5.384   2.946  0.5932 -0.5599 -0.0447
  157OSM    H5F17592   5.341   5.399   2.904  0.6773  1.9048  0.8916
  157OSM    H5G17593   5.232   5.281   2.986  0.1918 -0.4715  0.1183
  157OSM    C6F17594   5.235   5.479   3.060  0.6326  0.5816  0.1886
  157OSM    H6F17595   5.135   5.500   3.105  0.9013  0.5758  0.7921
  157OSM    H6G17596   5.271   5.582   3.037  0.9466  0.9129  2.0404
  157OSM    C7F17597   5.320   5.431   3.180 -0.0801  0.0236  0.0570
  157OSM    H7F17598   5.424   5.434   3.142 -0.6704  1.7522 -1.5690
  157OSM    H7G17599   5.303   5.323   3.202  1.7240 -0.6729 -1.6476
  157OSM    C8F17600   5.299   5.521   3.300 -0.0125 -0.1781 -0.0514
  157OSM    H8F17601   5.190   5.537   3.311 -0.1671 -1.7200  0.8897
  157OSM    H8G17602   5.346   5.620   3.279 -1.1232  0.4389  0.2843
  157OSM    C9F17603   5.369   5.476   3.423  0.4124  0.9359 -0.2633
  157OSM    H9F17604   5.411   5.375   3.414 -0.7159  0.4404 -0.1753
  157OSM   C10F17605   5.354   5.533   3.541  0.5192 -0.7159 -0.4135
  157OSM   H10F17606   5.398   5.475   3.623 -1.2686 -1.2579  0.2200
  157OSM   C11F17607   5.274   5.659   3.589 -0.2241 -0.4546 -0.1345
  157OSM   H11F17608   5.222   5.704   3.501  0.0514  1.3711  0.5870
  157OSM   H11G17609   5.332   5.732   3.649 -0.7956  0.0774 -0.2076
  157OSM   C12F17610   5.166   5.614   3.696 -0.0803  0.6240 -0.1845
  157OSM   H12F17611   5.125   5.519   3.656  1.4159  0.6057 -1.7955
  157OSM   H12G17612   5.077   5.679   3.697 -2.4626 -2.4142 -0.4220
  157OSM   C13F17613   5.213   5.604   3.840 -0.3832 -0.3093 -0.1356
  157OSM   H13F17614   5.263   5.702   3.847 -2.7908  1.1894 -2.1334
  157OSM   H13G17615   5.284   5.520   3.855 -0.5286 -0.7906 -1.8930
  157OSM   C14F17616   5.098   5.581   3.938 -0.0026 -0.0538 -0.1524
  157OSM   H14F17617   5.136   5.538   4.033 -2.7332 -1.4651  0.4209
  157OSM   H14G17618   5.026   5.509   3.894  2.2918 -3.3288  1.1195
  157OSM   C15F17619   5.015   5.706   3.978 -0.5064 -0.7204  0.5190
  157OSM   H15F17620   4.969   5.756   3.890  0.5953  0.1892  0.4406
  157OSM   H15G17621   5.077   5.780   4.034 -0.1109 -0.0115 -0.8264
  157OSM   C16F17622   4.908   5.662   4.078  0.4419  0.0926  0.0474
  157OSM   H16F17623   4.945   5.636   4.179 -0.7166  1.5796  0.8953
  157OSM   H16G17624   4.843   5.577   4.049 -0.7815 -0.0413  2.8921
  157OSM   C17F17625   4.802   5.773   4.107 -1.2967  0.3429 -0.4041
  157OSM   H17F17626   4.720   5.741   4.175 -2.2048  1.4163 -0.9550
  157OSM   H17G17627   4.752   5.795   4.010 -0.5782 -0.7021 -1.0330
  157OSM   C18F17628   4.865   5.903   4.160  0.2026  0.0175  0.2239
  157OSM   H18F17629   4.954   5.882   4.223  0.2831 -0.5350 -0.0654
  157OSM   H18G17630   4.798   5.969   4.218 -0.6630 -0.3120 -0.3895
  157OSM   H18H17631   4.913   5.955   4.075  1.8446  0.8987  1.6231
  158OSM      N17632   0.524   2.540   2.205 -0.2002 -0.2065  1.1662
  158OSM    C1517633   0.473   2.397   2.209 -0.0293  0.3996 -0.0144
  158OSM   H15A17634   0.437   2.369   2.112 -1.3083  0.4309  0.4349
  158OSM   H15B17635   0.388   2.385   2.275 -2.2416  1.1628 -2.5472
  158OSM   H15C17636   0.557   2.335   2.237  0.2376  1.1576  0.9287
  158OSM    C1417637   0.617   2.539   2.091  0.3558  0.1320 -0.2080
  158OSM   H14A17638   0.632   2.641   2.058 -0.4758  0.5298  0.6044
  158OSM   H14B17639   0.568   2.493   2.006  0.8217 -0.1354 -0.3342
  158OSM   H14C17640   0.711   2.493   2.117  0.1703 -0.7637 -1.0301
  158OSM    C1317641   0.409   2.631   2.177 -0.4695  0.4132 -0.9083
  158OSM   H13A17642   0.438   2.736   2.179  2.0395 -0.1926 -1.5206
  158OSM   H13B17643   0.329   2.619   2.249  1.0299  0.3470  0.8241
  158OSM   H13C17644   0.369   2.610   2.079 -1.3533  0.7173 -0.6253
  158OSM    C1217645   0.615   2.573   2.325  0.0828  0.2872  0.0272
  158OSM   H12A17646   0.666   2.665   2.302 -0.1849  0.8248  1.4999
  158OSM   H12B17647   0.681   2.492   2.350 -1.2384 -0.6237  0.7036
  158OSM    C1117648   0.532   2.614   2.460 -0.5880  0.7272  0.1847
  158OSM   H11A17649   0.612   2.624   2.536  1.0720  0.0834 -1.3910
  158OSM   H11B17650   0.472   2.521   2.468  0.4506 -0.0628 -0.8805
  158OSM      P17651   0.499   2.875   2.415  0.0354  0.0444 -0.2533
  158OSM    O1317652   0.647   2.862   2.400  0.1580  0.0919 -0.1354
  158OSM    O1417653   0.427   2.955   2.320  0.3689 -0.7830 -0.1155
  158OSM    O1117654   0.471   2.938   2.559  0.0401  0.1042  0.7877
  158OSM    O1217655   0.446   2.732   2.440 -0.0453  0.0915  0.8155
  158OSM    C1S17656   0.336   2.950   2.609  0.1965 -0.4243 -0.2989
  158OSM    H1S17657   0.272   2.867   2.571 -2.6231  1.0310  0.9785
  158OSM    H1T17658   0.296   3.051   2.586  1.7674  0.9067  2.3252
  158OSM     NF17659   0.197   2.932   2.809 -0.0042 -0.0865  0.9257
  158OSM    HNF17660   0.149   3.015   2.837  0.1448  0.1260  0.5519
  158OSM    C2S17661   0.337   2.948   2.765 -0.5248  0.5996 -0.1741
  158OSM    H2S17662   0.398   2.857   2.784 -1.8204 -0.2529  0.0411
  158OSM    C3S17663   0.417   3.074   2.807 -0.1516 -0.4743  0.0296
  158OSM    H3S17664   0.361   3.160   2.764  0.5976 -1.2811 -2.7875
  158OSM     O317665   0.545   3.086   2.753 -0.1553 -0.1696  0.1385
  158OSM    HO317666   0.534   3.040   2.669  0.4328  2.5343 -1.5170
  158OSM    C4S17667   0.424   3.062   2.960 -0.0846  0.0938 -0.0567
  158OSM    H4S17668   0.356   3.130   3.013 -0.8992 -0.0989 -0.8206
  158OSM    C5S17669   0.505   2.976   3.024 -0.1854  0.2708  0.0703
  158OSM    H5S17670   0.575   2.913   2.968 -0.3513  0.6993 -0.6403
  158OSM    C6S17671   0.514   2.969   3.176  0.0517 -0.1005  0.0706
  158OSM    H6S17672   0.465   2.888   3.234 -0.4897 -0.8313 -1.3493
  158OSM    H6T17673   0.465   3.062   3.212 -1.1391 -0.2852 -0.9818
  158OSM    C7S17674   0.663   2.969   3.214  0.2278 -0.3016 -0.1012
  158OSM    H7S17675   0.725   3.045   3.162 -0.8987 -0.0047 -1.0565
  158OSM    H7T17676   0.702   2.872   3.177  2.0374  0.3168  0.1140
  158OSM    C8S17677   0.678   2.994   3.364 -0.2259  0.6673 -0.3091
  158OSM    H8S17678   0.614   3.084   3.376  0.2959  1.0778 -0.5533
  158OSM    H8T17679   0.781   3.029   3.382 -0.8396  1.8849  1.0239
  158OSM    C9S17680   0.645   2.884   3.463 -0.1869  0.2688 -0.1037
  158OSM    H9S17681   0.706   2.795   3.434 -2.2240 -0.9356 -0.9030
  158OSM    H9T17682   0.539   2.852   3.459 -0.2015 -0.2020  2.5913
  158OSM   C10S17683   0.679   2.926   3.605  0.6571  0.9345 -0.7400
  158OSM   H10S17684   0.637   3.030   3.609 -3.0609 -0.4366  1.5100
  158OSM   H10T17685   0.789   2.930   3.621  0.5022 -0.1381  0.8463
  158OSM   C11S17686   0.620   2.844   3.724  0.6856  0.4344  0.7387
  158OSM   H11S17687   0.653   2.739   3.714 -2.5875 -0.4955 -2.2411
  158OSM   H11T17688   0.511   2.827   3.715  1.0182 -1.8986  0.6864
  158OSM   C12S17689   0.654   2.902   3.858 -0.1157 -0.3228  0.2300
  158OSM   H12S17690   0.606   3.002   3.849 -0.4140 -0.6126 -1.8026
  158OSM   H12T17691   0.763   2.895   3.875  0.2670 -2.0780 -2.4456
  158OSM   C13S17692   0.596   2.821   3.973  0.6561 -0.6376 -0.6331
  158OSM   H13S17693   0.632   2.716   3.970 -0.0828 -0.8993 -0.6002
  158OSM   H13T17694   0.485   2.820   3.973  0.6576 -1.6987 -1.0722
  158OSM   C14S17695   0.618   2.888   4.111 -0.0384  0.8549  0.8394
  158OSM   H14S17696   0.572   2.989   4.107  0.7727  1.3191  2.2706
  158OSM   H14T17697   0.723   2.902   4.146 -0.0386  0.0706  1.1910
  158OSM   C15S17698   0.536   2.819   4.222 -0.5577 -0.0796  0.1774
  158OSM   H15S17699   0.439   2.808   4.170 -0.1087 -1.9675 -0.3612
  158OSM   H15T17700   0.539   2.880   4.314 -0.4876 -0.8566  0.6987
  158OSM   C16S17701   0.593   2.677   4.253 -0.2643 -0.9235 -0.4392
  158OSM   H16S17702   0.670   2.671   4.173 -0.7122  3.2418 -1.4281
  158OSM   H16T17703   0.512   2.605   4.228  0.7681 -1.7256 -1.6545
  158OSM   C17S17704   0.664   2.644   4.387  0.5169  0.0064  0.0571
  158OSM   H17S17705   0.592   2.642   4.471  0.3408  0.6037 -0.0768
  158OSM   H17T17706   0.740   2.722   4.411 -1.6268  1.3912  2.9514
  158OSM   C18S17707   0.741   2.515   4.376  0.0808 -0.6816  0.5874
  158OSM   H18S17708   0.779   2.494   4.478  0.1824  1.4196  1.0202
  158OSM   H18T17709   0.826   2.518   4.304 -0.6177 -1.7138 -0.3122
  158OSM   H18U17710   0.670   2.435   4.346 -2.3132  1.2456  0.8094
  158OSM    C1F17711   0.140   2.816   2.787  0.4788  0.5459 -0.1233
  158OSM     OF17712   0.208   2.718   2.759 -0.0312 -0.2802 -0.2582
  158OSM    C2F17713  -0.002   2.819   2.804 -0.5170 -1.1029  0.0976
  158OSM    H2F17714  -0.044   2.811   2.701 -0.7761  2.9121 -0.2781
  158OSM    H2G17715  -0.042   2.920   2.827  0.4942  0.3246 -3.5999
  158OSM    C3F17716  -0.057   2.711   2.903  0.9706  0.1984  0.3556
  158OSM    H3F17717  -0.027   2.612   2.862  1.2267  1.0695 -1.6886
  158OSM    H3G17718  -0.167   2.728   2.899  0.8484 -0.2410  1.5703
  158OSM    C4F17719  -0.022   2.719   3.053 -0.3756  0.2413  0.8884
  158OSM    H4F17720  -0.045   2.823   3.085 -0.8535  0.2472  0.5316
  158OSM    H4G17721   0.087   2.704   3.046 -0.3921  0.9547 -2.3840
  158OSM    C5F17722  -0.077   2.615   3.143 -0.3638  0.5079  0.2047
  158OSM    H5F17723  -0.080   2.516   3.093  1.0026  0.5112  0.0988
  158OSM    H5G17724  -0.183   2.629   3.172 -0.0631  1.8411  0.7224
  158OSM    C6F17725  -0.016   2.599   3.285 -0.4433  1.0667 -0.8012
  158OSM    H6F17726   0.094   2.597   3.274 -0.3378  0.0956  0.2972
  158OSM    H6G17727  -0.043   2.497   3.320 -2.1147  2.5893  2.9593
  158OSM    C7F17728  -0.059   2.705   3.389 -0.1059 -0.1721  0.5170
  158OSM    H7F17729  -0.169   2.709   3.402  0.1168  0.0454  2.7789
  158OSM    H7G17730  -0.018   2.804   3.359 -0.8842 -0.1859 -0.6263
  158OSM    C8F17731   0.009   2.680   3.524  0.3460  0.1449 -0.1273
  158OSM    H8F17732  -0.007   2.572   3.540 -1.1979  0.2279 -0.9107
  158OSM    H8G17733  -0.049   2.727   3.607  0.8020  1.2325 -0.4064
  158OSM    C9F17734   0.153   2.713   3.525  0.6477 -1.0590 -0.0390
  158OSM    H9F17735   0.199   2.726   3.426 -1.2355 -0.1795 -0.8456
  158OSM   C10F17736   0.218   2.747   3.634  0.2550 -0.3236 -0.0155
  158OSM   H10F17737   0.324   2.763   3.609  0.0672  1.5015  0.2602
  158OSM   C11F17738   0.172   2.769   3.776  0.6716  0.4227 -0.0929
  158OSM   H11F17739   0.063   2.754   3.785  0.8616 -1.5003 -0.5702
  158OSM   H11G17740   0.201   2.871   3.809  1.1740  0.0438  0.6671
  158OSM   C12F17741   0.240   2.662   3.864 -0.3921 -0.8273 -0.6202
  158OSM   H12F17742   0.350   2.678   3.859 -0.2313 -0.5210  2.1063
  158OSM   H12G17743   0.225   2.560   3.822  1.0270  0.3117 -4.2309
  158OSM   C13F17744   0.204   2.669   4.013 -0.8146 -0.0127 -0.1956
  158OSM   H13F17745   0.095   2.669   4.037 -0.5466 -1.0619  1.1592
  158OSM   H13G17746   0.242   2.770   4.042  0.1283 -0.4646  0.1926
  158OSM   C14F17747   0.263   2.547   4.090  0.1897 -0.3979  0.0683
  158OSM   H14F17748   0.371   2.544   4.067 -0.1999 -0.7061 -1.9132
  158OSM   H14G17749   0.226   2.449   4.052 -0.3320 -1.5827  3.2812
  158OSM   C15F17750   0.221   2.547   4.240  0.0394 -0.1409  0.2790
  158OSM   H15F17751   0.113   2.567   4.254  0.5674  2.6922  1.0034
  158OSM   H15G17752   0.271   2.630   4.294  3.1202 -2.1047  0.7206
  158OSM   C16F17753   0.272   2.414   4.308  0.0635 -0.3261  0.4330
  158OSM   H16F17754   0.382   2.410   4.314  0.0637 -1.9692 -0.1523
  158OSM   H16G17755   0.236   2.336   4.238  0.3799 -1.0913  1.1089
  158OSM   C17F17756   0.221   2.387   4.447 -0.3968  0.5206 -0.0440
  158OSM   H17F17757   0.113   2.404   4.464 -0.6741 -2.4401  1.9134
  158OSM   H17G17758   0.272   2.460   4.515 -0.0057 -0.5846  0.8912
  158OSM   C18F17759   0.269   2.247   4.486  0.4685  0.0172  1.0642
  158OSM   H18F17760   0.199   2.174   4.439 -1.0207  2.5400 -0.9234
  158OSM   H18G17761   0.279   2.236   4.596 -0.7080  1.1190  1.3127
  158OSM   H18H17762   0.370   2.217   4.451  0.6339 -1.8202  2.8830
  159OSM      N17763   5.660   4.414   2.071 -0.2326  0.0507 -0.1233
  159OSM    C1517764   5.530   4.339   2.062 -0.4440  0.3885  0.4250
  159OSM   H15A17765   5.432   4.385   2.064 -0.5581  0.1240  1.2325
  159OSM   H15B17766   5.532   4.255   2.131  1.4996  0.9963  1.1558
  159OSM   H15C17767   5.519   4.291   1.965  0.6655  0.0747  0.4365
  159OSM    C1417768   5.778   4.315   2.065 -0.6812  0.2958  0.3651
  159OSM   H14A17769   5.788   4.280   1.963 -1.5460 -3.1546  1.3629
  159OSM   H14B17770   5.768   4.224   2.121 -1.0520 -0.5616 -1.0537
  159OSM   H14C17771   5.870   4.361   2.097 -0.8362 -0.3664  1.8048
  159OSM    C1317772   5.668   4.504   1.953 -1.1759  0.2660 -0.0340
  159OSM   H13A17773   5.583   4.570   1.946 -1.0542  0.3672 -0.6408
  159OSM   H13B17774   5.673   4.445   1.862 -1.8523  0.8302 -0.4395
  159OSM   H13C17775   5.754   4.570   1.957  2.1208 -3.6643  0.7541
  159OSM    C1217776   5.665   4.491   2.201  0.8057 -0.1219  0.4072
  159OSM   H12A17777   5.760   4.542   2.208 -0.3852  2.5006 -1.3396
  159OSM   H12B17778   5.667   4.422   2.285 -2.8638  0.6518  1.2972
  159OSM    C1117779   5.553   4.595   2.225  0.1221 -0.3929  0.3107
  159OSM   H11A17780   5.559   4.669   2.142  1.5263 -2.3004 -1.3786
  159OSM   H11B17781   5.566   4.646   2.323  0.9770 -0.9686  0.5093
  159OSM      P17782   5.353   4.449   2.326 -0.2027  0.0469 -0.0498
  159OSM    O1317783   5.230   4.407   2.261  0.0474 -0.3926  0.3597
  159OSM    O1417784   5.442   4.339   2.376  0.5799  0.3240  0.3997
  159OSM    O1117785   5.327   4.554   2.438  0.5107  0.5636 -0.3539
  159OSM    O1217786   5.428   4.539   2.217  0.1256  0.1952  0.2061
  159OSM    C1S17787   5.264   4.681   2.415 -0.5318  0.2308 -0.1825
  159OSM    H1S17788   5.183   4.682   2.338 -1.9859 -1.0931  1.2667
  159OSM    H1T17789   5.347   4.749   2.388  1.1057 -1.2130  1.0009
  159OSM     NF17790   5.101   4.821   2.541 -0.7376  0.1803 -0.0752
  159OSM    HNF17791   5.123   4.915   2.566 -0.8301  0.7875 -2.0676
  159OSM    C2S17792   5.209   4.723   2.551  0.1383  0.3334 -0.5727
  159OSM    H2S17793   5.167   4.629   2.593  1.9450  0.3875  1.5606
  159OSM    C3S17794   5.326   4.762   2.645  0.4587  0.5625 -0.3336
  159OSM    H3S17795   5.364   4.859   2.606  3.3563 -0.1865  0.3241
  159OSM     O317796   5.431   4.668   2.652 -0.3960 -0.1435  0.1370
  159OSM    HO317797   5.411   4.598   2.589 -2.9121 -1.5845  2.3181
  159OSM    C4S17798   5.283   4.779   2.785  0.0586 -0.5431 -0.5236
  159OSM    H4S17799   5.259   4.685   2.837 -0.3020  0.3326  0.9490
  159OSM    C5S17800   5.267   4.891   2.854 -0.0472  0.7742  0.4651
  159OSM    H5S17801   5.290   4.991   2.816  2.0877  0.3870  0.6169
  159OSM    C6S17802   5.204   4.882   2.992  0.1359 -0.4161 -0.7136
  159OSM    H6S17803   5.186   4.777   3.025  0.6347 -0.1946  0.3073
  159OSM    H6T17804   5.116   4.949   2.985 -0.0962 -0.4723  1.2975
  159OSM    C7S17805   5.295   4.945   3.096 -0.3517  0.0695  0.5886
  159OSM    H7S17806   5.305   5.054   3.078  0.4434 -0.2869 -1.4538
  159OSM    H7T17807   5.398   4.909   3.074 -0.1048  0.7398  0.6261
  159OSM    C8S17808   5.244   4.922   3.239  0.4380 -0.4910 -0.5837
  159OSM    H8S17809   5.252   4.812   3.253  1.2790 -0.5385 -1.3719
  159OSM    H8T17810   5.142   4.965   3.254  0.1080 -1.4463 -0.0074
  159OSM    C9S17811   5.329   4.996   3.344 -0.3527 -0.4459 -0.1971
  159OSM    H9S17812   5.345   5.098   3.304 -0.4111  0.4481  1.8940
  159OSM    H9T17813   5.430   4.950   3.346 -0.3581 -0.9998 -4.1587
  159OSM   C10S17814   5.271   5.009   3.479  0.0021 -0.0911 -0.3234
  159OSM   H10S17815   5.258   4.909   3.526  0.9890  0.9558  2.3768
  159OSM   H10T17816   5.175   5.063   3.467  0.6978  1.1229 -0.6561
  159OSM   C11S17817   5.358   5.103   3.573  0.0934  0.5440  0.0317
  159OSM   H11S17818   5.338   5.206   3.537  1.7032  1.0541  0.5349
  159OSM   H11T17819   5.466   5.077   3.570 -0.0069 -0.2014  1.8395
  159OSM   C12S17820   5.297   5.116   3.714 -1.0678 -0.0529 -0.3887
  159OSM   H12S17821   5.360   5.182   3.776 -1.2479  0.2416 -0.5166
  159OSM   H12T17822   5.304   5.019   3.767 -0.8466  0.4091  0.4494
  159OSM   C13S17823   5.151   5.166   3.719 -0.4532 -0.2716 -0.3548
  159OSM   H13S17824   5.084   5.081   3.694  0.0710 -2.0916  3.5877
  159OSM   H13T17825   5.137   5.257   3.658 -2.7066 -0.2014  0.1912
  159OSM   C14S17826   5.107   5.199   3.866 -0.1862 -0.7422 -0.1763
  159OSM   H14S17827   5.014   5.256   3.847  1.8118  2.8851  0.0182
  159OSM   H14T17828   5.188   5.264   3.904 -0.7995 -0.4903  0.7350
  159OSM   C15S17829   5.077   5.087   3.954  0.4675  0.2026 -0.0771
  159OSM   H15S17830   5.169   5.030   3.978  0.9120  0.9715  0.1087
  159OSM   H15T17831   5.011   5.013   3.905  0.4815 -0.6083  1.0864
  159OSM   C16S17832   5.018   5.131   4.090 -0.8743  0.3185  0.3652
  159OSM   H16S17833   4.994   5.050   4.162 -0.2015  0.4782  0.7850
  159OSM   H16T17834   4.928   5.194   4.077 -1.0491 -0.2606 -1.5112
  159OSM   C17S17835   5.118   5.223   4.160  0.2618  0.1683 -0.8621
  159OSM   H17S17836   5.181   5.286   4.094  0.5646 -1.2704 -1.9974
  159OSM   H17T17837   5.201   5.157   4.193 -0.3318  0.9227  2.4609
  159OSM   C18S17838   5.054   5.306   4.270  0.0915 -0.4739 -0.0581
  159OSM   H18S17839   5.007   5.396   4.225 -1.7787 -0.8828  0.9756
  159OSM   H18T17840   5.134   5.349   4.333  0.3187 -2.1494  0.8494
  159OSM   H18U17841   4.990   5.248   4.339 -0.1450  0.7260  0.7524
  159OSM    C1F17842   4.983   4.785   2.493  0.1846 -0.2627  0.0138
  159OSM     OF17843   4.948   4.669   2.489 -0.2175 -0.3064 -0.5782
  159OSM    C2F17844   4.895   4.901   2.456  0.1406  0.1002 -0.8279
  159OSM    H2F17845   4.852   4.895   2.354 -1.2103 -0.0583 -0.2721
  159OSM    H2G17846   4.961   4.990   2.454  2.2584 -1.3966 -1.3602
  159OSM    C3F17847   4.781   4.935   2.562  0.1937  0.0412  0.1428
  159OSM    H3F17848   4.744   4.837   2.600  2.6133 -1.5599 -1.2735
  159OSM    H3G17849   4.691   4.977   2.512  0.5493 -0.4806 -0.9740
  159OSM    C4F17850   4.836   5.018   2.675  0.3289  1.0773 -0.0826
  159OSM    H4F17851   4.868   5.122   2.652  0.9505  0.5864 -1.5439
  159OSM    H4G17852   4.921   4.961   2.718  0.4645  1.7973  0.6336
  159OSM    C5F17853   4.737   5.035   2.786 -0.7409  0.0709 -1.0979
  159OSM    H5F17854   4.703   4.936   2.824  2.1177 -0.0914  1.3916
  159OSM    H5G17855   4.647   5.093   2.757 -0.2644  1.6687  0.4740
  159OSM    C6F17856   4.808   5.121   2.897  0.1178  0.0464  0.4156
  159OSM    H6F17857   4.799   5.223   2.854 -0.1898 -0.0692  0.2007
  159OSM    H6G17858   4.913   5.094   2.921  0.4259  0.4232 -0.4970
  159OSM    C7F17859   4.721   5.125   3.021  0.7076 -0.7042 -0.3442
  159OSM    H7F17860   4.737   5.037   3.087  0.7559  1.4486  2.7339
  159OSM    H7G17861   4.612   5.114   3.000  0.4958  1.2734 -0.4589
  159OSM    C8F17862   4.763   5.240   3.124  0.7614  0.2838  0.7311
  159OSM    H8F17863   4.687   5.258   3.202 -1.6534 -0.3954 -1.3505
  159OSM    H8G17864   4.739   5.337   3.074 -4.1447 -0.5570  0.9743
  159OSM    C9F17865   4.907   5.241   3.163 -0.2579  0.1820  0.6502
  159OSM    H9F17866   4.978   5.238   3.079  0.0965  1.9963  0.8452
  159OSM   C10F17867   4.963   5.235   3.283 -0.1948  0.1874  0.2657
  159OSM   H10F17868   5.069   5.212   3.296 -0.4746 -1.4892 -0.1770
  159OSM   C11F17869   4.894   5.220   3.417  0.7179  0.3495  0.0282
  159OSM   H11F17870   4.955   5.160   3.488 -1.1508  0.5185  1.8593
  159OSM   H11G17871   4.808   5.151   3.410 -0.3061  1.6650 -0.8464
  159OSM   C12F17872   4.861   5.363   3.473 -0.5308  0.6514 -0.1721
  159OSM   H12F17873   4.827   5.439   3.400 -1.7964  0.4586  0.1845
  159OSM   H12G17874   4.963   5.395   3.505  0.7343 -1.1228 -2.1365
  159OSM   C13F17875   4.778   5.366   3.602  0.1462  0.1220  0.9736
  159OSM   H13F17876   4.832   5.298   3.672  0.8836 -1.2519 -0.8440
  159OSM   H13G17877   4.675   5.330   3.580  0.5716 -0.3313 -0.4079
  159OSM   C14F17878   4.767   5.503   3.661 -0.1639 -0.3362 -0.1152
  159OSM   H14F17879   4.704   5.567   3.596 -0.4702 -2.4820 -2.0349
  159OSM   H14G17880   4.866   5.551   3.651 -1.2397  1.9764 -0.3115
  159OSM   C15F17881   4.731   5.513   3.812 -0.9209 -0.6212  0.4736
  159OSM   H15F17882   4.756   5.617   3.842  2.0048 -0.9368 -0.5695
  159OSM   H15G17883   4.805   5.443   3.857  1.9483  0.6421 -1.9532
  159OSM   C16F17884   4.581   5.485   3.836  1.1250 -0.4266 -0.1138
  159OSM   H16F17885   4.551   5.379   3.818 -1.9435  0.1382  1.0286
  159OSM   H16G17886   4.527   5.540   3.756  1.4158  2.0224  1.2932
  159OSM   C17F17887   4.548   5.530   3.977  0.2643 -0.4782 -0.5374
  159OSM   H17F17888   4.590   5.630   4.003 -0.5783 -0.4320  0.7417
  159OSM   H17G17889   4.599   5.468   4.054  0.3214  1.4749  1.1035
  159OSM   C18F17890   4.395   5.532   4.026  0.5066  0.4952 -0.5966
  159OSM   H18F17891   4.347   5.432   4.015  1.1490  0.0561  0.5213
  159OSM   H18G17892   4.340   5.613   3.973  0.6908  1.5908  0.8504
  159OSM   H18H17893   4.396   5.552   4.135 -1.6030  1.4186 -0.7042
  160OSM      N17894   1.402   3.806   2.051 -0.2531 -0.0306  0.1028
  160OSM    C1517895   1.294   3.716   2.014 -0.1579 -0.0118 -0.0928
  160OSM   H15A17896   1.314   3.653   1.929 -0.9521 -2.3653  1.3529
  160OSM   H15B17897   1.195   3.755   1.996 -1.8137 -3.7107 -0.1037
  160OSM   H15C17898   1.272   3.643   2.091 -1.8145 -0.5823 -1.0506
  160OSM    C1417899   1.368   3.868   2.194 -0.2368 -0.4692  1.1659
  160OSM   H14A17900   1.354   3.784   2.260 -0.5224 -0.6906  0.8291
  160OSM   H14B17901   1.282   3.934   2.197  1.6138  2.1719 -0.0599
  160OSM   H14C17902   1.448   3.937   2.220 -0.2777 -0.3645  1.0131
  160OSM    C1317903   1.538   3.729   2.075 -0.0322 -0.1454  0.2298
  160OSM   H13A17904   1.526   3.656   2.154  4.0062 -0.1125  1.0921
  160OSM   H13B17905   1.613   3.804   2.098  1.1290 -0.6581 -1.5816
  160OSM   H13C17906   1.563   3.673   1.985 -1.7219  0.7368 -0.8418
  160OSM    C1217907   1.419   3.915   1.946 -0.5531 -0.6041 -0.4705
  160OSM   H12A17908   1.339   3.987   1.958  0.6713  0.6458  0.5373
  160OSM   H12B17909   1.406   3.876   1.847  2.3995  0.7966 -1.5339
  160OSM    C1117910   1.554   3.997   1.941 -0.0060  0.3367 -0.0825
  160OSM   H11A17911   1.549   4.079   1.866  1.4355  0.3465 -0.1953
  160OSM   H11B17912   1.637   3.932   1.904 -1.3481  0.4049 -3.6249
  160OSM      P17913   1.538   4.188   2.116  0.2603  0.5324 -0.3868
  160OSM    O1317914   1.640   4.292   2.120 -0.4872 -0.0432  0.0041
  160OSM    O1417915   1.414   4.214   2.046 -0.7865  0.0705  0.0897
  160OSM    O1117916   1.494   4.154   2.265 -0.1127 -0.6716 -0.5990
  160OSM    O1217917   1.585   4.044   2.073 -0.3172 -0.0729  0.3232
  160OSM    C1S17918   1.593   4.107   2.362  0.3336 -0.0006 -0.7435
  160OSM    H1S17919   1.696   4.135   2.332  0.8014 -0.0137  0.7942
  160OSM    H1T17920   1.596   3.996   2.369 -0.6396 -0.0097 -0.2374
  160OSM     NF17921   1.669   4.152   2.599  0.1322 -0.2342 -0.0634
  160OSM    HNF17922   1.685   4.063   2.642  0.0828 -1.3503 -2.2323
  160OSM    C2S17923   1.557   4.167   2.503 -0.2937 -0.1524 -0.5168
  160OSM    H2S17924   1.542   4.275   2.480  1.5434  0.2498 -0.0237
  160OSM    C3S17925   1.421   4.107   2.561 -0.3714  0.1616  0.0805
  160OSM    H3S17926   1.438   3.998   2.576 -1.2196  0.1170  0.7789
  160OSM     O317927   1.314   4.112   2.464 -0.4186  0.1555  0.5513
  160OSM    HO317928   1.353   4.144   2.382 -0.1477  0.8556  0.9539
  160OSM    C4S17929   1.373   4.170   2.695 -0.5052  1.0151  1.0673
  160OSM    H4S17930   1.367   4.279   2.686 -0.9226  0.8409 -1.4605
  160OSM    C5S17931   1.336   4.101   2.809 -0.2653 -0.1753  0.9545
  160OSM    H5S17932   1.337   3.991   2.811  1.3443 -0.2046  2.8779
  160OSM    C6S17933   1.287   4.176   2.932 -0.0307  0.3106 -0.0554
  160OSM    H6S17934   1.181   4.154   2.959 -1.0375  2.8424 -1.5557
  160OSM    H6T17935   1.278   4.286   2.915 -0.0373  0.7111  2.1663
  160OSM    C7S17936   1.370   4.156   3.069  0.4937  0.1220  0.4941
  160OSM    H7S17937   1.474   4.188   3.051 -0.0980  0.9321 -1.8375
  160OSM    H7T17938   1.370   4.045   3.071  0.4805  0.0354 -1.8915
  160OSM    C8S17939   1.301   4.227   3.186  0.1337 -0.4118 -0.4297
  160OSM    H8S17940   1.207   4.168   3.192 -1.4868  2.1145  0.8607
  160OSM    H8T17941   1.284   4.332   3.153  0.9397 -0.1429 -0.0037
  160OSM    C9S17942   1.384   4.229   3.318  0.8905  0.0538  0.9429
  160OSM    H9S17943   1.328   4.291   3.392  1.4273  0.5329  0.9525
  160OSM    H9T17944   1.480   4.274   3.285 -0.0307 -0.5107 -2.9666
  160OSM   C10S17945   1.415   4.093   3.384  0.9195 -0.1675 -0.0987
  160OSM   H10S17946   1.450   4.028   3.300  2.5057 -1.1352  1.2554
  160OSM   H10T17947   1.325   4.046   3.429  0.3115  0.9616 -0.1078
  160OSM   C11S17948   1.527   4.115   3.489  0.2497  0.5557  0.3408
  160OSM   H11S17949   1.618   4.166   3.451  1.0269 -0.7912  0.3119
  160OSM   H11T17950   1.564   4.022   3.538 -1.2244 -0.2296  0.0083
  160OSM   C12S17951   1.470   4.204   3.606 -0.3252  0.3232  0.0476
  160OSM   H12S17952   1.365   4.174   3.627 -0.2953 -0.9498 -1.3849
  160OSM   H12T17953   1.463   4.309   3.572  0.1429 -0.4467 -2.6808
  160OSM   C13S17954   1.561   4.194   3.734  0.4130 -0.4196 -0.6346
  160OSM   H13S17955   1.664   4.225   3.703 -0.0186 -0.3095 -2.0191
  160OSM   H13T17956   1.568   4.089   3.769 -0.9417  0.1255  1.4720
  160OSM   C14S17957   1.507   4.276   3.853 -0.2729  0.1427 -0.1533
  160OSM   H14S17958   1.507   4.379   3.812 -0.0694  0.0685 -0.3474
  160OSM   H14T17959   1.579   4.274   3.937  1.3952  0.4613 -1.5108
  160OSM   C15S17960   1.375   4.230   3.911  0.4789 -0.3728  0.8737
  160OSM   H15S17961   1.307   4.226   3.823 -0.1939  1.5962  1.2459
  160OSM   H15T17962   1.324   4.307   3.973  0.1872 -0.8709  1.2585
  160OSM   C16S17963   1.373   4.094   3.974 -0.1879  0.2306 -0.7249
  160OSM   H16S17964   1.462   4.101   4.041 -1.5206 -0.6417  1.2394
  160OSM   H16T17965   1.392   4.011   3.904 -0.5247  0.2650 -0.8607
  160OSM   C17S17966   1.247   4.052   4.048 -0.6886 -0.0626 -0.1426
  160OSM   H17S17967   1.161   4.095   3.992 -2.0903 -1.8593  0.5200
  160OSM   H17T17968   1.245   4.097   4.149 -1.8367 -0.1766 -0.1038
  160OSM   C18S17969   1.240   3.904   4.087  0.1661  0.8179  0.3140
  160OSM   H18S17970   1.251   3.838   3.998  2.5117 -0.3336  1.3626
  160OSM   H18T17971   1.152   3.875   4.148 -0.3183  1.5396 -0.0370
  160OSM   H18U17972   1.323   3.873   4.155 -0.9655 -0.9281  0.9791
  160OSM    C1F17973   1.778   4.228   2.583 -0.9125  0.2436 -0.2011
  160OSM     OF17974   1.777   4.324   2.507  0.3596  0.5133 -0.5291
  160OSM    C2F17975   1.896   4.182   2.661  0.0877  1.3270  0.2400
  160OSM    H2F17976   1.951   4.103   2.605 -0.3280  1.3547 -0.2196
  160OSM    H2G17977   1.859   4.147   2.759 -0.6888  1.3272 -0.0444
  160OSM    C3F17978   2.002   4.291   2.687 -0.2674 -0.3904 -0.1481
  160OSM    H3F17979   1.952   4.383   2.726 -0.9806 -1.0494  0.5119
  160OSM    H3G17980   2.052   4.325   2.594  0.4393  1.6488  0.9105
  160OSM    C4F17981   2.106   4.242   2.782 -0.2741 -0.1324 -0.6909
  160OSM    H4F17982   2.199   4.302   2.778  0.4745 -1.0547  1.4324
  160OSM    H4G17983   2.137   4.138   2.760 -0.1017 -0.4757  1.0617
  160OSM    C5F17984   2.056   4.242   2.930 -0.3128  0.2544 -0.2438
  160OSM    H5F17985   1.957   4.192   2.927  0.5174 -1.5095  0.4684
  160OSM    H5G17986   2.040   4.345   2.970 -1.8534 -0.4724  1.1354
  160OSM    C6F17987   2.147   4.176   3.033 -0.0456 -0.0560 -1.1422
  160OSM    H6F17988   2.195   4.080   3.003  1.4719 -0.2017  1.4772
  160OSM    H6G17989   2.082   4.147   3.118  1.2350  0.5950  0.1019
  160OSM    C7F17990   2.268   4.264   3.080  0.2673  0.3246 -0.3027
  160OSM    H7F17991   2.336   4.278   2.993 -0.5233  0.8836 -0.8419
  160OSM    H7G17992   2.318   4.202   3.158 -0.8795  1.1195  1.1016
  160OSM    C8F17993   2.231   4.400   3.151 -0.2454  0.1937 -0.4011
  160OSM    H8F17994   2.143   4.372   3.214 -0.9008  0.4746 -1.1668
  160OSM    H8G17995   2.200   4.476   3.076 -0.3477 -0.1604 -0.7277
  160OSM    C9F17996   2.340   4.449   3.239 -0.3625 -0.3670  0.1487
  160OSM    H9F17997   2.404   4.516   3.179 -1.3796 -0.6561 -1.3031
  160OSM   C10F17998   2.367   4.426   3.369  0.4383 -0.9769 -0.6991
  160OSM   H10F17999   2.455   4.466   3.421 -0.7344 -3.6196  3.8912
  160OSM   C11F18000   2.284   4.334   3.454 -0.1869 -0.6520 -0.7740
  160OSM   H11F18001   2.176   4.321   3.428 -0.8908  0.9680  1.1411
  160OSM   H11G18002   2.284   4.351   3.563 -1.8082 -0.8458 -0.7216
  160OSM   C12F18003   2.343   4.190   3.456 -0.6716  0.6176 -0.2413
  160OSM   H12F18004   2.452   4.191   3.476 -1.1858  1.1001  3.2803
  160OSM   H12G18005   2.334   4.147   3.354 -1.9507  2.6705 -1.0723
  160OSM   C13F18006   2.283   4.098   3.565 -0.7711 -0.1413  0.0954
  160OSM   H13F18007   2.295   3.995   3.527  0.9561  0.2179 -0.4364
  160OSM   H13G18008   2.176   4.129   3.571 -0.0565  2.6624 -0.1655
  160OSM   C14F18009   2.352   4.106   3.708 -0.0347  0.0882  0.1876
  160OSM   H14F18010   2.312   4.197   3.757 -0.2175  0.4096 -0.5558
  160OSM   H14G18011   2.463   4.118   3.701  0.1802 -0.7318  1.6622
  160OSM   C15F18012   2.333   3.977   3.794  0.6343 -0.2701  0.0678
  160OSM   H15F18013   2.359   3.890   3.731 -4.8004 -1.6259 -0.8613
  160OSM   H15G18014   2.226   3.964   3.823  0.2047 -0.8778 -1.6544
  160OSM   C16F18015   2.417   3.971   3.928 -0.3216  0.4571  0.1951
  160OSM   H16F18016   2.390   4.059   3.991 -1.2834 -0.7328  1.4850
  160OSM   H16G18017   2.527   3.985   3.914 -0.0254 -0.4857  1.4455
  160OSM   C17F18018   2.375   3.849   4.005  0.1228 -0.7130 -0.4765
  160OSM   H17F18019   2.405   3.757   3.949  0.3189 -0.7739 -0.2740
  160OSM   H17G18020   2.265   3.847   4.022  0.3576  0.8717  1.6705
  160OSM   C18F18021   2.432   3.860   4.151 -0.8360  0.0730  0.2864
  160OSM   H18F18022   2.538   3.891   4.138 -0.8293 -0.5312 -1.3851
  160OSM   H18G18023   2.412   3.770   4.213 -0.0912 -0.8319 -0.7642
  160OSM   H18H18024   2.389   3.952   4.197 -3.2957 -1.1287  0.5548
  161OSM      N18025   5.615   3.024   2.194  0.3094 -0.1392 -0.1542
  161OSM    C1518026   5.603   2.937   2.065 -0.5558 -0.1478  0.0153
  161OSM   H15A18027   5.695   2.912   2.015 -0.6754  1.8956 -1.3562
  161OSM   H15B18028   5.525   2.980   2.004 -0.8487 -0.9543 -0.1886
  161OSM   H15C18029   5.563   2.841   2.094 -0.6170 -0.7124 -1.8087
  161OSM    C1418030   5.707   2.952   2.292 -0.2690  0.0453  0.5948
  161OSM   H14A18031   5.809   2.947   2.257  0.7010  1.6591  2.9610
  161OSM   H14B18032   5.684   2.846   2.301  0.7422 -0.3329 -0.9625
  161OSM   H14C18033   5.711   2.999   2.389  0.2720  1.6754 -0.1875
  161OSM    C1318034   5.670   3.160   2.175 -0.2927  0.6678  1.0687
  161OSM   H13A18035   5.764   3.161   2.122 -1.0439 -0.1878 -0.3351
  161OSM   H13B18036   5.668   3.206   2.273 -0.1110  0.9978  0.9183
  161OSM   H13C18037   5.601   3.220   2.119  0.5633  0.7700  0.0901
  161OSM    C1218038   5.483   3.036   2.256 -0.0869 -0.0099 -0.7057
  161OSM   H12A18039   5.483   3.056   2.362 -1.2684  0.8364 -0.8499
  161OSM   H12B18040   5.448   2.934   2.252  1.0653 -0.4231 -0.6686
  161OSM    C1118041   5.368   3.132   2.199 -0.1458 -0.6575  0.0673
  161OSM   H11A18042   5.280   3.114   2.265 -0.6520 -0.9271 -0.6663
  161OSM   H11B18043   5.333   3.096   2.100 -0.9904 -2.4641  0.9820
  161OSM      P18044   5.322   3.392   2.152  0.5473  0.0990 -0.4823
  161OSM    O1318045   5.406   3.511   2.129  0.3420 -0.0344 -0.2811
  161OSM    O1418046   5.228   3.342   2.048 -0.3799 -0.3025  0.3013
  161OSM    O1118047   5.245   3.420   2.292 -0.1787 -0.4854  0.2018
  161OSM    O1218048   5.411   3.275   2.192 -0.6323  0.5622  0.1077
  161OSM    C1S18049   5.320   3.431   2.420  0.4510  0.6020 -0.3645
  161OSM    H1S18050   5.376   3.527   2.429 -1.3003  1.5429  1.2565
  161OSM    H1T18051   5.386   3.343   2.436 -2.2154 -1.1002  2.3463
  161OSM     NF18052   5.294   3.487   2.659  0.5943  0.3174 -0.3811
  161OSM    HNF18053   5.314   3.426   2.735  1.8881  2.6031  1.2404
  161OSM    C2S18054   5.216   3.437   2.540 -0.8158  0.3569  0.1724
  161OSM    H2S18055   5.133   3.504   2.508 -0.9934  0.3259  0.5628
  161OSM    C3S18056   5.144   3.300   2.561 -0.8752  0.1031  0.1002
  161OSM    H3S18057   5.225   3.227   2.579  0.5638  1.0387 -2.1655
  161OSM     O318058   5.076   3.253   2.449  0.7545  0.2993 -0.1494
  161OSM    HO318059   5.132   3.288   2.378  0.7028 -0.2760 -0.4771
  161OSM    C4S18060   5.052   3.306   2.681  0.2594  0.1229 -0.2942
  161OSM    H4S18061   4.964   3.371   2.666 -0.8890 -1.6561 -1.6822
  161OSM    C5S18062   5.054   3.218   2.781  0.3208  0.7838 -0.1745
  161OSM    H5S18063   5.127   3.136   2.779 -0.9487 -0.4277  0.9933
  161OSM    C6S18064   4.954   3.201   2.897  0.1042  0.7487 -0.0554
  161OSM    H6S18065   4.998   3.140   2.979 -2.3979 -0.6720  0.3257
  161OSM    H6T18066   4.864   3.146   2.865 -0.4596  0.5131  1.8168
  161OSM    C7S18067   4.896   3.327   2.963 -0.5269  0.5159 -0.2021
  161OSM    H7S18068   4.865   3.403   2.889 -0.5754 -0.1182 -0.8468
  161OSM    H7T18069   4.973   3.378   3.024  1.1114 -2.3373  0.3351
  161OSM    C8S18070   4.769   3.300   3.049  0.1522  0.0003  0.8551
  161OSM    H8S18071   4.697   3.238   2.990  0.6394  1.9864 -2.0657
  161OSM    H8T18072   4.707   3.391   3.064  2.1680  1.1680  2.4827
  161OSM    C9S18073   4.812   3.236   3.176 -0.3321 -0.0154 -0.3636
  161OSM    H9S18074   4.891   3.160   3.161 -0.8439 -1.0110  1.6613
  161OSM    H9T18075   4.723   3.178   3.209 -0.2542  0.1774  0.2028
  161OSM   C10S18076   4.848   3.333   3.288  0.7485  0.0450 -0.4718
  161OSM   H10S18077   4.763   3.402   3.307 -0.1711 -0.4079 -2.7094
  161OSM   H10T18078   4.941   3.388   3.262 -0.5147  2.1404 -0.7900
  161OSM   C11S18079   4.874   3.262   3.425  0.0544 -0.0694 -0.3912
  161OSM   H11S18080   4.978   3.224   3.425  0.7347  1.7124 -0.3648
  161OSM   H11T18081   4.799   3.181   3.442 -1.5640  0.8918 -2.4275
  161OSM   C12S18082   4.866   3.354   3.547 -0.5732  0.1345 -0.2108
  161OSM   H12S18083   4.764   3.396   3.552 -0.6651 -0.1148  0.0082
  161OSM   H12T18084   4.943   3.434   3.533 -0.3600  0.1468  0.9300
  161OSM   C13S18085   4.898   3.302   3.684 -0.1210 -0.2350 -0.2688
  161OSM   H13S18086   5.005   3.275   3.680 -0.0222 -0.2615  1.7681
  161OSM   H13T18087   4.831   3.214   3.698  0.3410 -1.1024 -2.8649
  161OSM   C14S18088   4.875   3.395   3.808  0.3223 -0.3251 -0.2182
  161OSM   H14S18089   4.792   3.464   3.781  1.6704  0.1921 -3.5096
  161OSM   H14T18090   4.966   3.459   3.809  0.2683 -0.2522  0.4904
  161OSM   C15S18091   4.854   3.329   3.941 -0.1096 -0.1260  0.1009
  161OSM   H15S18092   4.783   3.244   3.931 -0.6172  0.4967 -2.0281
  161OSM   H15T18093   4.819   3.410   4.008  1.8382  0.9230 -0.0805
  161OSM   C16S18094   4.986   3.276   4.009  0.4705  0.2846 -0.0400
  161OSM   H16S18095   5.062   3.356   4.003 -0.0125  0.7334 -0.2350
  161OSM   H16T18096   5.028   3.190   3.952  0.6418  0.0120  0.4842
  161OSM   C17S18097   4.956   3.248   4.162 -0.4420 -0.3750  0.2539
  161OSM   H17S18098   4.910   3.346   4.188 -0.9130 -0.6723  0.5611
  161OSM   H17T18099   5.048   3.240   4.224 -1.9788 -2.9317  2.4430
  161OSM   C18S18100   4.867   3.137   4.203  0.1689  0.0001  0.0759
  161OSM   H18S18101   4.890   3.042   4.152  2.3281  0.9440 -0.8366
  161OSM   H18T18102   4.764   3.153   4.164 -0.4110 -1.0310  1.1292
  161OSM   H18U18103   4.855   3.122   4.313  1.0113 -3.1268 -0.1772
  161OSM    C1F18104   5.334   3.611   2.661 -1.0254 -0.1579 -0.3662
  161OSM     OF18105   5.289   3.695   2.580  0.1153 -0.1871  0.1996
  161OSM    C2F18106   5.438   3.642   2.757 -0.3697 -0.0295 -0.0846
  161OSM    H2F18107   5.500   3.550   2.760  0.7829  0.5045 -3.4741
  161OSM    H2G18108   5.380   3.652   2.851 -1.7536  2.6190 -1.1270
  161OSM    C3F18109   5.523   3.777   2.726  1.0836 -0.7266  0.2391
  161OSM    H3F18110   5.567   3.779   2.624  3.2003 -0.8187  1.1089
  161OSM    H3G18111   5.609   3.776   2.796  1.4985  1.1916 -0.1879
  161OSM    C4F18112   5.444   3.909   2.755 -0.1326  0.2695 -0.1920
  161OSM    H4F18113   5.365   3.914   2.676 -0.2831  0.5856 -0.0246
  161OSM    H4G18114   5.511   3.995   2.735  1.4197 -1.1517 -1.4004
  161OSM    C5F18115   5.396   3.923   2.894 -0.5316 -0.7690 -0.6525
  161OSM    H5F18116   5.317   3.851   2.923 -0.1219 -0.9875 -0.0678
  161OSM    H5G18117   5.350   4.024   2.901  2.5987  0.6746  0.7166
  161OSM    C6F18118   5.501   3.928   3.013 -0.2135  0.3755  0.1108
  161OSM    H6F18119   5.601   3.960   2.976 -0.3410  0.3896 -0.2260
  161OSM    H6G18120   5.507   3.827   3.058 -0.8454  0.0746 -0.4584
  161OSM    C7F18121   5.461   4.029   3.119 -0.4964 -0.1124 -0.4586
  161OSM    H7F18122   5.431   4.125   3.071  2.1912  0.6251 -0.8141
  161OSM    H7G18123   5.554   4.057   3.173 -0.3570  1.4217 -1.4138
  161OSM    C8F18124   5.356   3.983   3.225 -0.1044 -0.3447  1.6186
  161OSM    H8F18125   5.265   3.961   3.163  0.3274  1.6672  0.1408
  161OSM    H8G18126   5.321   4.067   3.288 -0.8827 -0.9604  2.0321
  161OSM    C9F18127   5.410   3.865   3.295  0.3319  0.3676  0.1732
  161OSM    H9F18128   5.400   3.771   3.239 -1.3400  0.1083  0.8433
  161OSM   C10F18129   5.460   3.873   3.427  0.6167 -0.3026  0.1089
  161OSM   H10F18130   5.498   3.777   3.467 -1.4234 -0.9869  0.5207
  161OSM   C11F18131   5.469   4.000   3.513  0.0602  0.0760 -0.4804
  161OSM   H11F18132   5.475   4.098   3.462  1.6564  0.6925  0.8055
  161OSM   H11G18133   5.566   4.014   3.565 -0.6566  2.0096  0.4233
  161OSM   C12F18134   5.355   4.005   3.625 -1.1076 -0.3166 -0.0049
  161OSM   H12F18135   5.254   3.989   3.582 -0.4010  0.7205 -2.1874
  161OSM   H12G18136   5.358   4.111   3.657 -2.4727 -1.0736  3.0664
  161OSM   C13F18137   5.379   3.912   3.737 -1.0082  0.4236 -0.2273
  161OSM   H13F18138   5.484   3.926   3.772 -0.9545  0.5027 -0.4186
  161OSM   H13G18139   5.382   3.805   3.706  0.3541 -0.4179  2.4701
  161OSM   C14F18140   5.277   3.918   3.848 -0.0956  0.6034 -0.6218
  161OSM   H14F18141   5.182   3.869   3.820  0.8366 -1.4511 -0.3489
  161OSM   H14G18142   5.258   4.022   3.883 -0.6603  0.0738  0.7051
  161OSM   C15F18143   5.354   3.841   3.966  0.5537 -0.2790 -1.2909
  161OSM   H15F18144   5.436   3.897   4.016  0.2207 -2.5732  2.1318
  161OSM   H15G18145   5.404   3.746   3.941 -0.3998 -0.4436 -2.7115
  161OSM   C16F18146   5.274   3.799   4.096 -0.3642  0.0879  0.0480
  161OSM   H16F18147   5.230   3.883   4.153 -0.0768 -2.1227  3.9057
  161OSM   H16G18148   5.337   3.739   4.166  1.4306  1.4277 -0.3569
  161OSM   C17F18149   5.152   3.711   4.057 -0.9438 -0.0257  1.1842
  161OSM   H17F18150   5.190   3.625   3.998 -0.7588  1.7205 -1.4328
  161OSM   H17G18151   5.086   3.770   3.990  0.5546  1.3224  0.8008
  161OSM   C18F18152   5.079   3.666   4.180  0.7328 -0.4310 -0.0953
  161OSM   H18F18153   4.995   3.600   4.151  0.3780 -0.2287  0.4651
  161OSM   H18G18154   5.036   3.752   4.235  2.0329 -2.0920  3.8479
  161OSM   H18H18155   5.142   3.613   4.254  1.9905  0.9218 -0.1502
  162OSM      N18156   1.113   2.562   2.617 -0.4182  0.3520  0.6231
  162OSM    C1518157   1.003   2.647   2.660 -0.0757 -0.1674  0.1040
  162OSM   H15A18158   0.918   2.581   2.662  1.1012 -1.8285 -1.2560
  162OSM   H15B18159   0.983   2.734   2.599 -3.8610 -0.2169  1.0706
  162OSM   H15C18160   1.017   2.679   2.762  1.3862 -0.3442 -0.0186
  162OSM    C1418161   1.243   2.648   2.618  0.7168 -0.1924 -0.1173
  162OSM   H14A18162   1.232   2.721   2.539  0.1759 -0.9788 -0.7826
  162OSM   H14B18163   1.330   2.587   2.596  0.0436 -1.0364 -0.5126
  162OSM   H14C18164   1.251   2.698   2.713  0.2274  0.4436 -0.3996
  162OSM    C1318165   1.126   2.448   2.708  0.0206 -0.6080  0.5135
  162OSM   H13A18166   1.206   2.388   2.668  0.7563  0.6836 -0.0238
  162OSM   H13B18167   1.033   2.393   2.704 -0.2107 -0.2939  1.4214
  162OSM   H13C18168   1.152   2.478   2.808 -2.0254 -1.4752  1.3641
  162OSM    C1218169   1.104   2.508   2.468 -0.6924 -0.3112 -0.0490
  162OSM   H12A18170   1.187   2.443   2.448  0.8112  1.4357  0.2471
  162OSM   H12B18171   1.114   2.595   2.405  0.5870  0.3447  1.0109
  162OSM    C1118172   0.970   2.443   2.413  0.2140 -0.2553 -0.2226
  162OSM   H11A18173   0.998   2.411   2.310  1.1023 -0.3522  0.0341
  162OSM   H11B18174   0.906   2.533   2.417 -0.8675 -1.0117 -0.1795
  162OSM      P18175   0.774   2.292   2.484 -0.4508  0.6305  0.0072
  162OSM    O1318176   0.699   2.369   2.584 -0.2094 -0.0359  0.2949
  162OSM    O1418177   0.725   2.294   2.342 -0.1881 -0.0202 -0.1130
  162OSM    O1118178   0.758   2.141   2.530 -0.0483 -0.0477  0.1246
  162OSM    O1218179   0.927   2.330   2.492 -0.4972 -0.5118 -0.0421
  162OSM    C1S18180   0.840   2.089   2.637  0.1919 -0.8861 -0.2466
  162OSM    H1S18181   0.932   2.151   2.646 -0.3009 -0.3456  1.5335
  162OSM    H1T18182   0.874   1.988   2.607  0.9709 -0.6901 -0.0630
  162OSM     NF18183   0.867   2.039   2.873 -0.6132  0.0799 -0.0786
  162OSM    HNF18184   0.892   1.944   2.890 -0.7262  0.2928  1.4068
  162OSM    C2S18185   0.767   2.066   2.771 -0.7863 -0.3597  0.0984
  162OSM    H2S18186   0.717   2.164   2.790  0.9426  0.2650  1.7593
  162OSM    C3S18187   0.660   1.953   2.755 -0.4052 -0.2743  0.1564
  162OSM    H3S18188   0.722   1.863   2.736  1.1108  0.8523 -0.5173
  162OSM     O318189   0.571   1.968   2.641 -0.7161 -0.6183  0.2490
  162OSM    HO318190   0.589   2.054   2.602  0.8820 -1.3176 -0.6598
  162OSM    C4S18191   0.586   1.930   2.884  0.1256  0.9447  0.0150
  162OSM    H4S18192   0.629   1.849   2.944 -0.4499 -2.2844 -3.5393
  162OSM    C5S18193   0.479   1.998   2.917  0.6698 -0.0583  0.4459
  162OSM    H5S18194   0.423   2.064   2.848  0.5232 -1.2744 -0.6500
  162OSM    C6S18195   0.393   1.970   3.036  0.5689  0.2665 -0.5242
  162OSM    H6S18196   0.298   1.917   3.011 -0.0363  1.2915 -0.4707
  162OSM    H6T18197   0.362   2.070   3.074  0.4619 -0.7088  2.1354
  162OSM    C7S18198   0.467   1.902   3.158  0.1020  0.4578 -0.6313
  162OSM    H7S18199   0.550   1.966   3.194  2.1377 -1.1219 -2.2425
  162OSM    H7T18200   0.514   1.808   3.120  0.7248  1.1154 -1.5115
  162OSM    C8S18201   0.363   1.876   3.267 -0.0322  0.0137 -0.7602
  162OSM    H8S18202   0.265   1.842   3.228 -1.2824  1.2225  1.2108
  162OSM    H8T18203   0.342   1.970   3.321  0.4359 -0.1221 -0.3394
  162OSM    C9S18204   0.422   1.768   3.369  0.0110  0.4648  0.7541
  162OSM    H9S18205   0.533   1.780   3.372  0.3438 -0.6781 -2.5621
  162OSM    H9T18206   0.414   1.662   3.336  2.7440 -0.1664  1.8135
  162OSM   C10S18207   0.360   1.772   3.515  0.1749  0.0628  0.6407
  162OSM   H10S18208   0.249   1.778   3.512  0.2230  1.1059  0.7842
  162OSM   H10T18209   0.400   1.864   3.563  0.3779  0.4148 -0.2011
  162OSM   C11S18210   0.411   1.662   3.605  0.2732  0.1895 -0.9100
  162OSM   H11S18211   0.513   1.687   3.640  0.5046 -1.6976 -0.1028
  162OSM   H11T18212   0.406   1.561   3.558 -1.3610  0.2539 -0.9219
  162OSM   C12S18213   0.319   1.643   3.732  0.6354 -0.4407  0.2412
  162OSM   H12S18214   0.212   1.637   3.702  0.4344  2.8185 -0.0512
  162OSM   H12T18215   0.322   1.727   3.804 -0.0317 -0.1037 -0.1169
  162OSM   C13S18216   0.355   1.506   3.802 -0.2365  0.1604 -1.0467
  162OSM   H13S18217   0.461   1.507   3.833 -0.6654 -1.2862  0.6398
  162OSM   H13T18218   0.317   1.419   3.743 -2.0096 -0.0745  0.3378
  162OSM   C14S18219   0.270   1.489   3.929  0.1983  0.4248  0.5950
  162OSM   H14S18220   0.160   1.499   3.913  0.1397  1.5083  1.5541
  162OSM   H14T18221   0.295   1.568   4.003  1.8932  0.0131  0.5048
  162OSM   C15S18222   0.288   1.351   4.006  0.3793 -0.4882  0.1577
  162OSM   H15S18223   0.395   1.337   4.031  0.7386  1.0687 -0.4088
  162OSM   H15T18224   0.260   1.269   3.936 -0.7187 -1.7905  2.0207
  162OSM   C16S18225   0.198   1.334   4.130  0.0941  0.4426  0.5430
  162OSM   H16S18226   0.222   1.416   4.201  1.5104 -0.4259  1.1166
  162OSM   H16T18227   0.245   1.245   4.177 -1.0714 -1.8222 -2.2167
  162OSM   C17S18228   0.055   1.293   4.086  0.2164 -0.7121  0.1675
  162OSM   H17S18229   0.051   1.194   4.035  1.5420 -1.4701  1.4624
  162OSM   H17T18230   0.005   1.371   4.024 -0.3112 -0.3963  0.9814
  162OSM   C18S18231  -0.035   1.281   4.214  0.1169  0.0765  0.0139
  162OSM   H18S18232  -0.133   1.238   4.186  0.2537  0.3772 -0.9751
  162OSM   H18T18233  -0.047   1.374   4.273 -2.7259  1.6152 -2.7178
  162OSM   H18U18234   0.025   1.214   4.279  0.8975  0.0038 -0.7582
  162OSM    C1F18235   0.956   2.130   2.918  0.5552 -0.2682  0.1603
  162OSM     OF18236   0.938   2.249   2.891  0.2128 -0.1791 -0.3086
  162OSM    C2F18237   1.074   2.090   2.993 -0.8059 -0.0639  0.3862
  162OSM    H2F18238   1.164   2.106   2.929 -1.0037  1.5991  0.4596
  162OSM    H2G18239   1.068   1.983   3.023  1.7572 -0.0422  1.2222
  162OSM    C3F18240   1.077   2.178   3.125  0.5273  0.5442 -0.5013
  162OSM    H3F18241   0.985   2.153   3.182 -0.9869  0.6522 -2.7491
  162OSM    H3G18242   1.074   2.284   3.093  2.2280 -0.2333 -3.7043
  162OSM    C4F18243   1.203   2.147   3.212  0.3726 -0.6002 -0.0455
  162OSM    H4F18244   1.295   2.178   3.158 -0.1455  0.0798 -0.5591
  162OSM    H4G18245   1.210   2.036   3.224  2.3806 -0.5026  0.0014
  162OSM    C5F18246   1.200   2.215   3.350  0.2151  0.3938 -0.0693
  162OSM    H5F18247   1.104   2.177   3.393  1.0500 -0.3253  1.2184
  162OSM    H5G18248   1.193   2.325   3.346 -1.4102  0.4308  1.7691
  162OSM    C6F18249   1.318   2.190   3.440 -0.0125 -0.3538 -0.0552
  162OSM    H6F18250   1.313   2.251   3.533 -0.2791  0.8488 -0.8292
  162OSM    H6G18251   1.412   2.227   3.392  0.9266 -1.1548  1.1077
  162OSM    C7F18252   1.347   2.041   3.477  0.8378  0.3757  0.1324
  162OSM    H7F18253   1.444   2.036   3.532 -0.0541 -2.4872  1.6653
  162OSM    H7G18254   1.372   1.994   3.380 -0.3722 -1.2041  0.5448
  162OSM    C8F18255   1.223   1.972   3.541 -0.1333 -0.5191  0.5780
  162OSM    H8F18256   1.261   1.873   3.573 -1.0212 -0.9535  0.3085
  162OSM    H8G18257   1.148   1.953   3.462  2.8609 -1.0985 -2.3694
  162OSM    C9F18258   1.157   2.055   3.646  0.0351 -0.9354 -0.5864
  162OSM    H9F18259   1.088   2.132   3.610  1.1081  0.1659 -0.3644
  162OSM   C10F18260   1.176   2.057   3.781 -0.4721 -0.1845 -0.3168
  162OSM   H10F18261   1.119   2.130   3.840  0.1259  0.8804 -1.0178
  162OSM   C11F18262   1.277   1.965   3.850 -0.3217  0.1066  0.1807
  162OSM   H11F18263   1.320   1.881   3.791  2.3073 -1.1828  3.5535
  162OSM   H11G18264   1.232   1.903   3.931 -1.8600 -0.7938 -1.2988
  162OSM   C12F18265   1.405   2.038   3.903  0.5440  0.1414  0.1307
  162OSM   H12F18266   1.369   2.116   3.974 -0.2390 -1.1588  1.2039
  162OSM   H12G18267   1.443   2.095   3.816  0.6820 -1.6963 -1.0727
  162OSM   C13F18268   1.504   1.944   3.966 -0.4044 -0.4709 -0.3237
  162OSM   H13F18269   1.597   2.003   3.983 -0.9549  0.2271  0.2912
  162OSM   H13G18270   1.530   1.859   3.899 -2.2814 -0.5116 -1.0371
  162OSM   C14F18271   1.467   1.895   4.113 -0.2997  0.1438  0.6299
  162OSM   H14F18272   1.364   1.855   4.114  0.5016 -2.1212 -0.4336
  162OSM   H14G18273   1.465   1.979   4.185  0.7627  0.4845  0.2853
  162OSM   C15F18274   1.556   1.784   4.168  0.3175 -0.2187  0.0148
  162OSM   H15F18275   1.657   1.828   4.164  0.4808 -0.6497 -0.9931
  162OSM   H15G18276   1.556   1.698   4.098 -0.2362  0.5652 -0.9761
  162OSM   C16F18277   1.510   1.732   4.297 -0.4614 -0.6502 -0.0120
  162OSM   H16F18278   1.412   1.678   4.296 -0.0464 -1.4103 -0.5139
  162OSM   H16G18279   1.511   1.818   4.367  4.0595  1.2879 -2.0936
  162OSM   C17F18280   1.615   1.635   4.344 -0.4627  0.5908  0.0808
  162OSM   H17F18281   1.704   1.694   4.375 -0.3108  0.4129 -0.0189
  162OSM   H17G18282   1.652   1.569   4.263  0.6402  1.0383  0.1990
  162OSM   C18F18283   1.573   1.552   4.462 -0.1799 -0.0980  0.2724
  162OSM   H18F18284   1.470   1.512   4.459  0.8293 -2.8506 -1.2692
  162OSM   H18G18285   1.580   1.612   4.556  2.7971 -1.6972  1.2250
  162OSM   H18H18286   1.646   1.468   4.467  1.8126  1.3016 -2.5049
  163OSM      N18287   1.035   6.163   2.248  0.0338  0.6172 -0.6995
  163OSM    C1518288   1.153   6.108   2.317 -0.2490  0.2699 -0.5288
  163OSM   H15A18289   1.204   6.026   2.271 -0.6529 -1.4371  1.8636
  163OSM   H15B18290   1.118   6.076   2.414  0.0342  0.3098 -0.4145
  163OSM   H15C18291   1.229   6.183   2.331 -1.1585  1.1662 -0.1861
  163OSM    C1418292   0.945   6.220   2.358 -0.2133  0.4218  0.1436
  163OSM   H14A18293   0.995   6.293   2.421  0.6144 -0.3225  0.3686
  163OSM   H14B18294   0.895   6.143   2.414  2.1837 -0.0229  1.8266
  163OSM   H14C18295   0.867   6.273   2.306 -0.9493 -0.5884  0.2114
  163OSM    C1318296   1.082   6.272   2.158  0.0093 -0.4775 -0.0490
  163OSM   H13A18297   1.125   6.353   2.215 -3.0817  0.0227  1.7992
  163OSM   H13B18298   1.001   6.332   2.117 -3.2797 -1.8213  3.7933
  163OSM   H13C18299   1.144   6.220   2.086 -1.0011 -2.8413  0.6765
  163OSM    C1218300   0.959   6.058   2.170 -0.2005  0.5144  0.1868
  163OSM   H12A18301   1.023   6.027   2.088  0.9285 -2.5087  2.0272
  163OSM   H12B18302   0.874   6.101   2.118 -1.5505 -2.5896 -0.4326
  163OSM    C1118303   0.903   5.933   2.246 -0.5427 -0.2582 -0.2580
  163OSM   H11A18304   0.988   5.882   2.295  1.1933  2.7297  0.1000
  163OSM   H11B18305   0.865   5.870   2.163  1.4437  1.7711 -2.9250
  163OSM      P18306   0.648   5.966   2.284  0.2938 -0.0847  0.4335
  163OSM    O1318307   0.567   6.025   2.391  0.0660 -0.1422 -0.3713
  163OSM    O1418308   0.641   6.035   2.155 -0.0661 -0.0808  1.0710
  163OSM    O1118309   0.599   5.814   2.270  0.1395  0.1009 -0.8521
  163OSM    O1218310   0.799   5.964   2.337  0.4103  0.1917  0.0158
  163OSM    C1S18311   0.609   5.717   2.382 -0.0622  0.2836 -0.9283
  163OSM    H1S18312   0.683   5.751   2.456  0.2441 -0.2801 -0.9693
  163OSM    H1T18313   0.655   5.620   2.351  1.2194  0.1738  1.1464
  163OSM     NF18314   0.481   5.614   2.561 -0.0623 -0.8961  0.3929
  163OSM    HNF18315   0.454   5.519   2.543 -0.0330 -1.1854  1.7373
  163OSM    C2S18316   0.467   5.704   2.448  0.0500  0.0740 -0.2725
  163OSM    H2S18317   0.440   5.801   2.495  0.0861 -0.0780  0.0656
  163OSM    C3S18318   0.361   5.651   2.350 -0.4238 -0.1227 -0.7496
  163OSM    H3S18319   0.403   5.558   2.307 -1.2212  0.6037 -3.2612
  163OSM     O318320   0.342   5.731   2.241  0.2435  0.3140 -0.7444
  163OSM    HO318321   0.426   5.777   2.226  0.3239 -0.1790 -1.9491
  163OSM    C4S18322   0.225   5.634   2.435  0.4457  0.5319  0.0589
  163OSM    H4S18323   0.229   5.549   2.504 -0.9454  0.8647  0.5832
  163OSM    C5S18324   0.121   5.723   2.448  0.4260  0.1278  0.1080
  163OSM    H5S18325   0.130   5.811   2.382  1.4519  0.1691  0.2762
  163OSM    C6S18326  -0.007   5.722   2.529  0.2586  1.0305 -0.2267
  163OSM    H6S18327  -0.006   5.626   2.584  0.6062  1.3259  0.2841
  163OSM    H6T18328  -0.097   5.716   2.464 -1.1095 -0.3367  1.6756
  163OSM    C7S18329  -0.032   5.841   2.632 -0.2342 -0.3370 -0.3781
  163OSM    H7S18330  -0.004   5.934   2.579 -1.7674  0.0634 -0.5050
  163OSM    H7T18331   0.029   5.832   2.725 -1.6743  0.4600  0.6902
  163OSM    C8S18332  -0.180   5.854   2.662  0.1963  0.0096  0.5626
  163OSM    H8S18333  -0.242   5.850   2.570 -1.5216 -0.5765  1.6976
  163OSM    H8T18334  -0.213   5.948   2.710 -2.1091  0.1234 -1.0939
  163OSM    C9S18335  -0.218   5.734   2.752  0.1730 -0.3895  0.9313
  163OSM    H9S18336  -0.196   5.636   2.705 -3.3225 -1.0021  0.3102
  163OSM    H9T18337  -0.326   5.741   2.774 -0.9333 -0.4082 -3.5659
  163OSM   C10S18338  -0.150   5.733   2.886 -0.3830  0.0976 -0.2551
  163OSM   H10S18339  -0.151   5.826   2.946  2.3008 -1.0057  1.7398
  163OSM   H10T18340  -0.043   5.714   2.862 -0.2781  1.1422 -0.6832
  163OSM   C11S18341  -0.184   5.618   2.979  0.3555  0.8282 -0.3466
  163OSM   H11S18342  -0.123   5.628   3.071  3.4156 -2.2280 -1.8060
  163OSM   H11T18343  -0.132   5.533   2.929  1.2015  1.7872 -1.1484
  163OSM   C12S18344  -0.328   5.593   3.016  0.2445 -0.6748  0.3940
  163OSM   H12S18345  -0.399   5.579   2.932 -0.0301 -1.0302  0.6820
  163OSM   H12T18346  -0.371   5.679   3.073 -0.9487 -0.0748 -1.3389
  163OSM   C13S18347  -0.340   5.470   3.106  0.1347 -0.2594 -0.3853
  163OSM   H13S18348  -0.302   5.382   3.050 -2.0436 -2.6186  1.6039
  163OSM   H13T18349  -0.450   5.459   3.118  0.2457  0.1062  1.1549
  163OSM   C14S18350  -0.262   5.466   3.241  0.3316  0.1654  0.2522
  163OSM   H14S18351  -0.153   5.450   3.224  0.6699  1.6432  0.8844
  163OSM   H14T18352  -0.301   5.379   3.299  0.4624  1.0686  1.7499
  163OSM   C15S18353  -0.301   5.581   3.330 -0.1370  0.1302  0.3641
  163OSM   H15S18354  -0.406   5.558   3.355 -0.0713 -2.5018 -1.2604
  163OSM   H15T18355  -0.288   5.681   3.285  0.0710  0.6094  1.4642
  163OSM   C16S18356  -0.207   5.576   3.445  0.3306 -0.3627  0.1684
  163OSM   H16S18357  -0.212   5.675   3.494  3.0220 -0.3154  0.4712
  163OSM   H16T18358  -0.102   5.578   3.409  0.4022  0.7801  0.3922
  163OSM   C17S18359  -0.224   5.466   3.554 -0.1046 -0.3664 -0.7557
  163OSM   H17S18360  -0.202   5.375   3.494  1.0636  1.1929 -2.8310
  163OSM   H17T18361  -0.327   5.458   3.594 -0.0936  0.3140 -0.5799
  163OSM   C18S18362  -0.130   5.486   3.671 -0.2469 -0.7507  0.3020
  163OSM   H18S18363  -0.132   5.405   3.747 -1.8712 -1.2038 -0.2009
  163OSM   H18T18364  -0.165   5.582   3.716  2.5237  0.7669 -0.5100
  163OSM   H18U18365  -0.024   5.499   3.638  0.1223 -1.9751  0.9427
  163OSM    C1F18366   0.537   5.646   2.675 -0.4388 -0.2903 -0.1338
  163OSM     OF18367   0.594   5.757   2.684 -0.2289  0.4951  0.0020
  163OSM    C2F18368   0.540   5.533   2.773  0.1040  0.5241 -0.5308
  163OSM    H2F18369   0.601   5.452   2.727  0.8555  1.9846 -2.2239
  163OSM    H2G18370   0.436   5.507   2.799  0.9473 -0.4759  2.2018
  163OSM    C3F18371   0.610   5.587   2.902 -0.2538  0.2338 -0.3582
  163OSM    H3F18372   0.553   5.679   2.927 -1.0057 -0.4684  0.6508
  163OSM    H3G18373   0.715   5.617   2.883  0.4961 -1.6072  0.5347
  163OSM    C4F18374   0.599   5.492   3.023 -0.4762 -0.4262  0.3986
  163OSM    H4F18375   0.684   5.420   3.021 -2.1389 -2.4505  0.4532
  163OSM    H4G18376   0.505   5.434   3.019  0.0370 -1.2920  0.7130
  163OSM    C5F18377   0.606   5.560   3.158  0.1799 -0.7774 -0.1653
  163OSM    H5F18378   0.504   5.596   3.180  0.5703  0.7765 -0.7792
  163OSM    H5G18379   0.667   5.652   3.143  1.2174 -1.3287  0.5400
  163OSM    C6F18380   0.652   5.470   3.267 -0.2952  0.1647  0.1086
  163OSM    H6F18381   0.754   5.427   3.254 -0.5059 -0.7683  1.3948
  163OSM    H6G18382   0.586   5.382   3.250 -2.5735  2.2688 -2.8819
  163OSM    C7F18383   0.642   5.524   3.406  0.7095 -0.4207 -0.2522
  163OSM    H7F18384   0.544   5.566   3.437 -0.1966  0.2146 -3.5945
  163OSM    H7G18385   0.710   5.612   3.394 -1.7679  1.5096 -1.1108
  163OSM    C8F18386   0.708   5.433   3.515 -0.8056  0.1095  0.2532
  163OSM    H8F18387   0.762   5.490   3.594  3.3328 -1.4507 -1.1584
  163OSM    H8G18388   0.797   5.383   3.471  1.1013  2.8364  0.7121
  163OSM    C9F18389   0.623   5.331   3.581 -0.2304  0.0461 -0.5098
  163OSM    H9F18390   0.590   5.243   3.524  0.0191 -0.1882 -0.2914
  163OSM   C10F18391   0.568   5.347   3.703 -0.7367 -0.5204 -0.9479
  163OSM   H10F18392   0.499   5.271   3.743  0.8446 -2.3908 -1.5934
  163OSM   C11F18393   0.592   5.465   3.803 -0.5408  0.1690  0.1107
  163OSM   H11F18394   0.506   5.535   3.812 -0.5955  0.0084  0.9589
  163OSM   H11G18395   0.676   5.523   3.762  1.4098 -1.4277  1.6204
  163OSM   C12F18396   0.630   5.413   3.947  0.3881 -0.4019  0.2195
  163OSM   H12F18397   0.671   5.504   3.996 -1.0736  1.0965 -1.1652
  163OSM   H12G18398   0.716   5.343   3.941  1.8773  1.4526 -1.8227
  163OSM   C13F18399   0.517   5.355   4.039 -0.4121 -0.2020 -0.0587
  163OSM   H13F18400   0.514   5.245   4.020 -0.3399 -0.2312  0.0959
  163OSM   H13G18401   0.419   5.395   4.005 -0.3264  0.6740  0.6935
  163OSM   C14F18402   0.555   5.367   4.186  0.5031  0.5947  1.3535
  163OSM   H14F18403   0.559   5.474   4.213 -0.0189  0.6063  1.3962
  163OSM   H14G18404   0.652   5.317   4.207  1.4152  0.7347 -1.8991
  163OSM   C15F18405   0.445   5.303   4.274 -0.3253 -0.2320  0.1561
  163OSM   H15F18406   0.430   5.196   4.248 -1.3740 -0.8285  2.8979
  163OSM   H15G18407   0.344   5.348   4.263 -0.8125 -1.5190 -0.8949
  163OSM   C16F18408   0.494   5.310   4.424 -0.0631 -0.8662 -0.2393
  163OSM   H16F18409   0.587   5.249   4.431 -0.0449 -0.8914 -0.6396
  163OSM   H16G18410   0.422   5.245   4.477  0.9443 -1.6539  0.1862
  163OSM   C17F18411   0.494   5.448   4.491  0.4625  0.3999  0.1550
  163OSM   H17F18412   0.390   5.487   4.501 -0.8915 -3.1126  1.4621
  163OSM   H17G18413   0.563   5.514   4.433  1.1177  1.0762  1.6569
  163OSM   C18F18414   0.561   5.453   4.637  0.1502 -0.0696  0.0057
  163OSM   H18F18415   0.588   5.557   4.666 -2.1032  0.7001 -0.4425
  163OSM   H18G18416   0.657   5.398   4.636 -1.3305 -2.8310  0.4532
  163OSM   H18H18417   0.501   5.401   4.715  1.8456  0.0208  1.4207
  164OSM      N18418   1.271   4.631   1.901 -0.8774 -0.2313 -0.6763
  164OSM    C1518419   1.366   4.601   1.792  0.1389  0.0720  0.3503
  164OSM   H15A18420   1.336   4.644   1.698 -1.1831  2.2835  1.6885
  164OSM   H15B18421   1.362   4.494   1.775  0.1392  0.0663  0.3869
  164OSM   H15C18422   1.469   4.621   1.817  0.0134  0.5565  0.4855
  164OSM    C1418423   1.296   4.773   1.939  0.2001  0.7437 -0.5347
  164OSM   H14A18424   1.330   4.823   1.850  0.2020 -2.3422 -2.4147
  164OSM   H14B18425   1.381   4.781   2.005  0.4034 -1.0691 -0.5183
  164OSM   H14C18426   1.208   4.819   1.981 -2.4316 -3.2600 -1.1106
  164OSM    C1318427   1.133   4.605   1.855 -0.4342 -1.0211 -1.1685
  164OSM   H13A18428   1.106   4.671   1.774 -0.2370  1.8527  0.9713
  164OSM   H13B18429   1.068   4.610   1.941 -0.0361 -0.9652 -0.8703
  164OSM   H13C18430   1.119   4.509   1.807  0.3728 -1.6947 -0.1281
  164OSM    C1218431   1.296   4.542   2.021 -0.4915  0.4034  0.0714
  164OSM   H12A18432   1.276   4.438   2.003 -1.0822  0.2836  1.2805
  164OSM   H12B18433   1.214   4.566   2.088 -0.2714  0.5125  0.3072
  164OSM    C1118434   1.431   4.553   2.103  0.2491  0.1786  0.2344
  164OSM   H11A18435   1.525   4.539   2.045  0.2189 -1.6140  0.5671
  164OSM   H11B18436   1.438   4.466   2.172 -1.8018 -0.3166 -0.0954
  164OSM      P18437   1.326   4.706   2.287 -0.0053  0.1439 -0.0992
  164OSM    O1318438   1.277   4.847   2.265 -0.3799 -0.6037  0.3434
  164OSM    O1418439   1.224   4.603   2.294 -0.0587  0.0642  0.9374
  164OSM    O1118440   1.419   4.692   2.419 -0.4990  0.2145  0.2782
  164OSM    O1218441   1.433   4.679   2.173 -0.5661 -0.0665  0.1210
  164OSM    C1S18442   1.544   4.635   2.421  0.0416 -0.1234  0.1223
  164OSM    H1S18443   1.607   4.685   2.345  0.3135 -0.5503  0.0656
  164OSM    H1T18444   1.541   4.527   2.395 -1.0255  0.1094 -0.7938
  164OSM     NF18445   1.747   4.601   2.548 -0.2151 -0.0606 -0.2432
  164OSM    HNF18446   1.768   4.506   2.574  1.8809  0.2335 -0.7151
  164OSM    C2S18447   1.610   4.652   2.563 -0.1463  0.1316  0.6989
  164OSM    H2S18448   1.603   4.760   2.587 -4.0259  0.2630 -0.3722
  164OSM    C3S18449   1.521   4.574   2.661 -0.7394 -0.2392 -0.5972
  164OSM    H3S18450   1.531   4.465   2.640  1.3540 -0.2006  0.0263
  164OSM     O318451   1.385   4.613   2.655 -0.1039  0.0956 -0.5508
  164OSM    HO318452   1.381   4.661   2.572  0.6273 -1.6805 -1.6830
  164OSM    C4S18453   1.557   4.604   2.812  0.4944 -0.6762  0.7690
  164OSM    H4S18454   1.607   4.701   2.825  0.2852 -0.4023 -0.3606
  164OSM    C5S18455   1.561   4.509   2.904  0.7912 -0.4737 -0.2722
  164OSM    H5S18456   1.548   4.403   2.878  1.0861 -1.1962  2.2335
  164OSM    C6S18457   1.601   4.537   3.048  0.8228 -0.1880 -0.1440
  164OSM    H6S18458   1.507   4.527   3.107 -0.5508 -2.1124 -2.5059
  164OSM    H6T18459   1.651   4.634   3.070 -0.2515  0.2314  0.5382
  164OSM    C7S18460   1.702   4.431   3.110 -0.3759  0.3137 -0.7115
  164OSM    H7S18461   1.788   4.413   3.043 -2.5220 -1.9124 -3.0811
  164OSM    H7T18462   1.643   4.336   3.115 -1.4036  0.9230 -0.9263
  164OSM    C8S18463   1.760   4.469   3.251  1.3184 -0.0167  0.1865
  164OSM    H8S18464   1.677   4.511   3.312  0.9049  1.8146 -1.5121
  164OSM    H8T18465   1.828   4.557   3.250  0.6583  0.4945 -0.4268
  164OSM    C9S18466   1.836   4.349   3.317 -0.1711  0.4118 -0.2552
  164OSM    H9S18467   1.913   4.305   3.250 -2.0116 -0.2598 -2.0549
  164OSM    H9T18468   1.759   4.273   3.343  0.2773 -0.1023 -0.4294
  164OSM   C10S18469   1.887   4.385   3.457  0.1566  0.4608 -0.4176
  164OSM   H10S18470   1.799   4.437   3.498 -0.5487 -0.2547 -0.9935
  164OSM   H10T18471   1.975   4.453   3.450 -1.0937  2.4987  2.0243
  164OSM   C11S18472   1.921   4.274   3.552  0.4601  0.6220  0.4096
  164OSM   H11S18473   2.001   4.212   3.507 -0.4238 -0.1370 -0.1533
  164OSM   H11T18474   1.826   4.218   3.563  0.6609  0.3210  0.6055
  164OSM   C12S18475   1.979   4.332   3.681 -0.1603  0.1308  0.4605
  164OSM   H12S18476   1.914   4.416   3.714  0.2183  0.2475  0.9180
  164OSM   H12T18477   2.076   4.375   3.648 -0.0502 -0.4866 -0.0415
  164OSM   C13S18478   2.010   4.238   3.800  0.7843  0.5347 -0.6501
  164OSM   H13S18479   2.058   4.304   3.876 -0.5084  0.2128  0.4852
  164OSM   H13T18480   2.082   4.157   3.776 -1.6408 -1.8596 -0.3522
  164OSM   C14S18481   1.892   4.169   3.868  0.5125  0.0925 -0.0953
  164OSM   H14S18482   1.848   4.085   3.811 -1.2240  1.3145 -0.6410
  164OSM   H14T18483   1.822   4.255   3.882 -0.3846 -0.3122 -1.8616
  164OSM   C15S18484   1.928   4.116   4.008  0.2883 -0.2546 -0.1341
  164OSM   H15S18485   1.964   4.204   4.064 -2.7574  0.3420  1.1095
  164OSM   H15T18486   2.008   4.041   3.990  0.1617 -0.3347 -0.3674
  164OSM   C16S18487   1.804   4.067   4.087 -0.3951 -0.2459 -0.1239
  164OSM   H16S18488   1.759   3.980   4.035  0.3986 -0.9219  0.2836
  164OSM   H16T18489   1.723   4.143   4.091  0.3027  0.5533 -0.7465
  164OSM   C17S18490   1.850   4.022   4.221 -0.2424  0.5106  0.7998
  164OSM   H17S18491   1.887   4.109   4.280  1.8666  0.0088  0.3015
  164OSM   H17T18492   1.933   3.950   4.207  0.5364  1.1320  2.1105
  164OSM   C18S18493   1.742   3.952   4.300  0.0730  0.6405  0.8171
  164OSM   H18S18494   1.802   3.894   4.374  1.1416 -0.4664 -0.8537
  164OSM   H18T18495   1.685   3.885   4.233  1.4777  0.5533 -0.3344
  164OSM   H18U18496   1.682   4.019   4.365  1.0294  1.5030  0.8522
  164OSM    C1F18497   1.840   4.685   2.503  0.3490 -0.5286 -0.1743
  164OSM     OF18498   1.815   4.798   2.462  0.1300 -0.1525 -0.7475
  164OSM    C2F18499   1.983   4.641   2.502  0.5116  0.2665  0.2254
  164OSM    H2F18500   2.011   4.617   2.397  1.3401  0.1799  0.4577
  164OSM    H2G18501   1.983   4.549   2.564 -0.3436  0.9413  1.2523
  164OSM    C3F18502   2.082   4.741   2.575 -0.8067 -0.7662 -0.9999
  164OSM    H3F18503   2.076   4.840   2.524 -0.4116  1.1786  2.4715
  164OSM    H3G18504   2.184   4.697   2.572 -1.2641 -2.0095  0.3760
  164OSM    C4F18505   2.050   4.780   2.723  0.0548  0.1148  1.1523
  164OSM    H4F18506   1.944   4.813   2.730 -0.2621 -0.8624  1.0371
  164OSM    H4G18507   2.118   4.867   2.743 -0.0135  0.1603  1.1855
  164OSM    C5F18508   2.079   4.681   2.833  0.7793  0.0914 -0.6025
  164OSM    H5F18509   2.183   4.698   2.866  0.6141 -0.3943  0.1841
  164OSM    H5G18510   2.062   4.581   2.787  2.1235  0.4125 -1.8766
  164OSM    C6F18511   1.976   4.690   2.955 -0.5646 -1.3028 -0.1543
  164OSM    H6F18512   1.999   4.604   3.023  0.2560  0.1559  1.4844
  164OSM    H6G18513   1.874   4.678   2.913 -0.4579 -0.4819 -0.6684
  164OSM    C7F18514   1.992   4.826   3.033 -0.0447 -0.2020 -0.3605
  164OSM    H7F18515   1.926   4.905   2.991  3.9971  2.1302 -3.0259
  164OSM    H7G18516   2.094   4.863   3.012  0.8368 -2.3481 -0.1113
  164OSM    C8F18517   1.971   4.818   3.189 -0.1216  0.5736 -0.1413
  164OSM    H8F18518   1.867   4.785   3.206 -0.5776  1.5966 -0.8898
  164OSM    H8G18519   1.972   4.922   3.227 -0.5658 -0.0672  1.7455
  164OSM    C9F18520   2.068   4.726   3.263  0.4693  0.4404 -0.7670
  164OSM    H9F18521   2.094   4.636   3.206  2.1952  1.7131 -2.0778
  164OSM   C10F18522   2.118   4.747   3.383  0.2003 -0.3195 -0.0363
  164OSM   H10F18523   2.180   4.670   3.431 -0.8984  0.9231  3.7002
  164OSM   C11F18524   2.104   4.862   3.476 -0.0855  0.0727 -0.5512
  164OSM   H11F18525   2.045   4.942   3.427 -0.9137 -0.0461  0.2163
  164OSM   H11G18526   2.210   4.882   3.498 -0.2272 -0.8795  1.1698
  164OSM   C12F18527   2.036   4.831   3.615 -0.2766  0.2763 -0.3229
  164OSM   H12F18528   1.932   4.805   3.587  0.1407 -0.2440 -1.4184
  164OSM   H12G18529   2.028   4.923   3.678 -2.0856 -0.8852  1.2656
  164OSM   C13F18530   2.097   4.718   3.706 -0.1517  0.1194  0.0593
  164OSM   H13F18531   2.199   4.751   3.738  0.0667  1.7040 -2.0343
  164OSM   H13G18532   2.112   4.634   3.636 -1.3046  0.3870 -0.5375
  164OSM   C14F18533   2.014   4.661   3.815  0.3308 -0.8300 -0.3124
  164OSM   H14F18534   2.055   4.562   3.843 -1.9329 -1.3201  1.6330
  164OSM   H14G18535   1.913   4.652   3.769  0.9471  0.5253 -2.0370
  164OSM   C15F18536   2.016   4.745   3.952  0.4210 -0.1834  0.1577
  164OSM   H15F18537   1.965   4.689   4.033  0.2977  0.0867  0.2695
  164OSM   H15G18538   1.972   4.845   3.931  1.1631 -0.4635 -3.2563
  164OSM   C16F18539   2.160   4.776   3.995  0.0672  0.0602 -0.8915
  164OSM   H16F18540   2.220   4.839   3.925  0.8256 -0.6951 -0.9387
  164OSM   H16G18541   2.210   4.677   3.999  1.7743  0.9249  1.2492
  164OSM   C17F18542   2.165   4.842   4.137 -0.1746 -0.5247 -0.2102
  164OSM   H17F18543   2.130   4.766   4.211 -0.3215  3.2680  4.1069
  164OSM   H17G18544   2.097   4.931   4.138 -0.4597 -0.7366  1.2390
  164OSM   C18F18545   2.311   4.883   4.172 -0.3040  0.0362 -0.2172
  164OSM   H18F18546   2.333   4.966   4.102 -0.4105  0.0398 -0.2463
  164OSM   H18G18547   2.377   4.796   4.152  0.4600  0.6063 -0.2117
  164OSM   H18H18548   2.322   4.907   4.280  0.5063 -1.6656  0.1196
  165SAPS     N18549   5.579   0.368   6.744 -0.3025 -0.2281  0.5207
  165SAPS   HN118550   5.642   0.301   6.695 -2.5287 -0.5476 -2.1396
  165SAPS   HN218551   5.486   0.323   6.744 -0.2178 -0.4052  0.2609
  165SAPS   HN318552   5.569   0.452   6.683 -0.6781 -0.2593  0.5424
  165SAPS   C1218553   5.637   0.419   6.871 -0.4494  0.1958 -0.1807
  165SAPS  H12A18554   5.683   0.333   6.918 -1.5975 -0.8770 -0.9529
  165SAPS   C1318555   5.758   0.524   6.851 -0.6783 -0.1989  0.2826
  165SAPS  O13A18556   5.805   0.525   6.738 -0.2373 -0.3550  0.1879
  165SAPS  O13B18557   5.833   0.563   6.949 -0.1095 -0.4381  0.1407
  165SAPS   C1118558   5.521   0.486   6.949  0.3807 -0.7649  0.0191
  165SAPS  H11A18559   5.556   0.502   7.053 -1.3034 -2.2465  0.8741
  165SAPS  H11B18560   5.438   0.413   6.955  0.6898 -1.1463 -0.3080
  165SAPS     P18561   5.338   0.660   6.900  0.5754  0.1469  0.0445
  165SAPS   O1318562   5.248   0.540   6.907  0.3221 -0.0677  0.0383
  165SAPS   O1418563   5.336   0.748   7.022  0.6209  0.1890  0.2473
  165SAPS   O1218564   5.487   0.612   6.885  0.1116  0.1804  0.3188
  165SAPS   O1118565   5.301   0.759   6.781 -0.4962  0.8625 -0.5338
  165SAPS    C118566   5.376   0.741   6.660  0.2359 -0.5108  0.2206
  165SAPS    HA18567   5.383   0.836   6.603  2.1407 -1.5912 -1.5230
  165SAPS    HB18568   5.481   0.705   6.666  1.1876  1.9982 -0.2503
  165SAPS    C218569   5.302   0.643   6.565  0.5912 -0.7483 -0.0485
  165SAPS    HS18570   5.313   0.540   6.607 -1.4552 -0.4439  1.3849
  165SAPS   O2118571   5.357   0.650   6.436  0.1275  0.3384  0.0888
  165SAPS   C2118572   5.470   0.585   6.411 -1.0667  0.6133 -0.3169
  165SAPS   O2218573   5.526   0.511   6.493  0.3172  0.3551  0.0000
  165SAPS   C2218574   5.522   0.628   6.265  0.1871  0.3368  0.2585
  165SAPS   H2R18575   5.630   0.602   6.275  0.8084  2.8235  0.6625
  165SAPS   H2S18576   5.471   0.554   6.201 -1.8063  2.0596 -0.2367
  165SAPS    C318577   5.148   0.672   6.559  0.3331 -0.3384  0.1308
  165SAPS    HX18578   5.118   0.777   6.538 -0.3192 -0.2707  1.3061
  165SAPS    HY18579   5.108   0.658   6.661  0.1640 -2.2975 -0.1622
  165SAPS   O3118580   5.091   0.579   6.466 -0.1155  0.3083  0.2831
  165SAPS   C3118581   4.951   0.589   6.451 -0.0787  0.3218 -0.5891
  165SAPS   O3218582   4.884   0.653   6.530  0.2119 -0.1037  0.8930
  165SAPS   C3218583   4.899   0.523   6.327  0.2744  0.0616  0.0945
  165SAPS   H2X18584   4.799   0.483   6.353 -0.4173  0.1703 -2.1998
  165SAPS   H2Y18585   4.960   0.435   6.297  2.3316  1.3819  0.1832
  165SAPS   C2318586   5.507   0.774   6.214  0.0542 -0.3771  0.1769
  165SAPS   H3R18587   5.408   0.820   6.233 -0.4098 -0.5480 -1.7086
  165SAPS   H3S18588   5.524   0.776   6.104  0.3428  1.9475  0.2141
  165SAPS   C2418589   5.613   0.862   6.279  0.0793  0.4812  0.0818
  165SAPS   H4R18590   5.714   0.817   6.277 -0.0905 -0.0041  1.5523
  165SAPS   H4S18591   5.582   0.862   6.385 -0.7615  0.4262 -0.1547
  165SAPS   C2518592   5.604   0.996   6.214 -0.5441  0.1330 -0.2330
  165SAPS   H5R18593   5.504   1.039   6.235 -0.1679  0.7103  0.4154
  165SAPS   C2618594   5.686   1.064   6.126  0.0174  0.2657 -0.7290
  165SAPS   H6R18595   5.674   1.172   6.108  0.0235  0.3173 -0.4227
  165SAPS   C2718596   5.823   1.007   6.081  0.0849 -0.1440  0.0248
  165SAPS   H7R18597   5.825   0.993   5.971 -1.5349 -0.7325  0.0467
  165SAPS   H7S18598   5.853   0.912   6.131  3.7226  1.0833  0.4695
  165SAPS   C2818599   5.920   1.105   6.131 -0.7531 -0.4204 -0.0427
  165SAPS   H8R18600   5.965   1.089   6.230  0.6478 -0.7907 -0.7144
  165SAPS   C2918601   5.967   1.206   6.051 -0.2548  0.1163 -0.6818
  165SAPS   H9R18602   6.027   1.285   6.098 -1.3807  0.1384  0.7978
  165SAPS  C21018603   5.930   1.236   5.910  0.1321 -0.7768  0.6059
  165SAPS  H10R18604   5.915   1.345   5.895  1.0966 -0.6428  0.5846
  165SAPS  H10S18605   5.839   1.184   5.872 -0.1414  0.6662 -0.7991
  165SAPS  C21118606   6.046   1.195   5.821  0.4076  0.8809 -0.5976
  165SAPS  H11R18607   6.121   1.123   5.857  1.4859  1.2826 -1.9090
  165SAPS  C21218608   6.055   1.235   5.696 -0.7434 -0.8431 -0.8202
  165SAPS  H12R18609   6.145   1.192   5.650  0.2925 -2.2535  2.2419
  165SAPS  C21318610   5.970   1.321   5.611 -0.3589 -0.3457  0.4330
  165SAPS  H13R18611   5.862   1.313   5.633 -0.6822  2.3266  0.1468
  165SAPS  H13S18612   5.975   1.276   5.510  1.7912  0.1926  0.2537
  165SAPS  C21418613   6.007   1.469   5.615  0.2915  0.4875 -0.4808
  165SAPS  H14R18614   5.987   1.510   5.716 -1.7169  0.6635 -0.9107
  165SAPS  C21518615   6.056   1.547   5.520 -0.0569  0.1118 -0.3595
  165SAPS  H15R18616   6.069   1.653   5.548  0.2667 -0.5093  2.0647
  165SAPS  C21618617   6.080   1.507   5.377 -0.3380 -0.1059 -0.7553
  165SAPS  H16R18618   6.084   1.397   5.363 -0.6073 -0.4745  1.6988
  165SAPS  H16S18619   6.173   1.558   5.345  0.3917  0.4034  1.9743
  165SAPS  C21718620   5.969   1.549   5.278  0.1523  0.4288  0.0627
  165SAPS  H17R18621   5.942   1.652   5.308  1.4657  1.4385 -2.0248
  165SAPS  H17S18622   5.888   1.473   5.284 -0.2582  0.9133  0.9686
  165SAPS  C21818623   6.027   1.550   5.134  0.1877  0.5458  0.7649
  165SAPS  H18R18624   6.078   1.453   5.112 -1.6893 -0.2606 -0.3015
  165SAPS  H18S18625   6.100   1.633   5.131 -0.7125  1.3407 -1.4237
  165SAPS  C21918626   5.918   1.561   5.027  0.1269 -0.2422 -0.0582
  165SAPS  H19R18627   5.864   1.466   5.006 -0.8514 -0.0592  1.4534
  165SAPS  H19S18628   5.971   1.576   4.930 -0.5667 -0.7471 -0.5279
  165SAPS  C22018629   5.815   1.672   5.045 -0.2936 -0.5542  0.1930
  165SAPS  H20R18630   5.732   1.659   4.972 -0.1793 -0.5596  0.0622
  165SAPS  H20S18631   5.857   1.773   5.026 -2.8979  1.1093  2.5548
  165SAPS  H20T18632   5.775   1.688   5.147 -1.1183 -0.2780 -0.1591
  165SAPS   C3318633   4.905   0.622   6.207  0.2804  0.0247  0.5166
  165SAPS   H3X18634   4.875   0.721   6.246 -1.1424 -0.2313  0.1549
  165SAPS   H3Y18635   4.833   0.587   6.130  1.1645 -2.8285  0.8719
  165SAPS   C3418636   5.038   0.631   6.132  0.6959 -0.2102  0.1508
  165SAPS   H4X18637   5.079   0.529   6.119 -0.7271 -0.8633  0.6019
  165SAPS   H4Y18638   5.102   0.684   6.206 -1.7250  2.6978  0.3590
  165SAPS   C3518639   5.028   0.697   5.992  0.0874 -0.2659  0.4946
  165SAPS   H5X18640   4.965   0.788   5.991 -0.1892 -0.4281  1.6576
  165SAPS   H5Y18641   4.989   0.627   5.915 -0.1797 -0.0647  0.4434
  165SAPS   C3618642   5.169   0.739   5.949 -0.5730 -0.6830 -0.0304
  165SAPS   H6X18643   5.219   0.640   5.950 -2.1069 -1.5033  1.6637
  165SAPS   H6Y18644   5.203   0.809   6.029 -0.7232 -1.2764  0.5548
  165SAPS   C3718645   5.175   0.809   5.812 -0.1944 -0.2038 -0.1336
  165SAPS   H7X18646   5.135   0.910   5.835 -0.7555 -0.4365 -0.0842
  165SAPS   H7Y18647   5.106   0.754   5.745 -0.2822 -0.2278 -0.0231
  165SAPS   C3818648   5.324   0.817   5.767  0.0530 -1.0090  0.3853
  165SAPS   H8X18649   5.320   0.849   5.660 -1.0982  1.3189  1.0671
  165SAPS   H8Y18650   5.369   0.716   5.768  0.2269 -0.9271  0.7059
  165SAPS   C3918651   5.406   0.918   5.847 -0.1321 -0.0415 -0.2737
  165SAPS   H9X18652   5.407   0.905   5.957  3.1976  2.9094  0.2256
  165SAPS   H9Y18653   5.371   1.023   5.840  2.5865  0.9820  0.1142
  165SAPS  C31018654   5.557   0.915   5.811 -0.2714 -0.5281 -0.5145
  165SAPS  H10X18655   5.588   0.811   5.837  2.4314  0.6650  1.4685
  165SAPS  H10Y18656   5.618   0.980   5.878 -0.7568 -0.0337 -0.5427
  165SAPS  C31118657   5.588   0.957   5.667 -0.3504  0.1970 -0.4288
  165SAPS  H11X18658   5.579   1.067   5.653  0.0668  0.1537 -1.0709
  165SAPS  H11Y18659   5.505   0.920   5.602 -0.4803 -0.1031 -0.0950
  165SAPS  C31218660   5.733   0.921   5.628 -0.1924  0.3659  0.0879
  165SAPS  H12X18661   5.747   0.815   5.656  0.5406 -0.1932 -2.2045
  165SAPS  H12Y18662   5.800   0.992   5.682 -0.9734  0.3086  1.1676
  165SAPS  C31318663   5.773   0.951   5.480  0.7155  0.2464 -0.1090
  165SAPS  H13X18664   5.770   1.061   5.465  2.6131  0.0786 -2.1616
  165SAPS  H13Y18665   5.703   0.915   5.402  0.5405  0.7496 -0.1857
  165SAPS  C31418666   5.914   0.901   5.452 -0.6805  0.0498 -0.1229
  165SAPS  H14X18667   5.948   0.823   5.524  0.1657  0.5917  0.0839
  165SAPS  H14Y18668   5.982   0.986   5.473  0.3733 -0.7355 -0.2422
  165SAPS  C31518669   5.926   0.869   5.301  0.4469 -0.1225 -0.2768
  165SAPS  H15X18670   5.858   0.784   5.281 -0.4798 -0.2010  2.7730
  165SAPS  H15Y18671   6.029   0.836   5.280 -0.7674 -2.5433 -3.1511
  165SAPS  C31618672   5.909   0.989   5.194 -1.2262  0.1878 -0.2231
  165SAPS  H16X18673   5.804   1.010   5.166 -0.4928  2.9855 -1.1854
  165SAPS  H16Y18674   5.962   0.954   5.103  0.3647  2.5460 -0.2991
  165SAPS  C31718675   5.980   1.122   5.239 -0.0728  0.2720 -0.1401
  165SAPS  H17X18676   5.929   1.160   5.329  0.8416  0.5219  0.2799
  165SAPS  H17Y18677   5.980   1.199   5.159  2.6313  0.2033 -0.2906
  165SAPS  C31818678   6.130   1.097   5.268 -0.5543 -0.1134 -0.3911
  165SAPS  H18X18679   6.170   1.186   5.320 -0.6043 -1.7537  2.7421
  165SAPS  H18Y18680   6.188   1.081   5.175  1.0783  0.8967  0.4032
  165SAPS  H18Z18681   6.137   1.012   5.340  0.7711 -0.5806 -1.0387
  166SAPS     N18682   3.687   2.108   6.670 -0.1326  0.4508  0.7706
  166SAPS   HN118683   3.603   2.048   6.680  0.0182 -0.0051 -0.5075
  166SAPS   HN218684   3.656   2.207   6.663  1.6094  1.0365  0.7778
  166SAPS   HN318685   3.734   2.084   6.580 -0.5513 -2.3613  1.2126
  166SAPS   C1218686   3.781   2.076   6.787  0.0123  0.5901 -0.0924
  166SAPS  H12A18687   3.858   2.150   6.802  1.3207 -1.0298  1.7955
  166SAPS   C1318688   3.698   2.077   6.920  0.7699  0.5568  0.0667
  166SAPS  O13A18689   3.578   2.111   6.919  0.4728  0.1918  0.3473
  166SAPS  O13B18690   3.763   2.072   7.027  0.3517  0.5451  0.0586
  166SAPS   C1118691   3.844   1.933   6.775 -0.1778 -0.0085  1.0533
  166SAPS  H11A18692   3.764   1.856   6.771 -0.6544  0.4667  1.3305
  166SAPS  H11B18693   3.908   1.912   6.863 -0.1285 -0.3148  0.9457
  166SAPS     P18694   4.062   1.986   6.635 -0.3011  0.1265  0.0465
  166SAPS   O1318695   4.113   2.058   6.755  0.7575 -0.7811 -0.6372
  166SAPS   O1418696   4.148   1.871   6.592 -0.2438  0.8078 -0.1903
  166SAPS   O1218697   3.911   1.927   6.643 -0.5023  0.0508 -0.7099
  166SAPS   O1118698   4.041   2.091   6.525  0.5675 -0.4445 -0.2606
  166SAPS    C118699   3.990   2.060   6.394 -0.0144 -0.2229 -0.0729
  166SAPS    HA18700   3.913   1.980   6.392 -1.1129  0.8163 -1.7157
  166SAPS    HB18701   3.946   2.153   6.352  1.4272  0.4263 -0.2197
  166SAPS    C218702   4.100   2.024   6.297  0.2024  0.1848 -0.3732
  166SAPS    HS18703   4.155   1.937   6.338 -1.3404  0.0611  1.5659
  166SAPS   O2118704   4.192   2.137   6.278 -0.3201  0.3373  0.2041
  166SAPS   C2118705   4.307   2.101   6.216 -0.1988 -0.8819 -0.6134
  166SAPS   O2218706   4.331   1.996   6.168 -0.1841  0.1279 -1.0674
  166SAPS   C2218707   4.406   2.217   6.210  0.1389 -0.2988 -0.8286
  166SAPS   H2R18708   4.395   2.287   6.295  2.8247  0.0154 -0.6583
  166SAPS   H2S18709   4.508   2.177   6.224  0.1357 -0.1454 -0.3503
  166SAPS    C318710   4.041   1.994   6.164  0.3826  0.8180  0.1055
  166SAPS    HX18711   4.016   1.886   6.162  1.4850  0.5579 -0.1923
  166SAPS    HY18712   4.109   2.002   6.076 -0.7216  1.1195 -0.7523
  166SAPS   O3118713   3.923   2.064   6.138 -0.6176 -0.0700 -0.4588
  166SAPS   C3118714   3.937   2.171   6.062 -0.9737  1.1243 -0.1843
  166SAPS   O3218715   4.042   2.227   6.032 -0.4567 -0.5719  0.0970
  166SAPS   C3218716   3.800   2.210   6.014 -0.7691  0.0630  0.2084
  166SAPS   H2X18717   3.728   2.215   6.098 -2.8901 -0.7986 -1.4715
  166SAPS   H2Y18718   3.759   2.124   5.958 -3.2234 -0.4931  2.6708
  166SAPS   C2318719   4.405   2.290   6.076 -0.1224 -0.0547  0.1493
  166SAPS   H3R18720   4.470   2.377   6.098  2.9140 -2.3597  1.0135
  166SAPS   H3S18721   4.301   2.323   6.057 -0.3598  0.1910  1.7038
  166SAPS   C2418722   4.467   2.206   5.962  0.5299 -0.2889  0.3064
  166SAPS   H4R18723   4.413   2.110   5.944  0.1180  0.1385 -0.8441
  166SAPS   H4S18724   4.573   2.187   5.989  0.7473  1.1180  0.5265
  166SAPS   C2518725   4.460   2.286   5.834  0.8320  0.3205  0.2101
  166SAPS   H5R18726   4.515   2.381   5.838  2.0034 -0.3422  0.0544
  166SAPS   C2618727   4.382   2.276   5.721 -0.2380 -0.2321  0.2206
  166SAPS   H6R18728   4.412   2.331   5.631  2.2388 -3.0775 -0.8673
  166SAPS   C2718729   4.298   2.158   5.688 -0.1430  0.6709  0.3037
  166SAPS   H7R18730   4.308   2.078   5.765 -2.7179 -0.9727 -0.9338
  166SAPS   H7S18731   4.326   2.107   5.593  2.3952 -0.4015  1.5352
  166SAPS   C2818732   4.150   2.192   5.675 -0.0648  0.1390  0.5052
  166SAPS   H8R18733   4.104   2.204   5.774  1.8335 -1.3657  1.6279
  166SAPS   C2918734   4.077   2.203   5.557  0.2698  0.0877  0.0861
  166SAPS   H9R18735   3.972   2.237   5.564  0.6126  1.2373 -0.0712
  166SAPS  C21018736   4.114   2.178   5.411 -0.2850  0.0763  0.3778
  166SAPS  H10R18737   4.039   2.114   5.361  1.2746 -1.9587  0.5175
  166SAPS  H10S18738   4.208   2.119   5.405  0.5117  1.2773  0.6381
  166SAPS  C21118739   4.127   2.307   5.331  0.4083 -0.4374 -1.1184
  166SAPS  H11R18740   4.101   2.396   5.390 -1.8381 -2.1587  0.6822
  166SAPS  C21218741   4.161   2.316   5.203 -0.4547  0.2151  1.2462
  166SAPS  H12R18742   4.173   2.417   5.162 -0.9684 -0.6877 -1.3704
  166SAPS  C21318743   4.197   2.194   5.109  0.1607  0.2935 -0.3159
  166SAPS  H13R18744   4.243   2.120   5.178  1.2212  2.5499  1.5210
  166SAPS  H13S18745   4.278   2.223   5.039  1.6049 -0.2151  1.0807
  166SAPS  C21418746   4.087   2.131   5.025  0.1277  0.6520  0.5622
  166SAPS  H14R18747   4.064   2.026   5.045  1.0795  0.5508  1.2442
  166SAPS  C21518748   4.017   2.193   4.925 -0.2732  0.4384 -0.1328
  166SAPS  H15R18749   3.959   2.136   4.851 -0.8902  1.0253 -0.1147
  166SAPS  C21618750   4.036   2.337   4.883  0.2214 -0.9956 -0.1826
  166SAPS  H16R18751   4.140   2.334   4.846  1.2055 -0.4532  2.3645
  166SAPS  H16S18752   4.034   2.414   4.963 -0.2739 -1.9685  0.7719
  166SAPS  C21718753   3.947   2.386   4.768  0.2247  0.5768  0.5192
  166SAPS  H17R18754   3.839   2.379   4.790 -0.0495  0.4851 -0.7683
  166SAPS  H17S18755   3.958   2.319   4.680  0.7711  0.8096  0.4031
  166SAPS  C21818756   3.973   2.528   4.719  0.7750 -0.1712  0.1983
  166SAPS  H18R18757   4.074   2.552   4.680  1.0526 -0.6297  0.6110
  166SAPS  H18S18758   3.972   2.582   4.816  0.3837 -2.0528  1.2992
  166SAPS  C21918759   3.868   2.581   4.615  0.2506  0.4220  0.7731
  166SAPS  H19R18760   3.833   2.682   4.644 -0.5609 -0.2607  2.2793
  166SAPS  H19S18761   3.773   2.525   4.632  0.9059 -0.6281  1.1087
  166SAPS  C22018762   3.901   2.572   4.463 -0.1479  0.7240 -0.0453
  166SAPS  H20R18763   3.804   2.577   4.411 -0.5649 -1.5949  0.3932
  166SAPS  H20S18764   3.929   2.471   4.427 -0.3135  1.0737 -1.1725
  166SAPS  H20T18765   3.976   2.645   4.425  1.0701  0.3974  1.6091
  166SAPS   C3318766   3.799   2.342   5.930  0.0422 -0.0209 -0.7715
  166SAPS   H3X18767   3.857   2.336   5.835  0.3639  0.2372 -0.5959
  166SAPS   H3Y18768   3.825   2.421   6.004  1.2114  0.3554 -1.5504
  166SAPS   C3418769   3.646   2.370   5.893 -0.9412 -0.5039 -0.2607
  166SAPS   H4X18770   3.650   2.477   5.865  0.2934 -0.5339 -0.2553
  166SAPS   H4Y18771   3.578   2.371   5.981  1.2965  0.5670  1.5898
  166SAPS   C3518772   3.596   2.286   5.773 -0.4955  0.3589  0.2219
  166SAPS   H5X18773   3.486   2.304   5.773 -0.4598  0.5780 -0.3076
  166SAPS   H5Y18774   3.607   2.181   5.809  0.3874  0.0012 -1.0294
  166SAPS   C3618775   3.659   2.304   5.642  1.1100  0.0705 -0.3160
  166SAPS   H6X18776   3.765   2.294   5.674  0.1138 -1.1438  2.9344
  166SAPS   H6Y18777   3.645   2.407   5.603  1.3895  0.5255  0.7582
  166SAPS   C3718778   3.615   2.189   5.552 -0.0067  0.3240 -0.6022
  166SAPS   H7X18779   3.508   2.210   5.529 -0.8187  1.4930  3.3631
  166SAPS   H7Y18780   3.635   2.089   5.596  0.0306  0.7452  0.3609
  166SAPS   C3818781   3.694   2.182   5.426 -0.2973 -0.4090 -0.3180
  166SAPS   H8X18782   3.653   2.103   5.360 -0.4835 -0.9366  0.4188
  166SAPS   H8Y18783   3.802   2.163   5.445  0.4007  0.9386 -2.5866
  166SAPS   C3918784   3.684   2.312   5.342 -0.2806 -0.0699  0.5261
  166SAPS   H9X18785   3.731   2.398   5.395 -0.3463  1.3030 -1.5299
  166SAPS   H9Y18786   3.579   2.343   5.323 -0.2257 -0.2461 -0.0894
  166SAPS  C31018787   3.758   2.304   5.208 -0.0813 -0.4459  0.5741
  166SAPS  H10X18788   3.724   2.217   5.147  0.5489  0.8042 -1.6744
  166SAPS  H10Y18789   3.868   2.287   5.216  0.0170 -0.1855 -0.1949
  166SAPS  C31118790   3.735   2.418   5.120  0.1526  0.1164 -0.6535
  166SAPS  H11X18791   3.627   2.420   5.092 -0.3286 -2.6381  0.6319
  166SAPS  H11Y18792   3.795   2.412   5.027  2.1375 -1.5093  0.6456
  166SAPS  C31218793   3.766   2.562   5.184 -0.2841  0.8440 -0.0864
  166SAPS  H12X18794   3.858   2.558   5.246 -0.1270  0.5729 -0.3369
  166SAPS  H12Y18795   3.687   2.583   5.260 -0.7565 -2.5511  0.5197
  166SAPS  C31318796   3.799   2.663   5.071 -0.9297  0.3778  0.4938
  166SAPS  H13X18797   3.703   2.698   5.028 -1.8886 -3.9753 -1.4918
  166SAPS  H13Y18798   3.838   2.604   4.986  0.0098  0.7447  0.6612
  166SAPS  C31418799   3.881   2.785   5.125 -0.3233 -0.4025  0.5129
  166SAPS  H14X18800   3.964   2.743   5.187  0.1232  0.9155  0.8360
  166SAPS  H14Y18801   3.811   2.840   5.192 -0.9884 -1.1926  0.4764
  166SAPS  C31518802   3.939   2.872   5.007  0.2267 -0.3293 -0.0732
  166SAPS  H15X18803   3.851   2.903   4.946 -1.6943  1.3091  3.2079
  166SAPS  H15Y18804   3.987   2.800   4.938  0.7001 -0.0285 -0.0662
  166SAPS  C31618805   4.029   2.989   5.044 -0.2373  0.6256 -0.3643
  166SAPS  H16X18806   4.102   2.956   5.121 -0.9056 -2.2754 -0.8841
  166SAPS  H16Y18807   3.976   3.069   5.102  1.0327  1.3261 -0.1214
  166SAPS  C31718808   4.106   3.045   4.923 -0.1033 -0.0907 -0.0734
  166SAPS  H17X18809   4.036   3.081   4.844 -0.4866  0.1715  0.3779
  166SAPS  H17Y18810   4.154   2.957   4.876 -0.1399  0.6709 -1.5992
  166SAPS  C31818811   4.204   3.147   4.980  0.9800 -0.0044  0.0503
  166SAPS  H18X18812   4.155   3.236   5.024 -0.9280 -0.4795 -0.9966
  166SAPS  H18Y18813   4.286   3.169   4.909  1.5928 -0.4490  0.6072
  166SAPS  H18Z18814   4.257   3.090   5.060  1.1726  1.0277  0.6891
  167SAPS     N18815   6.521   3.183   7.005 -0.3508  0.7700 -0.1580
  167SAPS   HN118816   6.480   3.138   7.089 -0.0162  0.3970 -0.1940
  167SAPS   HN218817   6.436   3.215   6.955 -0.8742  0.5853  0.5889
  167SAPS   HN318818   6.563   3.107   6.949  1.5391  0.6646  1.2988
  167SAPS   C1218819   6.612   3.293   7.030 -0.0099  0.9117  0.2871
  167SAPS  H12A18820   6.634   3.358   6.947 -1.9605  1.1244 -0.1087
  167SAPS   C1318821   6.573   3.395   7.139 -0.4413  0.2755  0.9699
  167SAPS  O13A18822   6.466   3.374   7.208 -0.1603 -0.2818  0.9464
  167SAPS  O13B18823   6.644   3.496   7.151  0.1371  0.3728 -0.0230
  167SAPS   C1118824   6.742   3.222   7.098  0.2311 -0.4120 -0.1092
  167SAPS  H11A18825   6.696   3.169   7.184 -0.1348  1.9685  1.2549
  167SAPS  H11B18826   6.809   3.303   7.136  2.0853 -1.0215 -1.8714
  167SAPS     P18827   6.940   3.059   7.059  0.0270 -0.0383  0.6119
  167SAPS   O1318828   6.993   3.138   7.174 -0.2114 -0.3371  0.0882
  167SAPS   O1418829   6.901   2.917   7.079 -0.0769 -0.8786 -0.0513
  167SAPS   O1218830   6.811   3.137   7.007 -0.4131 -0.4281 -0.0932
  167SAPS   O1118831   7.042   3.062   6.939 -0.7208  0.1897 -0.1380
  167SAPS    C118832   7.072   3.181   6.864 -0.4176  0.0344  0.2655
  167SAPS    HA18833   7.018   3.269   6.904 -1.3097 -1.3882  2.3543
  167SAPS    HB18834   7.182   3.199   6.863 -0.5811  1.2392 -1.3280
  167SAPS    C218835   7.046   3.145   6.715  0.7335  0.0533 -0.1041
  167SAPS    HS18836   7.072   3.239   6.663  1.8158 -0.2451 -0.1417
  167SAPS   O2118837   6.908   3.115   6.703  0.0910  0.0215  0.1000
  167SAPS   C2118838   6.830   3.225   6.686 -0.1886 -0.1427 -0.6860
  167SAPS   O2218839   6.871   3.339   6.702  0.7066  0.6254 -0.1688
  167SAPS   C2218840   6.683   3.192   6.662 -0.5063 -0.1205 -0.2013
  167SAPS   H2R18841   6.671   3.103   6.597  0.7103  0.0712 -0.7190
  167SAPS   H2S18842   6.641   3.176   6.764  0.9328  0.3452  0.4989
  167SAPS    C318843   7.132   3.034   6.647 -0.0692 -0.1641  0.0019
  167SAPS    HX18844   7.092   2.939   6.688 -0.4852 -0.4880 -1.1111
  167SAPS    HY18845   7.238   3.037   6.679  0.2342 -0.9828 -0.8734
  167SAPS   O3118846   7.114   3.028   6.499  0.1131  0.3596  0.2610
  167SAPS   C3118847   7.210   3.081   6.427  0.8391 -0.6198 -0.0785
  167SAPS   O3218848   7.320   3.106   6.460 -1.5295 -0.3928 -0.7664
  167SAPS   C3218849   7.155   3.105   6.285  0.2974 -0.5411  0.2453
  167SAPS   H2X18850   7.078   3.182   6.305 -0.4237 -0.9241 -0.9467
  167SAPS   H2Y18851   7.103   3.012   6.253  1.9478 -1.5816  0.4460
  167SAPS   C2318852   6.603   3.307   6.597  0.5666 -0.3999 -0.2952
  167SAPS   H3R18853   6.628   3.406   6.642  0.0910 -1.6032  2.8755
  167SAPS   H3S18854   6.501   3.299   6.641  0.9854 -1.2270  0.5498
  167SAPS   C2418855   6.615   3.308   6.446 -0.2307  0.5914 -0.3429
  167SAPS   H4R18856   6.547   3.376   6.391  0.3307 -0.4441 -2.3850
  167SAPS   H4S18857   6.603   3.207   6.402 -0.4343  1.1650 -1.6239
  167SAPS   C2518858   6.748   3.360   6.406  0.4507 -0.5886  0.5900
  167SAPS   H5R18859   6.793   3.427   6.482 -0.0943  0.6855 -0.1854
  167SAPS   C2618860   6.802   3.355   6.286  1.2531  0.4722  0.3097
  167SAPS   H6R18861   6.905   3.394   6.288  0.9124  1.3985  1.0517
  167SAPS   C2718862   6.750   3.289   6.161  0.2435  0.8296  0.1823
  167SAPS   H7R18863   6.735   3.353   6.071  0.3850 -0.7153 -0.9708
  167SAPS   H7S18864   6.646   3.255   6.177  0.6179 -0.7123 -0.4733
  167SAPS   C2818865   6.832   3.168   6.111 -0.1899 -0.1177  0.1381
  167SAPS   H8R18866   6.906   3.114   6.173  0.0261 -0.1990 -0.1890
  167SAPS   C2918867   6.832   3.131   5.984 -0.1650  0.4014  0.3441
  167SAPS   H9R18868   6.886   3.041   5.952 -0.2032  1.2936 -2.5587
  167SAPS  C21018869   6.736   3.179   5.879 -0.0426  0.1652  0.3668
  167SAPS  H10R18870   6.784   3.262   5.823  1.6389 -2.4952 -2.4376
  167SAPS  H10S18871   6.642   3.215   5.925  0.4728  1.8102  0.1929
  167SAPS  C21118872   6.705   3.059   5.792  0.1784 -0.0005  0.0263
  167SAPS  H11R18873   6.783   2.984   5.775 -0.3565 -0.9175  1.3828
  167SAPS  C21218874   6.589   3.041   5.731  0.3204  0.6837  0.1220
  167SAPS  H12R18875   6.585   2.959   5.658 -1.7485  0.7355  0.1332
  167SAPS  C21318876   6.466   3.130   5.733 -0.5144  1.2355 -0.3586
  167SAPS  H13R18877   6.426   3.131   5.629 -1.0292 -2.0594 -0.3263
  167SAPS  H13S18878   6.491   3.234   5.761  0.8508  0.9675 -0.5210
  167SAPS  C21418879   6.353   3.077   5.825  0.0162 -0.4482  0.2806
  167SAPS  H14R18880   6.376   3.087   5.932 -1.2523 -0.0503  0.5434
  167SAPS  C21518881   6.236   3.028   5.792 -0.5152 -0.0018  0.1965
  167SAPS  H15R18882   6.177   2.989   5.876 -2.4781  1.0219 -0.6210
  167SAPS  C21618883   6.184   2.992   5.655  0.1316  0.1134 -0.0892
  167SAPS  H16R18884   6.215   3.064   5.576  2.0284 -1.5480 -0.9584
  167SAPS  H16S18885   6.073   2.988   5.653  0.0446 -0.4993 -4.8988
  167SAPS  C21718886   6.226   2.850   5.608 -0.3381 -0.3028 -0.4493
  167SAPS  H17R18887   6.332   2.848   5.574  0.0447 -0.8020  0.7264
  167SAPS  H17S18888   6.157   2.829   5.524 -0.7618 -0.3106 -0.0980
  167SAPS  C21818889   6.227   2.736   5.707 -0.8291 -0.4765  0.0896
  167SAPS  H18R18890   6.131   2.744   5.761 -0.4649  2.1107  0.4731
  167SAPS  H18S18891   6.307   2.763   5.780  0.3807  0.5988 -1.5626
  167SAPS  C21918892   6.250   2.598   5.644  0.2524 -0.2959  0.0798
  167SAPS  H19R18893   6.263   2.529   5.729 -1.0197 -0.1194  0.4450
  167SAPS  H19S18894   6.344   2.601   5.586 -0.5038  0.4080 -1.1681
  167SAPS  C22018895   6.139   2.545   5.550  0.0777  0.3537 -0.2202
  167SAPS  H20R18896   6.120   2.610   5.462 -0.3455  2.3591  1.2721
  167SAPS  H20S18897   6.044   2.541   5.608  0.9203  0.3858  1.2242
  167SAPS  H20T18898   6.156   2.443   5.509 -3.6396  0.4890 -2.4924
  167SAPS   C3318899   7.262   3.150   6.195  0.2936  0.0828  0.1074
  167SAPS   H3X18900   7.334   3.066   6.178  0.3035  0.0509  0.3072
  167SAPS   H3Y18901   7.321   3.234   6.238 -3.0428  3.5461 -1.5344
  167SAPS   C3418902   7.206   3.194   6.057  0.7744 -0.1063 -0.2964
  167SAPS   H4X18903   7.154   3.291   6.061 -0.1053 -0.5510 -0.6548
  167SAPS   H4Y18904   7.122   3.131   6.021 -0.1356  0.9127  0.0024
  167SAPS   C3518905   7.316   3.195   5.950 -0.6769  0.0661 -0.5991
  167SAPS   H5X18906   7.346   3.088   5.947 -0.0279  0.2318 -0.0462
  167SAPS   H5Y18907   7.406   3.250   5.986 -0.0592 -0.6674 -1.0094
  167SAPS   C3618908   7.265   3.241   5.819 -0.5337 -0.6865  0.2450
  167SAPS   H6X18909   7.276   3.351   5.826 -0.0115 -0.7129 -0.0650
  167SAPS   H6Y18910   7.160   3.214   5.795  0.0499 -1.9363 -1.1025
  167SAPS   C3718911   7.339   3.192   5.698 -0.8741 -0.6202 -0.7691
  167SAPS   H7X18912   7.335   3.082   5.684  1.4471 -0.6872 -1.4026
  167SAPS   H7Y18913   7.447   3.211   5.716 -1.0683  0.5032 -0.7197
  167SAPS   C3818914   7.288   3.256   5.571 -0.3081  0.7846  0.5613
  167SAPS   H8X18915   7.286   3.366   5.583  1.7073  1.2134 -1.9305
  167SAPS   H8Y18916   7.185   3.218   5.554  0.3445 -0.4470 -1.0415
  167SAPS   C3918917   7.378   3.241   5.450 -0.3670 -0.0869  0.2423
  167SAPS   H9X18918   7.369   3.136   5.415  1.2282  0.7108 -2.8727
  167SAPS   H9Y18919   7.480   3.271   5.483 -0.7679 -0.5835  2.0462
  167SAPS  C31018920   7.338   3.316   5.325  0.1514 -0.1539 -0.2027
  167SAPS  H10X18921   7.317   3.420   5.359 -0.7033 -0.3644 -0.0607
  167SAPS  H10Y18922   7.251   3.258   5.287 -1.0583 -0.1722  2.3887
  167SAPS  C31118923   7.448   3.334   5.223  0.1028  0.0576  0.2899
  167SAPS  H11X18924   7.479   3.230   5.196  0.1068  0.3071 -0.7052
  167SAPS  H11Y18925   7.534   3.391   5.265 -0.2830 -0.1439  1.3884
  167SAPS  C31218926   7.401   3.390   5.091 -0.1504 -0.4183  0.0567
  167SAPS  H12X18927   7.483   3.399   5.016 -1.0976 -1.4324 -1.1495
  167SAPS  H12Y18928   7.358   3.490   5.111  1.3745  0.3126 -0.1995
  167SAPS  C31318929   7.295   3.309   5.020 -0.2226  0.0541  0.2396
  167SAPS  H13X18930   7.277   3.362   4.924  0.4099 -1.8163 -0.9724
  167SAPS  H13Y18931   7.205   3.321   5.084 -0.9699 -1.4395 -0.4816
  167SAPS  C31418932   7.325   3.159   4.994  0.1810  0.3998  0.2314
  167SAPS  H14X18933   7.299   3.096   5.082 -0.5056 -2.4143 -1.8380
  167SAPS  H14Y18934   7.430   3.128   4.979 -0.1460 -0.9416  0.6221
  167SAPS  C31518935   7.246   3.100   4.877 -0.1668  0.1063 -1.0218
  167SAPS  H15X18936   7.251   3.161   4.784  1.8531  1.1371 -0.3062
  167SAPS  H15Y18937   7.137   3.098   4.894 -0.2908  0.4490 -1.7308
  167SAPS  C31618938   7.277   2.949   4.846  0.8332 -0.0217 -0.0823
  167SAPS  H16X18939   7.276   2.885   4.937  1.1213 -2.0554 -1.4299
  167SAPS  H16Y18940   7.383   2.958   4.814  0.6486  0.0507 -0.6988
  167SAPS  C31718941   7.195   2.897   4.732  0.1343  0.6539  0.0689
  167SAPS  H17X18942   7.184   2.985   4.666 -2.8414  0.0637 -0.3880
  167SAPS  H17Y18943   7.088   2.879   4.758  0.3487 -0.6229  0.1575
  167SAPS  C31818944   7.260   2.779   4.664 -0.4643 -0.7596 -0.4958
  167SAPS  H18X18945   7.199   2.747   4.577  0.2362 -1.4116 -0.7586
  167SAPS  H18Y18946   7.261   2.691   4.731  0.6177 -1.2760 -1.1553
  167SAPS  H18Z18947   7.364   2.801   4.630 -1.0558  0.7457 -1.4253
  168SAPS     N18948   4.654   2.807   7.065  0.2731 -0.2096  0.2866
  168SAPS   HN118949   4.575   2.838   7.126  0.9977  1.6423  0.3411
  168SAPS   HN218950   4.693   2.712   7.079  2.2205  0.4174 -0.5432
  168SAPS   HN318951   4.728   2.880   7.076 -1.2873  1.1195  3.3692
  168SAPS   C1218952   4.590   2.814   6.932 -0.3697 -1.1337  0.2509
  168SAPS  H12A18953   4.515   2.736   6.927 -0.7108 -0.9719  2.0638
  168SAPS   C1318954   4.509   2.945   6.912 -0.3011 -0.6220 -0.7898
  168SAPS  O13A18955   4.508   3.044   6.998  0.3095  0.4808  0.0055
  168SAPS  O13B18956   4.436   2.952   6.808 -0.4758  0.4540 -0.2147
  168SAPS   C1118957   4.713   2.812   6.825 -0.5931 -0.2292  0.5308
  168SAPS  H11A18958   4.759   2.913   6.821  0.7887 -0.8277  0.7620
  168SAPS  H11B18959   4.675   2.797   6.722 -0.0253  0.6278  0.1895
  168SAPS     P18960   4.972   2.741   6.836 -0.4796  0.1002 -0.4186
  168SAPS   O1318961   5.012   2.859   6.916 -0.2762 -0.5694  0.6313
  168SAPS   O1418962   5.039   2.616   6.883 -0.2595 -0.1881 -0.0305
  168SAPS   O1218963   4.815   2.713   6.853  0.9392 -0.1976 -0.0346
  168SAPS   O1118964   4.985   2.762   6.681  0.1580 -0.0067  0.2890
  168SAPS    C118965   4.971   2.647   6.602 -0.5456 -0.2258 -0.0983
  168SAPS    HA18966   5.061   2.581   6.600 -0.7667 -0.5711  0.8732
  168SAPS    HB18967   4.877   2.593   6.627 -1.1997  0.5529 -0.8300
  168SAPS    C218968   4.939   2.704   6.458 -0.0976 -0.0380  0.2297
  168SAPS    HS18969   4.938   2.619   6.386 -0.6062  0.2320 -0.0898
  168SAPS   O2118970   5.044   2.791   6.406  0.2193 -0.3389  0.0394
  168SAPS   C2118971   5.158   2.727   6.372  0.0263  0.1270 -1.1112
  168SAPS   O2218972   5.175   2.608   6.372  0.1956  0.2128 -0.2279
  168SAPS   C2218973   5.258   2.831   6.348 -0.5534  0.5962 -0.5577
  168SAPS   H2R18974   5.206   2.919   6.305 -2.2197 -1.3471 -2.7604
  168SAPS   H2S18975   5.298   2.864   6.446 -0.1984  0.5299 -0.6793
  168SAPS    C318976   4.804   2.776   6.468  0.3353 -0.1295 -0.3755
  168SAPS    HX18977   4.804   2.849   6.551 -2.4511 -0.3969 -0.0455
  168SAPS    HY18978   4.729   2.703   6.506 -0.7885  2.1099  2.0132
  168SAPS   O3118979   4.770   2.836   6.344 -0.9534 -0.2390 -0.2281
  168SAPS   C3118980   4.644   2.882   6.337  0.4168  1.2482 -0.3856
  168SAPS   O3218981   4.566   2.868   6.428  0.1116  0.1698  0.0775
  168SAPS   C3218982   4.612   2.919   6.195  0.1526 -0.2058 -0.2447
  168SAPS   H2X18983   4.544   2.839   6.160 -2.0938  1.6877 -0.4560
  168SAPS   H2Y18984   4.706   2.908   6.138  1.2490 -0.3278  1.4933
  168SAPS   C2318985   5.368   2.785   6.245  0.0339  0.4022 -0.2438
  168SAPS   H3R18986   5.313   2.759   6.152 -1.7475  0.4570  0.7466
  168SAPS   H3S18987   5.400   2.693   6.299 -0.9273 -0.5071 -1.1669
  168SAPS   C2418988   5.479   2.894   6.216 -0.5259 -0.5218 -0.8343
  168SAPS   H4R18989   5.557   2.853   6.149 -0.1045  0.3698 -0.8970
  168SAPS   H4S18990   5.515   2.929   6.315 -0.9848 -0.3757 -0.7162
  168SAPS   C2518991   5.434   3.024   6.153 -0.1690  0.3465 -0.4561
  168SAPS   H5R18992   5.416   3.108   6.220  2.4052  0.6426 -0.0240
  168SAPS   C2618993   5.421   3.064   6.023 -0.3218 -0.4957  0.3154
  168SAPS   H6R18994   5.385   3.157   5.978 -1.5332 -1.7074 -1.3649
  168SAPS   C2718995   5.442   2.971   5.905 -0.1279 -0.5105 -0.4092
  168SAPS   H7R18996   5.339   2.941   5.877 -0.1053  1.1389 -2.5145
  168SAPS   H7S18997   5.492   2.876   5.935  2.2191  1.3091  1.9045
  168SAPS   C2818998   5.507   3.035   5.786 -0.3206 -1.0841  0.2399
  168SAPS   H8R18999   5.603   3.084   5.809 -0.4960  0.0559 -1.2776
  168SAPS   C2919000   5.451   3.054   5.662 -0.1295 -0.2304  0.8385
  168SAPS   H9R19001   5.510   3.107   5.586 -1.7061 -0.9542 -0.9828
  168SAPS  C21019002   5.320   3.000   5.621 -0.3279 -0.4607  0.4398
  168SAPS  H10R19003   5.249   2.991   5.705 -0.7559  1.4839  0.3299
  168SAPS  H10S19004   5.338   2.899   5.578 -1.2121 -0.1719 -0.6615
  168SAPS  C21119005   5.247   3.078   5.519 -0.4560 -0.8098  0.4164
  168SAPS  H11R19006   5.229   3.182   5.552  1.1645 -0.3061 -0.1546
  168SAPS  C21219007   5.217   3.062   5.386 -0.9333 -0.3305  0.0323
  168SAPS  H12R19008   5.167   3.147   5.338 -0.7597 -0.5567 -0.5617
  168SAPS  C21319009   5.231   2.935   5.304 -0.2462 -0.2216  0.7461
  168SAPS  H13R19010   5.336   2.898   5.303 -1.2816 -3.5423  1.0957
  168SAPS  H13S19011   5.206   2.956   5.197 -1.0432  1.7766  1.2871
  168SAPS  C21419012   5.152   2.821   5.354  0.3941  0.1706  0.4045
  168SAPS  H14R19013   5.207   2.763   5.430  0.3746  2.4926  2.2839
  168SAPS  C21519014   5.025   2.787   5.324 -0.2111 -0.1150  0.5856
  168SAPS  H15R19015   4.982   2.695   5.367  0.2119 -1.1734 -1.1587
  168SAPS  C21619016   4.924   2.857   5.232 -0.3153  0.3247 -0.1040
  168SAPS  H16R19017   4.961   2.959   5.212  0.9899  0.3022  1.8697
  168SAPS  H16S19018   4.825   2.863   5.283 -1.7631 -0.4948 -2.6609
  168SAPS  C21719019   4.893   2.783   5.099 -0.1754  0.2755 -0.2535
  168SAPS  H17R19020   4.821   2.849   5.044 -0.4850 -0.8507 -1.2312
  168SAPS  H17S19021   4.838   2.688   5.115  0.6923 -0.4736 -1.5243
  168SAPS  C21819022   5.023   2.740   5.019 -0.1995  0.2005 -0.4330
  168SAPS  H18R19023   5.082   2.664   5.075  0.0829  0.3526 -0.5199
  168SAPS  H18S19024   5.087   2.830   5.012  1.1930 -0.3695  3.0048
  168SAPS  C21919025   4.976   2.690   4.874 -0.2052 -0.1324 -0.1847
  168SAPS  H19R19026   4.898   2.759   4.835  2.4004  2.7859 -0.6642
  168SAPS  H19S19027   4.937   2.586   4.867  1.1744 -0.8416  1.7638
  168SAPS  C22019028   5.092   2.715   4.782 -0.0400 -0.0655  0.2216
  168SAPS  H20R19029   5.181   2.655   4.811  1.4415  1.5426 -0.7760
  168SAPS  H20S19030   5.106   2.822   4.757 -0.9004 -0.3019 -1.4773
  168SAPS  H20T19031   5.070   2.674   4.680  0.7272 -0.9343  0.3931
  168SAPS   C3319032   4.544   3.055   6.189 -1.0857  0.2121  0.4328
  168SAPS   H3X19033   4.610   3.132   6.234 -1.8448 -0.3706  2.6568
  168SAPS   H3Y19034   4.447   3.055   6.243 -0.4557 -2.0706  1.7244
  168SAPS   C3419035   4.508   3.098   6.041  0.2450 -0.1052 -0.3076
  168SAPS   H4X19036   4.437   3.027   5.994 -2.5336  3.7778 -2.5000
  168SAPS   H4Y19037   4.607   3.096   5.991  0.2756 -2.0422 -0.2458
  168SAPS   C3519038   4.448   3.242   6.031  0.1495 -0.1488  1.0162
  168SAPS   H5X19039   4.517   3.324   6.059 -0.3265  0.7291 -0.2834
  168SAPS   H5Y19040   4.360   3.243   6.099  0.2973  1.3676  1.2057
  168SAPS   C3619041   4.415   3.284   5.889 -0.5551  0.0082 -0.4171
  168SAPS   H6X19042   4.324   3.246   5.838  1.2820 -1.9283 -2.4718
  168SAPS   H6Y19043   4.494   3.270   5.812 -1.1912  2.7900 -1.7139
  168SAPS   C3719044   4.389   3.441   5.884 -0.2354  0.5150  0.4082
  168SAPS   H7X19045   4.481   3.492   5.919  1.0222 -0.6740 -1.0252
  168SAPS   H7Y19046   4.303   3.467   5.950 -1.3725 -0.1536 -0.7712
  168SAPS   C3819047   4.354   3.496   5.750 -0.2489 -0.0963 -0.4497
  168SAPS   H8X19048   4.255   3.452   5.727 -0.5485 -0.4321  1.3966
  168SAPS   H8Y19049   4.431   3.462   5.677  1.5546  0.8483  0.9336
  168SAPS   C3919050   4.367   3.655   5.749  0.1972  0.0403  0.1832
  168SAPS   H9X19051   4.474   3.684   5.753 -0.6978  3.9275 -0.5066
  168SAPS   H9Y19052   4.319   3.682   5.846 -1.2576 -0.8627 -0.2414
  168SAPS  C31019053   4.301   3.728   5.630 -0.6005 -0.8085 -0.4076
  168SAPS  H10X19054   4.279   3.833   5.657 -1.6652 -1.2872  0.6806
  168SAPS  H10Y19055   4.201   3.681   5.612 -1.3923  0.7576 -0.2107
  168SAPS  C31119056   4.388   3.716   5.498  0.7883  0.5535 -0.2332
  168SAPS  H11X19057   4.419   3.609   5.498 -1.3840 -0.1240 -0.3940
  168SAPS  H11Y19058   4.478   3.780   5.501  0.4111  1.1132  3.4556
  168SAPS  C31219059   4.296   3.743   5.382  0.3655  0.3869 -0.0422
  168SAPS  H12X19060   4.282   3.853   5.369 -0.4228  0.1858 -1.1091
  168SAPS  H12Y19061   4.192   3.705   5.389  0.7962 -0.9123 -0.5199
  168SAPS  C31319062   4.352   3.682   5.249 -0.9074  0.5372 -0.4585
  168SAPS  H13X19063   4.392   3.582   5.275 -0.4863  1.0483  0.9069
  168SAPS  H13Y19064   4.442   3.748   5.242 -1.0997  0.9094  0.4332
  168SAPS  C31419065   4.273   3.701   5.118  0.2052  0.5028  0.3755
  168SAPS  H14X19066   4.344   3.699   5.033 -0.0013  3.0956  0.0675
  168SAPS  H14Y19067   4.236   3.806   5.115  1.0255  0.8009  0.2929
  168SAPS  C31519068   4.157   3.598   5.106  0.7111  0.2859  0.4910
  168SAPS  H15X19069   4.062   3.656   5.110  1.1451  1.0016  0.5423
  168SAPS  H15Y19070   4.155   3.546   5.204  0.0520  0.1732  0.4235
  168SAPS  C31619071   4.166   3.507   4.989 -0.2175  0.1218 -0.5643
  168SAPS  H16X19072   4.084   3.432   4.982  0.0875 -0.2502 -0.2669
  168SAPS  H16Y19073   4.259   3.447   4.996 -0.4213 -0.1564 -0.2361
  168SAPS  C31719074   4.162   3.576   4.850 -0.5119  0.5539 -0.3498
  168SAPS  H17X19075   4.250   3.643   4.861 -1.8599  1.9941  3.1642
  168SAPS  H17Y19076   4.068   3.633   4.834 -0.3297  1.1691  0.7193
  168SAPS  C31819077   4.177   3.481   4.730  0.0665 -0.1922 -0.3673
  168SAPS  H18X19078   4.196   3.537   4.635 -0.3063 -0.6435 -0.7122
  168SAPS  H18Y19079   4.093   3.412   4.708  1.0257 -1.3834 -0.4048
  168SAPS  H18Z19080   4.261   3.411   4.747 -1.4044 -1.8614  0.3244
  169SAPS     N19081   0.504   4.506   6.508 -0.2461 -0.1156  0.1283
  169SAPS   HN119082   0.603   4.486   6.483  0.2559  0.4855  1.5084
  169SAPS   HN219083   0.472   4.420   6.558  1.8484 -0.0328  1.7710
  169SAPS   HN319084   0.450   4.525   6.422  0.3336  1.0721  0.0112
  169SAPS   C1219085   0.487   4.612   6.605 -0.1492 -1.0340  0.3199
  169SAPS  H12A19086   0.384   4.609   6.639 -0.2427  1.1553  0.3820
  169SAPS   C1319087   0.581   4.625   6.724 -0.8306  0.2680  0.0492
  169SAPS  O13A19088   0.686   4.549   6.716  0.8516 -0.4041  0.3916
  169SAPS  O13B19089   0.575   4.701   6.822  0.6945 -0.1208  0.2780
  169SAPS   C1119090   0.504   4.752   6.546  0.0456  0.0025  0.2440
  169SAPS  H11A19091   0.598   4.753   6.487  0.6379  0.5780  1.1739
  169SAPS  H11B19092   0.496   4.843   6.610  0.0059 -0.0347  0.2927
  169SAPS     P19093   0.244   4.806   6.490 -0.5848 -0.1851 -0.0550
  169SAPS   O1319094   0.200   4.704   6.587  0.0618  0.2743 -0.1493
  169SAPS   O1419095   0.247   4.953   6.524  0.8041  0.4825 -0.1769
  169SAPS   O1219096   0.397   4.768   6.456  0.0600 -0.1635 -0.0686
  169SAPS   O1119097   0.180   4.779   6.353  0.5091  0.6795  0.5038
  169SAPS    C119098   0.141   4.651   6.308  0.3775  0.4849 -0.6032
  169SAPS    HA19099   0.195   4.573   6.365  0.4680  0.9493 -0.0456
  169SAPS    HB19100   0.033   4.631   6.325  0.1146  1.7446 -0.7424
  169SAPS    C219101   0.170   4.633   6.152 -0.2814  0.4493  0.5122
  169SAPS    HS19102   0.150   4.527   6.124  0.0299  0.0107  1.8818
  169SAPS   O2119103   0.306   4.673   6.114 -0.2103 -0.0071  0.1861
  169SAPS   C2119104   0.405   4.616   6.169 -0.3381  0.5153 -0.1396
  169SAPS   O2219105   0.414   4.536   6.262  0.2489  0.2064 -0.1906
  169SAPS   C2219106   0.531   4.673   6.104 -0.1113 -0.8575  0.1114
  169SAPS   H2R19107   0.524   4.694   5.995  2.3962 -0.3468  0.0027
  169SAPS   H2S19108   0.555   4.771   6.150 -0.0074 -0.4325 -0.8137
  169SAPS    C319109   0.066   4.722   6.075  0.7726  0.2714 -0.3791
  169SAPS    HX19110   0.071   4.826   6.113 -3.5002  0.2500  0.7972
  169SAPS    HY19111  -0.038   4.687   6.093  1.1088 -1.9686 -2.2979
  169SAPS   O3119112   0.096   4.703   5.934  0.2788 -0.0728 -0.1733
  169SAPS   C3119113   0.133   4.814   5.863  0.1156  0.9518 -0.4281
  169SAPS   O3219114   0.115   4.927   5.899  0.0601 -0.4260  0.9994
  169SAPS   C3219115   0.211   4.756   5.744 -0.2235  0.3573 -0.0165
  169SAPS   H2X19116   0.265   4.662   5.771  1.5420  1.1975 -0.5247
  169SAPS   H2Y19117   0.287   4.830   5.713  0.7591  0.0653  1.6013
  169SAPS   C2319118   0.657   4.587   6.124  0.2641  0.4276 -1.0033
  169SAPS   H3R19119   0.652   4.506   6.047 -2.8659 -0.3762 -0.1152
  169SAPS   H3S19120   0.653   4.543   6.226  0.3402  1.4132 -0.5661
  169SAPS   C2419121   0.783   4.665   6.094 -0.1412  0.1731 -0.0431
  169SAPS   H4R19122   0.781   4.746   6.171  1.9493  0.9184 -0.6767
  169SAPS   H4S19123   0.787   4.706   5.991  5.0615 -0.9268 -0.5718
  169SAPS   C2519124   0.898   4.574   6.126  0.6469  0.0582  0.0662
  169SAPS   H5R19125   0.890   4.513   6.217 -1.3893  2.1242  1.3817
  169SAPS   C2619126   0.991   4.531   6.037  0.3556  0.4602 -0.1131
  169SAPS   H6R19127   1.051   4.440   6.051  0.5607  0.5936 -0.1401
  169SAPS   C2719128   1.024   4.585   5.900 -0.3014 -0.2556  0.9965
  169SAPS   H7R19129   0.942   4.643   5.852 -0.9072 -1.5203  0.4714
  169SAPS   H7S19130   1.048   4.514   5.819  1.1291  2.3493 -1.0193
  169SAPS   C2819131   1.149   4.667   5.909 -0.4198 -0.2052 -0.0129
  169SAPS   H8R19132   1.175   4.688   6.014 -2.4549 -1.2181  0.7386
  169SAPS   C2919133   1.226   4.718   5.803 -0.0978 -0.2051 -0.2459
  169SAPS   H9R19134   1.318   4.772   5.831 -0.2253  0.4979 -1.1128
  169SAPS  C21019135   1.205   4.717   5.653  0.1650  0.0335  0.2854
  169SAPS  H10R19136   1.124   4.641   5.649 -2.5606  2.6462  1.9044
  169SAPS  H10S19137   1.294   4.670   5.605 -1.5905  1.4113 -5.0839
  169SAPS  C21119138   1.167   4.849   5.597 -0.7436 -1.3696  0.2785
  169SAPS  H11R19139   1.161   4.932   5.669 -0.0711 -3.1715  2.5326
  169SAPS  C21219140   1.127   4.869   5.469  0.0754 -0.7265 -1.4230
  169SAPS  H12R19141   1.092   4.967   5.435  0.3753  0.1715  0.6583
  169SAPS  C21319142   1.125   4.767   5.356  0.0562 -0.0373 -0.4941
  169SAPS  H13R19143   1.179   4.678   5.397 -1.6640 -0.2854  1.4282
  169SAPS  H13S19144   1.189   4.804   5.273 -0.7966  1.5332 -0.4741
  169SAPS  C21419145   0.988   4.731   5.312  0.6769  0.2015 -0.5913
  169SAPS  H14R19146   0.912   4.736   5.391  0.7945  1.3991 -0.5401
  169SAPS  C21519147   0.954   4.695   5.182  0.0135 -0.6138 -0.0227
  169SAPS  H15R19148   0.851   4.660   5.169 -0.7590  1.3792  0.2768
  169SAPS  C21619149   1.048   4.691   5.066 -0.1147  0.7820  0.1689
  169SAPS  H16R19150   0.991   4.622   5.000 -1.8990  1.6911  0.7212
  169SAPS  H16S19151   1.140   4.637   5.100 -0.3193  1.9061  2.6916
  169SAPS  C21719152   1.061   4.834   5.004 -0.4204  0.0983  0.3019
  169SAPS  H17R19153   1.094   4.901   5.087  1.4266 -0.3233 -0.0439
  169SAPS  H17S19154   0.955   4.860   4.981 -0.3085  2.6741  2.2155
  169SAPS  C21819155   1.146   4.843   4.873 -0.2499  0.2692  0.2819
  169SAPS  H18R19156   1.250   4.809   4.891  0.6724  2.1520 -1.1916
  169SAPS  H18S19157   1.146   4.945   4.830 -1.4210 -0.5851 -1.8674
  169SAPS  C21919158   1.089   4.733   4.778 -0.6234  0.8114  0.2668
  169SAPS  H19R19159   0.980   4.748   4.772 -0.5507  1.3627  0.2696
  169SAPS  H19S19160   1.110   4.636   4.828 -0.9226  0.4106 -0.3769
  169SAPS  C22019161   1.165   4.735   4.652  0.0124 -0.1179  0.1579
  169SAPS  H20R19162   1.271   4.704   4.665 -0.0988 -0.2357  0.7691
  169SAPS  H20S19163   1.168   4.837   4.606  0.5257 -0.1038  0.2152
  169SAPS  H20T19164   1.116   4.669   4.577  1.0863 -0.0231 -0.6542
  169SAPS   C3319165   0.118   4.719   5.623  0.3806  0.2950  0.7289
  169SAPS   H3X19166   0.040   4.660   5.674 -0.7397  0.2333 -0.9706
  169SAPS   H3Y19167   0.174   4.649   5.557 -0.4230  0.9797 -0.7389
  169SAPS   C3419168   0.071   4.835   5.544  0.5344 -0.5870  0.5341
  169SAPS   H4X19169   0.150   4.905   5.511 -0.0327 -0.5971 -0.9018
  169SAPS   H4Y19170   0.007   4.897   5.611 -2.5930 -2.1652 -0.7932
  169SAPS   C3519171  -0.030   4.815   5.425  0.5411 -0.1652 -0.0545
  169SAPS   H5X19172  -0.084   4.912   5.418  1.0323  0.0326 -1.2000
  169SAPS   H5Y19173  -0.107   4.736   5.439  0.3054 -0.0058 -0.4276
  169SAPS   C3619174   0.031   4.779   5.297 -0.2562 -0.1847 -0.2872
  169SAPS   H6X19175   0.089   4.684   5.299 -0.9694 -0.6427 -0.9285
  169SAPS   H6Y19176   0.107   4.854   5.267  0.2013 -0.1350  0.9144
  169SAPS   C3719177  -0.067   4.775   5.178 -0.0807  0.1135 -0.1582
  169SAPS   H7X19178  -0.137   4.861   5.184 -0.0225  0.1719 -0.3223
  169SAPS   H7Y19179  -0.138   4.691   5.197 -0.4965  0.6158  0.5356
  169SAPS   C3819180  -0.012   4.754   5.038 -0.0530 -0.1975  0.8741
  169SAPS   H8X19181  -0.096   4.724   4.972 -0.0690  3.1700 -0.8066
  169SAPS   H8Y19182   0.072   4.681   5.043  0.7913  0.6793 -0.0845
  169SAPS   C3919183   0.056   4.878   4.981 -0.3827 -0.1059  0.4027
  169SAPS   H9X19184   0.162   4.882   5.011  0.3706 -1.3780 -1.8343
  169SAPS   H9Y19185   0.013   4.975   5.015  0.8677  0.5031  0.2861
  169SAPS  C31019186   0.046   4.883   4.828  0.6162  0.2318 -0.1374
  169SAPS  H10X19187   0.075   4.982   4.787  0.2298 -0.1261 -1.3101
  169SAPS  H10Y19188  -0.059   4.857   4.802  0.2750 -0.5685  1.8363
  169SAPS  C31119189   0.147   4.781   4.770  0.3996  0.2905 -0.5463
  169SAPS  H11X19190   0.109   4.680   4.797 -1.5538  1.2393  0.5105
  169SAPS  H11Y19191   0.245   4.798   4.821  0.2678  2.1843 -0.8381
  169SAPS  C31219192   0.147   4.782   4.620  0.8165 -0.2788  0.3140
  169SAPS  H12X19193   0.182   4.879   4.579 -1.3763  0.5287  0.2243
  169SAPS  H12Y19194   0.042   4.775   4.584  1.1603 -0.3523 -0.7031
  169SAPS  C31319195   0.217   4.670   4.549 -1.2721  0.0997  0.3417
  169SAPS  H13X19196   0.168   4.580   4.591  1.2670 -0.2695  2.9019
  169SAPS  H13Y19197   0.326   4.649   4.561 -0.9852 -0.7923 -2.9844
  169SAPS  C31419198   0.202   4.662   4.392  0.0464  0.7978  0.5927
  169SAPS  H14X19199   0.267   4.584   4.347  0.5337  1.4067  0.2396
  169SAPS  H14Y19200   0.258   4.747   4.349  1.0004 -0.3459 -0.5185
  169SAPS  C31519201   0.052   4.640   4.345 -0.5653  0.5833 -0.0843
  169SAPS  H15X19202  -0.018   4.719   4.382 -0.7639 -1.6079  5.1420
  169SAPS  H15Y19203   0.015   4.545   4.388 -0.0930 -0.6871 -2.3490
  169SAPS  C31619204   0.029   4.644   4.197 -0.1087 -0.1442  0.3902
  169SAPS  H16X19205  -0.076   4.610   4.184  0.3649 -2.8590  2.7177
  169SAPS  H16Y19206   0.085   4.569   4.138 -0.9138  0.2093 -0.8529
  169SAPS  C31719207   0.068   4.787   4.139  0.5250  0.0813 -0.9361
  169SAPS  H17X19208   0.179   4.786   4.153  0.3283 -1.4169  0.8454
  169SAPS  H17Y19209   0.023   4.863   4.205  2.6569  0.3725  0.2697
  169SAPS  C31819210   0.036   4.805   3.994 -0.1509 -0.1085 -0.6708
  169SAPS  H18X19211   0.110   4.759   3.926  0.0215 -3.3656  1.4978
  169SAPS  H18Y19212   0.040   4.914   3.969  3.9606  0.2692  0.9674
  169SAPS  H18Z19213  -0.064   4.763   3.969 -0.2940  0.5830 -1.3102
  170SAPS     N19214   0.522   3.828   7.140  0.2705 -0.4393  0.5535
  170SAPS   HN119215   0.605   3.771   7.166  1.5952  0.9047 -0.5444
  170SAPS   HN219216   0.504   3.907   7.205  0.8543 -0.3753  0.6444
  170SAPS   HN319217   0.431   3.778   7.137  0.3500 -0.5532 -1.3120
  170SAPS   C1219218   0.535   3.890   6.998 -0.3044 -0.5194 -0.0625
  170SAPS  H12A19219   0.626   3.947   6.984  0.3720 -1.8779 -1.5173
  170SAPS   C1319220   0.523   3.794   6.876  0.3114  0.3170 -0.2169
  170SAPS  O13A19221   0.508   3.674   6.903  0.1432  0.3133 -0.1947
  170SAPS  O13B19222   0.569   3.832   6.763  1.1168  0.6575  0.4972
  170SAPS   C1119223   0.432   4.006   6.975 -0.5727  0.0765  0.3046
  170SAPS  H11A19224   0.457   4.048   6.875  1.5299  0.5793  0.9823
  170SAPS  H11B19225   0.453   4.084   7.052 -0.6344 -0.0063  0.4048
  170SAPS     P19226   0.177   4.045   6.922  0.5926 -0.2975 -0.3767
  170SAPS   O1319227   0.049   3.971   6.948  0.8758  0.1748 -0.1035
  170SAPS   O1419228   0.174   4.189   6.962 -0.4165  0.3397  0.4595
  170SAPS   O1219229   0.294   3.967   6.992  0.2379  1.0519 -0.8721
  170SAPS   O1119230   0.202   4.042   6.767  0.2776  0.7936 -0.5370
  170SAPS    C119231   0.217   3.908   6.720 -0.3746  0.4522  0.0648
  170SAPS    HA19232   0.322   3.889   6.689 -0.8694 -0.3969 -1.1947
  170SAPS    HB19233   0.193   3.824   6.789  2.6306 -0.5707 -0.0137
  170SAPS    C219234   0.132   3.886   6.588  0.3991  0.0125  0.1223
  170SAPS    HS19235   0.150   3.784   6.548  0.7883  0.6779 -1.5182
  170SAPS   O2119236   0.177   3.985   6.494  0.8473  0.1539  0.0552
  170SAPS   C2119237   0.275   3.944   6.428 -0.2460 -0.1540  0.7023
  170SAPS   O2219238   0.330   3.834   6.428 -0.4688  0.7549 -0.1277
  170SAPS   C2219239   0.304   4.040   6.316 -0.7939  0.0508 -0.3623
  170SAPS   H2R19240   0.220   4.112   6.311 -0.4709  0.5497  0.9763
  170SAPS   H2S19241   0.397   4.094   6.343 -1.4232  2.1549 -2.1356
  170SAPS    C319242  -0.021   3.903   6.617 -0.4132  0.3754  0.0016
  170SAPS    HX19243  -0.038   4.007   6.652 -1.7206  0.2298 -0.1351
  170SAPS    HY19244  -0.047   3.833   6.699 -0.6247  1.3241  0.7550
  170SAPS   O3119245  -0.095   3.883   6.497 -0.2347 -0.7964  0.2217
  170SAPS   C3119246  -0.132   3.752   6.476 -0.2081 -0.0530 -0.3124
  170SAPS   O3219247  -0.113   3.658   6.552  0.3392 -0.0473 -0.2285
  170SAPS   C3219248  -0.229   3.741   6.356 -0.0135  0.2408 -0.6786
  170SAPS   H2X19249  -0.315   3.807   6.381  0.4334  0.4669  0.3137
  170SAPS   H2Y19250  -0.269   3.638   6.362  1.1911 -0.1962  0.2671
  170SAPS   C2319251   0.321   3.983   6.172 -0.0669 -0.0451 -0.3349
  170SAPS   H3R19252   0.273   3.883   6.174 -1.4943  0.6208 -0.1320
  170SAPS   H3S19253   0.425   3.968   6.138 -0.1009  1.1688 -1.0441
  170SAPS   C2419254   0.240   4.056   6.061 -0.5217 -0.4952 -0.2661
  170SAPS   H4R19255   0.135   4.053   6.100 -0.4810 -0.1875 -0.1286
  170SAPS   H4S19256   0.255   3.987   5.976 -1.0862 -2.2454  0.9857
  170SAPS   C2519257   0.297   4.200   6.050 -0.1986 -0.7381  0.4598
  170SAPS   H5R19258   0.320   4.247   6.147  0.3152  0.0267 -0.0201
  170SAPS   C2619259   0.331   4.269   5.935 -0.5249  0.0635  0.2582
  170SAPS   H6R19260   0.381   4.367   5.940 -0.5351  0.1079 -0.4477
  170SAPS   C2719261   0.334   4.219   5.792 -0.1846 -0.6032  0.1404
  170SAPS   H7R19262   0.309   4.111   5.785  1.9495 -1.0777 -0.9738
  170SAPS   H7S19263   0.436   4.224   5.747  0.2641  1.4258  1.2533
  170SAPS   C2819264   0.228   4.290   5.714  0.6134  0.1095 -0.0516
  170SAPS   H8R19265   0.130   4.286   5.763  1.4509 -1.3515  1.6438
  170SAPS   C2919266   0.219   4.359   5.602 -0.0093  0.2343 -0.0300
  170SAPS   H9R19267   0.121   4.395   5.569  0.5625  1.9019 -0.0287
  170SAPS  C21019268   0.341   4.373   5.500 -0.4147 -0.9549 -0.2935
  170SAPS  H10R19269   0.418   4.294   5.499  1.1800  0.4676  1.5679
  170SAPS  H10S19270   0.411   4.452   5.536 -0.7582  0.0630 -1.7465
  170SAPS  C21119271   0.309   4.415   5.358 -0.0280  0.0481  0.8365
  170SAPS  H11R19272   0.391   4.476   5.317  2.1525 -3.6085 -0.7307
  170SAPS  C21219273   0.209   4.372   5.277  0.1635 -1.0859 -0.2885
  170SAPS  H12R19274   0.208   4.417   5.176 -0.9017 -1.4153 -0.4357
  170SAPS  C21319275   0.093   4.280   5.316  0.0329 -0.5861 -0.2135
  170SAPS  H13R19276   0.116   4.222   5.408  2.2819  0.9500  0.2983
  170SAPS  H13S19277   0.101   4.200   5.240  2.0373 -0.2432 -0.4244
  170SAPS  C21419278  -0.045   4.347   5.328  0.4710 -0.1578  0.1273
  170SAPS  H14R19279  -0.058   4.420   5.409 -0.7673  1.4131 -1.4044
  170SAPS  C21519280  -0.134   4.358   5.224  0.0663 -0.0435  0.5338
  170SAPS  H15R19281  -0.223   4.419   5.245  0.5960  0.7457  0.5663
  170SAPS  C21619282  -0.121   4.270   5.099 -0.3383 -0.1805 -0.0237
  170SAPS  H16R19283  -0.146   4.167   5.132 -0.9019 -0.2010 -0.4887
  170SAPS  H16S19284  -0.012   4.263   5.078  0.4204  0.0006  3.2622
  170SAPS  C21719285  -0.213   4.314   4.985  0.1969 -1.0845 -0.6518
  170SAPS  H17R19286  -0.322   4.327   5.007  0.4664 -0.8743  0.6583
  170SAPS  H17S19287  -0.199   4.238   4.906 -1.0977  0.2392 -2.2377
  170SAPS  C21819288  -0.167   4.453   4.925  0.3083  0.7162  1.0349
  170SAPS  H18R19289  -0.060   4.475   4.945  1.3298 -0.1804 -2.5906
  170SAPS  H18S19290  -0.225   4.537   4.968 -2.0506  1.3104 -2.8112
  170SAPS  C21919291  -0.174   4.467   4.775 -1.3032  0.3001  0.3153
  170SAPS  H19R19292  -0.152   4.573   4.749 -0.9557 -0.4638 -2.9265
  170SAPS  H19S19293  -0.277   4.440   4.743 -1.1014 -0.2678  0.1379
  170SAPS  C22019294  -0.068   4.393   4.695 -0.0234 -0.4096  0.1397
  170SAPS  H20R19295   0.033   4.430   4.724  0.0552  1.7237 -2.4602
  170SAPS  H20S19296  -0.079   4.417   4.587 -0.5673 -0.0875  0.2663
  170SAPS  H20T19297  -0.073   4.282   4.703  0.6333 -0.5124 -0.6711
  170SAPS   C3319298  -0.178   3.770   6.213 -1.0793 -0.3745 -0.4391
  170SAPS   H3X19299  -0.103   3.852   6.217 -1.1071 -0.2497 -1.8964
  170SAPS   H3Y19300  -0.264   3.797   6.148 -0.2252  0.7328 -1.1359
  170SAPS   C3419301  -0.116   3.656   6.139  0.2548 -0.0741 -0.1944
  170SAPS   H4X19302  -0.190   3.573   6.136 -0.3232  0.3206  1.8075
  170SAPS   H4Y19303  -0.027   3.619   6.193 -0.6617 -0.6293  0.9710
  170SAPS   C3519304  -0.071   3.706   6.005 -0.6300 -0.3756  1.0909
  170SAPS   H5X19305   0.019   3.764   6.034 -1.2217  0.8674  0.5274
  170SAPS   H5Y19306  -0.146   3.771   5.956  1.6974  0.6306 -1.3637
  170SAPS   C3619307  -0.017   3.600   5.912 -0.1661 -0.3522 -0.1329
  170SAPS   H6X19308  -0.104   3.534   5.890  0.5195 -1.2755 -0.1192
  170SAPS   H6Y19309   0.055   3.536   5.967 -1.7477 -1.3511  0.8478
  170SAPS   C3719310   0.047   3.648   5.777  0.4901 -0.2660 -0.1674
  170SAPS   H7X19311   0.134   3.713   5.802  0.9566 -0.7866 -0.4109
  170SAPS   H7Y19312  -0.029   3.706   5.720  0.6083  0.3115  0.2536
  170SAPS   C3819313   0.096   3.525   5.697 -0.9108 -0.8207 -0.6420
  170SAPS   H8X19314   0.006   3.466   5.670 -0.7912 -1.9420  1.2312
  170SAPS   H8Y19315   0.143   3.457   5.771  0.5928 -1.2771 -1.9782
  170SAPS   C3919316   0.189   3.536   5.578 -0.1492  0.4136  0.1500
  170SAPS   H9X19317   0.291   3.540   5.622 -0.0048  1.9182 -0.2552
  170SAPS   H9Y19318   0.176   3.630   5.519  1.7887 -0.5012 -1.9180
  170SAPS  C31019319   0.176   3.419   5.481  0.1190 -0.4344 -0.7743
  170SAPS  H10X19320   0.181   3.324   5.539 -4.4750  0.4150  1.5065
  170SAPS  H10Y19321   0.261   3.417   5.409  1.3028  2.4740  0.3757
  170SAPS  C31119322   0.051   3.431   5.390 -0.5513 -0.4493 -0.2274
  170SAPS  H11X19323   0.054   3.536   5.353  1.3492  1.1529  3.8476
  170SAPS  H11Y19324  -0.044   3.427   5.447 -0.6604 -0.6057 -0.4212
  170SAPS  C31219325   0.050   3.340   5.272  0.7088 -0.3565 -0.3416
  170SAPS  H12X19326   0.030   3.241   5.319  1.8075 -0.1063  0.6911
  170SAPS  H12Y19327   0.146   3.328   5.218  0.7016 -0.8601 -0.2493
  170SAPS  C31319328  -0.055   3.370   5.170  0.8722 -0.4800 -0.4276
  170SAPS  H13X19329  -0.031   3.470   5.128  0.7088 -0.0815  0.4204
  170SAPS  H13Y19330  -0.154   3.371   5.220  0.6827 -1.3884 -0.7637
  170SAPS  C31419331  -0.076   3.252   5.073 -0.1645  0.6804 -0.2978
  170SAPS  H14X19332  -0.119   3.164   5.126  0.3007  0.4026 -0.3784
  170SAPS  H14Y19333   0.016   3.226   5.016  0.0525  0.3736  0.1875
  170SAPS  C31519334  -0.183   3.287   4.969 -0.2736 -0.2909  0.4228
  170SAPS  H15X19335  -0.140   3.374   4.915  2.0254 -1.0308  0.9746
  170SAPS  H15Y19336  -0.281   3.320   5.010 -0.4946  0.1865 -0.4526
  170SAPS  C31619337  -0.200   3.174   4.860 -0.9725 -0.2883 -0.5115
  170SAPS  H16X19338  -0.106   3.171   4.801 -0.8768  1.1558 -0.4731
  170SAPS  H16Y19339  -0.284   3.218   4.801 -0.2619 -0.6632 -1.8515
  170SAPS  C31719340  -0.248   3.045   4.918  0.5608  0.5318 -0.0820
  170SAPS  H17X19341  -0.319   3.066   5.002  1.3144  0.8824  0.4886
  170SAPS  H17Y19342  -0.169   2.984   4.967  0.6261  1.4164  0.9674
  170SAPS  C31819343  -0.330   2.959   4.823 -0.3706  0.3914  0.1484
  170SAPS  H18X19344  -0.419   3.016   4.790 -0.7857 -0.4101 -0.1474
  170SAPS  H18Y19345  -0.377   2.868   4.867 -1.4990  0.5696 -0.6309
  170SAPS  H18Z19346  -0.268   2.940   4.733  0.6689  0.2106  0.8837
  171SAPS     N19347   6.565   2.632   7.353  0.1463 -0.2421  0.1838
  171SAPS   HN119348   6.548   2.630   7.456 -2.2423 -1.0952 -0.1602
  171SAPS   HN219349   6.633   2.556   7.332  0.2577 -0.3934  1.0689
  171SAPS   HN319350   6.604   2.725   7.330  3.3092 -1.5519 -0.2555
  171SAPS   C1219351   6.437   2.614   7.281  0.0079  0.5524 -0.2619
  171SAPS  H12A19352   6.396   2.524   7.325  0.8835  0.8708  1.2883
  171SAPS   C1319353   6.332   2.726   7.284 -0.2418  0.2533 -0.6837
  171SAPS  O13A19354   6.367   2.833   7.346  0.2461 -0.0810 -0.0619
  171SAPS  O13B19355   6.221   2.715   7.229 -0.5345  0.2178 -0.1809
  171SAPS   C1119356   6.453   2.569   7.132  0.1859 -0.2089  0.2964
  171SAPS  H11A19357   6.504   2.656   7.087  1.1423 -1.5766 -1.3702
  171SAPS  H11B19358   6.353   2.552   7.087  1.5861 -1.3015 -2.6885
  171SAPS     P19359   6.670   2.450   7.060 -0.0314  0.4177 -0.0187
  171SAPS   O1319360   6.743   2.548   7.136  0.0496 -0.0890 -0.0746
  171SAPS   O1419361   6.725   2.311   7.053 -0.4253  0.3864 -0.4030
  171SAPS   O1219362   6.523   2.445   7.123  0.0836 -0.5917  0.3569
  171SAPS   O1119363   6.632   2.505   6.920  0.4026  0.2773  0.1343
  171SAPS    C119364   6.715   2.601   6.855 -0.3379 -0.2506  0.2272
  171SAPS    HA19365   6.824   2.607   6.879  0.1998 -2.4860 -1.3234
  171SAPS    HB19366   6.733   2.575   6.749  2.1933 -1.0750  0.7729
  171SAPS    C219367   6.654   2.745   6.859 -0.1909  0.5024  0.1656
  171SAPS    HS19368   6.656   2.770   6.967 -3.9276 -1.3233  0.8007
  171SAPS   O2119369   6.521   2.735   6.806  0.6129 -0.1298  0.4104
  171SAPS   C2119370   6.445   2.842   6.823 -0.0633  0.4274  0.0184
  171SAPS   O2219371   6.470   2.946   6.870  0.1406 -0.4745  0.0858
  171SAPS   C2219372   6.308   2.811   6.756 -0.1725  0.2771  0.4261
  171SAPS   H2R19373   6.314   2.716   6.699 -2.3075  1.0205 -1.1829
  171SAPS   H2S19374   6.232   2.798   6.836 -0.2684 -0.9319  0.1519
  171SAPS    C319375   6.732   2.851   6.786  0.3999  0.0063 -0.3664
  171SAPS    HX19376   6.836   2.864   6.824  0.7882 -1.0502 -1.0471
  171SAPS    HY19377   6.687   2.950   6.810  0.7806  0.0874  0.0300
  171SAPS   O3119378   6.729   2.842   6.636 -0.1228 -0.3481 -0.3451
  171SAPS   C3119379   6.811   2.759   6.582 -1.0429 -0.2518  0.5986
  171SAPS   O3219380   6.905   2.709   6.635 -0.5895  0.7573 -0.2229
  171SAPS   C3219381   6.780   2.754   6.435  0.4016  0.3090 -0.5855
  171SAPS   H2X19382   6.759   2.859   6.403  2.1087  0.9197  0.1153
  171SAPS   H2Y19383   6.688   2.696   6.417  1.3962 -0.8737 -2.0645
  171SAPS   C2319384   6.258   2.925   6.662  0.1605  0.7614 -0.0082
  171SAPS   H3R19385   6.211   3.008   6.720  0.2572 -0.0417  1.2645
  171SAPS   H3S19386   6.173   2.883   6.604  1.6512 -0.1120 -1.6494
  171SAPS   C2419387   6.365   2.976   6.573  0.3067  0.0604 -0.4890
  171SAPS   H4R19388   6.411   2.883   6.533  0.3984  1.0058 -2.7158
  171SAPS   H4S19389   6.450   3.010   6.636  0.1594 -1.5948  0.6778
  171SAPS   C2519390   6.328   3.077   6.478  0.3345 -0.4667  0.5294
  171SAPS   H5R19391   6.307   3.172   6.529  1.4789 -1.2888  2.6924
  171SAPS   C2619392   6.326   3.068   6.343  0.0140 -0.0594  0.1033
  171SAPS   H6R19393   6.268   3.138   6.282  1.6382  1.7869  0.5583
  171SAPS   C2719394   6.364   2.953   6.252 -0.1514 -0.2964  0.0316
  171SAPS   H7R19395   6.280   2.936   6.181  0.1650 -1.3770 -0.1049
  171SAPS   H7S19396   6.365   2.857   6.308 -2.4913 -1.9933 -2.5636
  171SAPS   C2819397   6.492   2.979   6.176  0.7034 -0.9086 -0.8912
  171SAPS   H8R19398   6.545   3.070   6.208  0.3485 -0.4662 -1.5373
  171SAPS   C2919399   6.544   2.885   6.095 -0.3056 -0.1174 -0.3247
  171SAPS   H9R19400   6.643   2.895   6.048  0.4316 -0.9995  0.9680
  171SAPS  C21019401   6.472   2.750   6.063 -1.1057  0.3134 -0.0563
  171SAPS  H10R19402   6.412   2.761   5.969  0.9867 -1.0297 -1.6333
  171SAPS  H10S19403   6.404   2.719   6.145  1.5703 -0.0351  2.1700
  171SAPS  C21119404   6.570   2.638   6.049  0.9952 -0.2549 -1.0796
  171SAPS  H11R19405   6.601   2.581   6.138  2.4066 -1.3946 -2.2386
  171SAPS  C21219406   6.619   2.594   5.937  0.0920 -0.1094  0.5139
  171SAPS  H12R19407   6.681   2.504   5.945  0.2584 -0.1111 -0.5995
  171SAPS  C21319408   6.611   2.656   5.795 -0.3599 -0.0213  0.6325
  171SAPS  H13R19409   6.596   2.765   5.803 -0.1440 -0.0041  0.7994
  171SAPS  H13S19410   6.521   2.612   5.746 -2.2728  1.1294  2.9164
  171SAPS  C21419411   6.739   2.641   5.710  0.5821  0.1515  0.2012
  171SAPS  H14R19412   6.832   2.642   5.769  1.8928 -1.6381 -1.6542
  171SAPS  C21519413   6.744   2.644   5.570  0.8188  0.1169 -0.0204
  171SAPS  H15R19414   6.838   2.614   5.521  0.7848  1.1944 -0.7996
  171SAPS  C21619415   6.625   2.650   5.480 -0.0412 -0.1030 -0.6742
  171SAPS  H16R19416   6.528   2.646   5.535 -0.0385 -1.6615 -0.7430
  171SAPS  H16S19417   6.620   2.558   5.417 -1.4093  0.4540 -1.4291
  171SAPS  C21719418   6.621   2.784   5.393 -0.1930 -0.5381  0.0806
  171SAPS  H17R19419   6.706   2.780   5.322 -0.5872 -0.3478 -0.4096
  171SAPS  H17S19420   6.629   2.874   5.459 -0.5633  0.4554 -1.1870
  171SAPS  C21819421   6.487   2.804   5.328 -0.4574 -0.1825  0.1556
  171SAPS  H18R19422   6.408   2.828   5.402  0.8376  2.1359  0.8722
  171SAPS  H18S19423   6.466   2.707   5.279  2.5992 -1.4149  1.1013
  171SAPS  C21919424   6.483   2.923   5.229 -0.8354 -0.0191  0.0641
  171SAPS  H19R19425   6.390   2.913   5.169 -0.4197  1.1847 -0.8251
  171SAPS  H19S19426   6.573   2.922   5.164  1.0455 -1.7813  2.5217
  171SAPS  C22019427   6.465   3.061   5.302 -0.3683  0.1717 -0.4695
  171SAPS  H20R19428   6.553   3.083   5.366 -0.7427 -0.4623  0.2848
  171SAPS  H20S19429   6.372   3.075   5.362  0.0103  1.8777 -0.2379
  171SAPS  H20T19430   6.456   3.137   5.222 -0.7123  1.9248  1.1734
  171SAPS   C3319431   6.894   2.694   6.343 -0.2937 -0.1126  0.7326
  171SAPS   H3X19432   6.884   2.587   6.315  2.4490  0.0189 -1.1640
  171SAPS   H3Y19433   6.988   2.711   6.400 -0.6602  1.8987  0.7922
  171SAPS   C3419434   6.913   2.786   6.228 -0.0012  0.4018 -0.1586
  171SAPS   H4X19435   6.926   2.885   6.277  2.2732  0.6165 -1.0679
  171SAPS   H4Y19436   6.820   2.794   6.168 -1.5879 -0.2969  2.0801
  171SAPS   C3519437   7.039   2.745   6.147 -0.4749 -0.0862  0.0699
  171SAPS   H5X19438   7.030   2.637   6.123  0.4846 -1.0634  3.5535
  171SAPS   H5Y19439   7.136   2.761   6.198 -2.0185 -0.9967  3.6301
  171SAPS   C3619440   7.041   2.815   6.007  0.5242  0.6611 -0.6907
  171SAPS   H6X19441   7.026   2.923   6.029 -0.5766  0.5534 -0.8565
  171SAPS   H6Y19442   6.960   2.768   5.948  0.9602 -2.1670  0.7513
  171SAPS   C3719443   7.175   2.797   5.924  0.3965 -0.3795 -0.3909
  171SAPS   H7X19444   7.195   2.689   5.906 -0.1378 -0.3081 -1.4973
  171SAPS   H7Y19445   7.257   2.845   5.981  1.6018 -1.1037 -1.4537
  171SAPS   C3819446   7.185   2.877   5.793 -0.6320  0.2665  0.2611
  171SAPS   H8X19447   7.276   2.854   5.734 -1.3806 -0.4981 -0.6249
  171SAPS   H8Y19448   7.177   2.986   5.816 -0.1318  0.7375 -1.6503
  171SAPS   C3919449   7.068   2.847   5.694  0.1838  0.4372 -0.1475
  171SAPS   H9X19450   6.971   2.890   5.729 -0.2594 -0.2340 -0.5199
  171SAPS   H9Y19451   7.065   2.737   5.684 -1.6120  0.5224 -0.9403
  171SAPS  C31019452   7.115   2.914   5.558  0.1899  0.0320 -0.2701
  171SAPS  H10X19453   7.208   2.866   5.523  1.2652  0.2169  2.1137
  171SAPS  H10Y19454   7.135   3.023   5.566  1.8182 -0.0687 -2.3052
  171SAPS  C31119455   7.017   2.886   5.448  0.3910  0.5414 -0.1919
  171SAPS  H11X19456   6.917   2.898   5.494 -0.3296  1.0397 -1.8382
  171SAPS  H11Y19457   7.029   2.779   5.421 -2.2141 -0.4822  2.2002
  171SAPS  C31219458   7.044   2.984   5.330  0.4255  0.0319 -0.6029
  171SAPS  H12X19459   7.154   2.981   5.312  0.4731 -2.5068 -0.2431
  171SAPS  H12Y19460   7.031   3.084   5.376  1.7996  0.2217 -0.5766
  171SAPS  C31319461   6.949   2.959   5.210 -0.9278  0.1697 -0.3947
  171SAPS  H13X19462   6.951   3.049   5.146 -1.7305  0.6165  0.1957
  171SAPS  H13Y19463   6.844   2.957   5.244 -0.7649  1.4411  0.2555
  171SAPS  C31419464   6.985   2.833   5.125  0.0030 -0.6779 -0.4584
  171SAPS  H14X19465   6.974   2.748   5.195 -0.6502  0.9080  1.4694
  171SAPS  H14Y19466   7.085   2.830   5.077  0.1613  0.1699 -0.1909
  171SAPS  C31519467   6.885   2.812   5.003  0.0471  1.2888  0.6772
  171SAPS  H15X19468   6.875   2.904   4.940 -2.6021 -0.6155 -1.9712
  171SAPS  H15Y19469   6.783   2.814   5.047 -0.6711  1.7896 -0.9072
  171SAPS  C31619470   6.908   2.681   4.920  0.2201 -0.3256  0.0031
  171SAPS  H16X19471   6.852   2.601   4.974  0.7981 -1.3875 -0.9124
  171SAPS  H16Y19472   7.013   2.647   4.908 -0.1092 -0.8437 -1.7472
  171SAPS  C31719473   6.848   2.709   4.782  0.1856 -0.3026  0.6358
  171SAPS  H17X19474   6.885   2.807   4.744  0.3573 -1.1076 -1.3784
  171SAPS  H17Y19475   6.737   2.718   4.790  0.3296  0.9296  1.6102
  171SAPS  C31819476   6.864   2.603   4.670 -0.4319 -0.4468 -0.1060
  171SAPS  H18X19477   6.798   2.630   4.584 -0.1718  1.0880  0.1463
  171SAPS  H18Y19478   6.839   2.507   4.720  0.0831  0.8408  2.7958
  171SAPS  H18Z19479   6.969   2.602   4.634  0.0445  1.3852  1.0991
  172SAPS     N19480   0.255   2.150   7.047  0.3053  0.7680  0.5752
  172SAPS   HN119481   0.277   2.048   7.055 -0.0111  0.2239 -3.2386
  172SAPS   HN219482   0.170   2.161   6.989 -0.1456 -1.7886  0.6203
  172SAPS   HN319483   0.339   2.186   6.996  1.6987 -0.1912  2.0818
  172SAPS   C1219484   0.254   2.206   7.183 -0.6487 -0.1247  0.1443
  172SAPS  H12A19485   0.236   2.313   7.185 -1.4760 -0.2605  0.2249
  172SAPS   C1319486   0.156   2.147   7.286  1.1734 -0.7802  0.0886
  172SAPS  O13A19487   0.086   2.044   7.260  0.2249  0.1209  0.7132
  172SAPS  O13B19488   0.134   2.215   7.391  0.3666 -0.0336  0.0353
  172SAPS   C1119489   0.407   2.188   7.226 -0.8898  0.0440 -0.5110
  172SAPS  H11A19490   0.409   2.078   7.242 -0.3261  0.1589  0.2886
  172SAPS  H11B19491   0.411   2.246   7.321  1.2163 -0.9839  0.1067
  172SAPS     P19492   0.661   2.178   7.151 -0.1944 -0.2464  0.1810
  172SAPS   O1319493   0.741   2.289   7.203  0.2083  0.2187  0.3609
  172SAPS   O1419494   0.672   2.051   7.227 -0.6263 -0.0132 -0.0250
  172SAPS   O1219495   0.510   2.222   7.132 -0.2511  0.8016  0.1200
  172SAPS   O1119496   0.717   2.166   7.003 -0.0101  0.2316  0.2621
  172SAPS    C119497   0.636   2.176   6.882 -0.0601 -0.5031  0.0899
  172SAPS    HA19498   0.539   2.122   6.888 -1.3348  1.5441 -1.0270
  172SAPS    HB19499   0.615   2.283   6.862  1.1779 -0.7013 -2.7524
  172SAPS    C219500   0.701   2.107   6.758 -0.0742  0.2404 -1.0057
  172SAPS    HS19501   0.716   2.002   6.793 -1.8324 -0.0801 -1.1025
  172SAPS   O2119502   0.831   2.169   6.726 -0.1028  0.5878  0.1872
  172SAPS   C2119503   0.920   2.087   6.662 -0.0767 -0.4388 -0.1893
  172SAPS   O2219504   0.901   1.969   6.636 -0.2620  0.8553 -0.1231
  172SAPS   C2219505   1.043   2.168   6.628  1.2337  0.2049 -0.1316
  172SAPS   H2R19506   1.014   2.243   6.550  2.8235  0.5692 -0.3924
  172SAPS   H2S19507   1.069   2.225   6.719  1.0629  2.2803 -1.3103
  172SAPS    C319508   0.610   2.105   6.636 -0.4150 -0.1440 -0.2112
  172SAPS    HX19509   0.586   2.212   6.615 -1.1152 -0.4886 -1.2065
  172SAPS    HY19510   0.517   2.051   6.661  0.4872 -1.5389  0.2643
  172SAPS   O3119511   0.667   2.049   6.509  0.9202  0.2938 -0.3288
  172SAPS   C3119512   0.661   1.917   6.484 -0.4122  0.3500 -0.0390
  172SAPS   O3219513   0.600   1.836   6.554  0.3325  0.2184 -0.8670
  172SAPS   C3219514   0.722   1.891   6.344  0.0853 -1.0070  0.6960
  172SAPS   H2X19515   0.790   1.975   6.316 -0.0602 -0.4775  1.8798
  172SAPS   H2Y19516   0.638   1.887   6.271  0.9431 -0.7265 -0.3303
  172SAPS   C2319517   1.156   2.085   6.567  0.5517  0.3168 -0.0134
  172SAPS   H3R19518   1.161   1.987   6.620 -0.0659 -0.0277 -0.5765
  172SAPS   H3S19519   1.250   2.136   6.596  0.2710 -0.2328  1.9858
  172SAPS   C2419520   1.132   2.066   6.413 -0.0127 -0.0794 -0.1817
  172SAPS   H4R19521   1.147   2.163   6.361 -1.0679 -1.0714 -2.5054
  172SAPS   H4S19522   1.026   2.047   6.387 -0.1800 -0.6924  0.8960
  172SAPS   C2519523   1.223   1.961   6.358 -0.2785 -0.1501 -0.5663
  172SAPS   H5R19524   1.244   1.875   6.422  2.8106 -0.1945 -1.4527
  172SAPS   C2619525   1.266   1.957   6.234  0.4509 -0.2863 -0.7088
  172SAPS   H6R19526   1.320   1.866   6.204  1.6181  0.1536 -0.0219
  172SAPS   C2719527   1.248   2.062   6.132 -0.1823 -0.4219 -0.0448
  172SAPS   H7R19528   1.353   2.063   6.093 -0.3757 -1.9897 -0.7084
  172SAPS   H7S19529   1.245   2.162   6.180  2.0607 -0.0716 -0.5195
  172SAPS   C2819530   1.133   2.046   6.036  0.0748  0.0705  0.0541
  172SAPS   H8R19531   1.034   2.059   6.082  0.3697  0.8923  0.4758
  172SAPS   C2919532   1.148   2.050   5.901 -0.0636  0.4321  0.3710
  172SAPS   H9R19533   1.061   2.067   5.836  0.8224  2.7785 -0.3038
  172SAPS  C21019534   1.283   2.037   5.833  0.4367  0.1019 -0.4227
  172SAPS  H10R19535   1.347   2.124   5.856  0.5366  0.1963 -1.0342
  172SAPS  H10S19536   1.250   2.041   5.727 -0.5774 -2.4380 -0.2754
  172SAPS  C21119537   1.365   1.912   5.873 -0.2340 -0.6881 -0.7471
  172SAPS  H11R19538   1.325   1.841   5.947 -0.7287 -0.8902 -1.2044
  172SAPS  C21219539   1.495   1.894   5.832 -0.1700  0.4634 -0.1357
  172SAPS  H12R19540   1.553   1.805   5.860  1.0036  1.7828  1.9051
  172SAPS  C21319541   1.556   1.976   5.730 -0.1131 -0.1691 -0.0125
  172SAPS  H13R19542   1.650   2.019   5.772 -0.3489 -0.9550  1.3750
  172SAPS  H13S19543   1.496   2.066   5.704  0.8464  0.0887 -1.4779
  172SAPS  C21419544   1.592   1.898   5.606  0.4821 -0.0089  0.2674
  172SAPS  H14R19545   1.669   1.820   5.618 -0.5123 -1.5428 -2.4531
  172SAPS  C21519546   1.537   1.909   5.488 -0.8761  0.2155  0.1110
  172SAPS  H15R19547   1.572   1.840   5.410 -0.7238 -2.7096  2.5762
  172SAPS  C21619548   1.427   2.001   5.442  0.4358  0.1539 -0.2496
  172SAPS  H16R19549   1.429   2.101   5.490 -1.9019  0.5656 -0.9210
  172SAPS  H16S19550   1.329   1.953   5.463 -0.5952  1.2442 -2.3597
  172SAPS  C21719551   1.430   2.022   5.288  0.0984  0.5247  0.2069
  172SAPS  H17R19552   1.337   2.079   5.268 -0.9581 -1.5757 -1.3585
  172SAPS  H17S19553   1.418   1.922   5.240  1.8218  0.0869  0.6237
  172SAPS  C21819554   1.560   2.087   5.242  0.5651  0.0226 -0.4340
  172SAPS  H18R19555   1.631   2.002   5.231 -1.5979 -2.1052  1.1168
  172SAPS  H18S19556   1.604   2.158   5.315  0.0563 -0.8059  0.7150
  172SAPS  C21919557   1.559   2.142   5.102 -0.1248 -0.6801  0.3707
  172SAPS  H19R19558   1.667   2.148   5.076 -0.2750 -1.2807 -0.4436
  172SAPS  H19S19559   1.521   2.246   5.106 -2.4502 -1.3422 -1.6342
  172SAPS  C22019560   1.478   2.084   4.996  0.0318 -0.7428  0.2725
  172SAPS  H20R19561   1.466   2.165   4.921 -0.1284 -0.2902  0.7797
  172SAPS  H20S19562   1.376   2.058   5.031  0.2885  0.1772  1.7877
  172SAPS  H20T19563   1.513   1.988   4.953  1.6175 -0.5639  1.1060
  172SAPS   C3319564   0.792   1.756   6.332 -0.0717 -0.2032  0.8463
  172SAPS   H3X19565   0.719   1.675   6.354  0.6152 -1.1823 -0.3230
  172SAPS   H3Y19566   0.868   1.756   6.413  0.8775 -0.5967 -0.0224
  172SAPS   C3419567   0.861   1.725   6.193  0.4612 -0.2930 -0.7124
  172SAPS   H4X19568   0.902   1.623   6.184  0.7406 -0.0188 -3.7069
  172SAPS   H4Y19569   0.941   1.801   6.177  0.8195 -0.4226  0.4296
  172SAPS   C3519570   0.743   1.721   6.087 -0.2515  0.2712  0.1278
  172SAPS   H5X19571   0.694   1.820   6.081 -0.1006  0.2896 -0.9058
  172SAPS   H5Y19572   0.681   1.638   6.126  1.8107 -1.5144 -0.1804
  172SAPS   C3619573   0.784   1.670   5.951  0.2860 -0.3943  0.1732
  172SAPS   H6X19574   0.693   1.651   5.890  1.2238 -1.1494 -1.0448
  172SAPS   H6Y19575   0.825   1.567   5.960 -2.3207 -1.6809 -1.4306
  172SAPS   C3719576   0.865   1.764   5.854  1.3098  0.3439 -1.0423
  172SAPS   H7X19577   0.966   1.786   5.895  0.9728 -1.5430  1.0399
  172SAPS   H7Y19578   0.803   1.856   5.845 -2.1723 -1.3570  2.5167
  172SAPS   C3819579   0.889   1.713   5.708 -0.1039 -0.3063  0.4914
  172SAPS   H8X19580   0.935   1.612   5.709 -2.2293 -1.4088 -1.9243
  172SAPS   H8Y19581   0.962   1.791   5.678  0.9532 -0.5711  2.1901
  172SAPS   C3919582   0.775   1.695   5.612 -0.4847 -0.1371 -0.7099
  172SAPS   H9X19583   0.726   1.791   5.589 -0.6862 -0.3011 -0.9708
  172SAPS   H9Y19584   0.697   1.633   5.662  0.7675  0.3479  2.0712
  172SAPS  C31019585   0.813   1.619   5.483  0.3187  0.1596 -0.5210
  172SAPS  H10X19586   0.869   1.524   5.497  0.4020  0.2363 -0.3337
  172SAPS  H10Y19587   0.882   1.693   5.437  0.9316  1.2663  2.0312
  172SAPS  C31119588   0.693   1.579   5.393  0.1718 -0.5901 -1.0751
  172SAPS  H11X19589   0.656   1.677   5.356 -0.3571  0.0713  1.0186
  172SAPS  H11Y19590   0.609   1.538   5.454  0.0004  0.3262 -0.6641
  172SAPS  C31219591   0.742   1.507   5.267 -0.1585 -0.0536  0.2991
  172SAPS  H12X19592   0.759   1.402   5.299  0.2213  0.4414  1.7904
  172SAPS  H12Y19593   0.830   1.551   5.217 -0.8471  1.3943  0.3104
  172SAPS  C31319594   0.629   1.518   5.159 -0.1535 -0.2452  0.0329
  172SAPS  H13X19595   0.609   1.617   5.114  2.3643 -0.4495 -1.7880
  172SAPS  H13Y19596   0.536   1.483   5.207  0.1200  1.4198  1.9091
  172SAPS  C31419597   0.656   1.414   5.051  0.4976  0.2745 -0.5427
  172SAPS  H14X19598   0.568   1.406   4.984 -0.5670  1.4664  0.6769
  172SAPS  H14Y19599   0.673   1.311   5.090 -1.4211 -0.1881 -0.8254
  172SAPS  C31519600   0.792   1.438   4.967 -0.0077  0.1659 -0.4457
  172SAPS  H15X19601   0.798   1.351   4.897  0.2122 -0.9519  0.9183
  172SAPS  H15Y19602   0.884   1.445   5.028 -1.3146  0.9961  1.5099
  172SAPS  C31619603   0.796   1.560   4.875  0.1174  0.8402 -0.3355
  172SAPS  H16X19604   0.784   1.638   4.954 -0.5802  1.1656 -0.7560
  172SAPS  H16Y19605   0.895   1.578   4.829 -0.1907  2.0126 -0.5777
  172SAPS  C31719606   0.689   1.576   4.772  0.1608  0.5790 -0.9415
  172SAPS  H17X19607   0.595   1.604   4.825 -0.1147 -0.9134 -0.5989
  172SAPS  H17Y19608   0.667   1.476   4.730  1.8844 -0.2223 -0.0026
  172SAPS  C31819609   0.726   1.678   4.662  0.3380  0.3291  0.6334
  172SAPS  H18X19610   0.639   1.700   4.597  0.8127 -3.4621 -1.5748
  172SAPS  H18Y19611   0.811   1.633   4.606 -0.2847  0.2454 -0.2626
  172SAPS  H18Z19612   0.760   1.777   4.699  0.2614  0.1071  1.3238
  173SAPS     N19613   6.160   1.978   2.058  0.1217  0.4569 -0.0084
  173SAPS   HN119614   6.113   1.893   2.095  1.0176  0.0981  0.3256
  173SAPS   HN219615   6.162   1.970   1.954  4.2691 -2.2016  0.0334
  173SAPS   HN319616   6.255   1.963   2.097 -1.0005  0.0454  2.7970
  173SAPS   C1219617   6.107   2.101   2.129 -0.1539  0.4417 -0.2219
  173SAPS  H12A19618   6.124   2.092   2.235 -2.0650  1.0166  0.1679
  173SAPS   C1319619   6.178   2.234   2.096 -0.1597  0.2163  0.7876
  173SAPS  O13A19620   6.264   2.238   1.999 -0.0062  0.5645  0.1259
  173SAPS  O13B19621   6.145   2.344   2.149  0.3137  0.4949  0.0258
  173SAPS   C1119622   5.953   2.112   2.085 -0.0873  0.0348 -0.2059
  173SAPS  H11A19623   5.948   2.108   1.974 -1.4938 -1.3035 -0.1189
  173SAPS  H11B19624   5.920   2.216   2.102 -4.1465 -1.2318  0.6321
  173SAPS     P19625   5.816   2.014   2.292 -0.3858  0.4575 -0.0716
  173SAPS   O1319626   5.739   2.139   2.310 -0.5929 -0.2683  0.4514
  173SAPS   O1419627   5.745   1.895   2.328 -0.4397  0.1779  0.2202
  173SAPS   O1219628   5.870   2.006   2.140 -0.5313  0.2026  0.1768
  173SAPS   O1119629   5.952   2.015   2.379  0.2379  0.0965  0.7671
  173SAPS    C119630   5.996   1.896   2.452 -0.0339  0.5473 -0.0947
  173SAPS    HA19631   6.001   1.810   2.382  1.3332 -0.1095  0.7652
  173SAPS    HB19632   6.102   1.911   2.482 -0.0474 -0.6846  0.6525
  173SAPS    C219633   5.918   1.869   2.581 -0.0509 -0.6169 -0.1342
  173SAPS    HS19634   5.814   1.836   2.561  0.0069 -1.7732  1.2925
  173SAPS   O2119635   5.924   1.994   2.662 -0.1297  0.0896  0.3884
  173SAPS   C2119636   5.812   2.033   2.722 -0.0545 -0.0207 -0.6763
  173SAPS   O2219637   5.701   1.980   2.709  0.1400 -0.0694 -0.7496
  173SAPS   C2219638   5.842   2.127   2.833  0.5159  0.4886  0.4191
  173SAPS   H2R19639   5.909   2.209   2.799  3.0180 -2.1784 -1.6034
  173SAPS   H2S19640   5.745   2.169   2.868 -0.0540 -1.9662  2.0770
  173SAPS    C319641   5.997   1.758   2.651  0.7654  0.3831  0.3578
  173SAPS    HX19642   6.090   1.806   2.687  1.3536 -1.8268  2.0128
  173SAPS    HY19643   6.007   1.673   2.581 -1.7781  0.6905 -0.5109
  173SAPS   O3119644   5.928   1.698   2.764  0.3831 -0.5126 -0.8548
  173SAPS   C3119645   5.987   1.605   2.838  0.1835  0.2213  0.3481
  173SAPS   O3219646   6.095   1.556   2.814 -0.6613  0.2252 -0.1550
  173SAPS   C3219647   5.887   1.575   2.952  0.1500  0.5230 -0.1621
  173SAPS   H2X19648   5.844   1.473   2.945  1.4763  0.0493 -3.0162
  173SAPS   H2Y19649   5.810   1.656   2.953  1.1727  1.6400 -2.5858
  173SAPS   C2319650   5.898   2.040   2.946 -0.2247  0.1751  0.2676
  173SAPS   H3R19651   5.991   1.990   2.913  0.2844  2.3307 -1.8349
  173SAPS   H3S19652   5.827   1.956   2.960 -0.4468  0.4400  0.7539
  173SAPS   C2419653   5.922   2.114   3.076  0.3878  0.5179  0.7505
  173SAPS   H4R19654   5.825   2.157   3.108 -1.2589 -1.4679 -1.2311
  173SAPS   H4S19655   5.987   2.204   3.062  0.2942  0.4909  0.0797
  173SAPS   C2519656   5.997   2.030   3.178  0.1713  1.2181  0.0147
  173SAPS   H5R19657   6.101   2.002   3.156 -0.2353  1.2683 -2.1640
  173SAPS   C2619658   5.942   1.990   3.291 -0.1987  0.2376  0.4767
  173SAPS   H6R19659   6.012   1.935   3.356  0.3339  2.1757  1.6481
  173SAPS   C2719660   5.803   2.023   3.348  0.2175  0.4893 -0.1379
  173SAPS   H7R19661   5.742   2.065   3.264  1.1346 -0.6064 -1.3898
  173SAPS   H7S19662   5.817   2.099   3.428 -0.1099  1.4805 -0.9880
  173SAPS   C2819663   5.761   1.890   3.396 -0.5276 -0.1352  0.0010
  173SAPS   H8R19664   5.741   1.812   3.321  1.6549 -1.1666  0.4200
  173SAPS   C2919665   5.718   1.872   3.523 -0.2538  0.0082  0.5211
  173SAPS   H9R19666   5.684   1.774   3.562  1.2643 -0.9813 -0.5584
  173SAPS  C21019667   5.730   1.983   3.630 -0.7756  0.1208  0.5432
  173SAPS  H10R19668   5.674   2.076   3.604 -0.2408 -0.4625 -3.0736
  173SAPS  H10S19669   5.833   2.024   3.634 -1.2580  1.7311 -1.7212
  173SAPS  C21119670   5.681   1.938   3.770 -0.1758 -0.5089  1.0440
  173SAPS  H11R19671   5.595   1.998   3.805 -0.6254 -1.7791  2.1987
  173SAPS  C21219672   5.729   1.853   3.859 -0.2328  0.3588  0.2226
  173SAPS  H12R19673   5.676   1.830   3.953  0.5101 -1.1344  0.3039
  173SAPS  C21319674   5.852   1.776   3.848 -0.1343  0.0229 -0.3163
  173SAPS  H13R19675   5.890   1.768   3.744 -2.5536  0.8808 -1.3223
  173SAPS  H13S19676   5.834   1.669   3.874 -0.4073 -0.1341 -1.1133
  173SAPS  C21419677   5.962   1.818   3.948 -0.1172 -0.4445 -0.1319
  173SAPS  H14R19678   6.038   1.889   3.914  1.5002 -0.6173  2.8306
  173SAPS  C21519679   5.979   1.793   4.077 -1.0106 -0.4141 -0.0247
  173SAPS  H15R19680   6.076   1.832   4.111 -0.3306 -0.1507 -2.1224
  173SAPS  C21619681   5.901   1.703   4.173  0.1942  0.8426 -0.2103
  173SAPS  H16R19682   5.948   1.605   4.200 -2.1410 -0.3490 -0.2218
  173SAPS  H16S19683   5.804   1.676   4.126 -1.2571  2.0939  1.9073
  173SAPS  C21719684   5.864   1.776   4.302 -0.3545 -0.2202  0.3140
  173SAPS  H17R19685   5.826   1.880   4.297 -1.5217 -0.6310  0.3695
  173SAPS  H17S19686   5.961   1.784   4.356  0.3294  0.0012 -0.9028
  173SAPS  C21819687   5.787   1.691   4.400  0.5600 -0.2596  0.1591
  173SAPS  H18R19688   5.836   1.592   4.413  1.3504 -0.0295 -0.8800
  173SAPS  H18S19689   5.678   1.676   4.387  0.7103 -0.3960 -1.1057
  173SAPS  C21919690   5.787   1.754   4.536  0.2025 -0.2688 -0.3749
  173SAPS  H19R19691   5.726   1.846   4.533 -1.1584 -1.1660 -2.6537
  173SAPS  H19S19692   5.892   1.781   4.558  0.2149 -0.8806  0.3726
  173SAPS  C22019693   5.744   1.663   4.659  0.0408 -0.1049 -0.0615
  173SAPS  H20R19694   5.815   1.578   4.663  0.0309 -0.2723 -2.3951
  173SAPS  H20S19695   5.648   1.617   4.626  0.2333 -0.5479 -0.0121
  173SAPS  H20T19696   5.723   1.714   4.755 -2.4029  0.5025 -0.8474
  173SAPS   C3319697   5.967   1.577   3.088  0.0325 -0.3407 -0.5780
  173SAPS   H3X19698   6.001   1.678   3.120 -2.4818 -0.0049  1.3214
  173SAPS   H3Y19699   6.056   1.512   3.076  0.2278  0.1615 -2.0204
  173SAPS   C3419700   5.887   1.515   3.204  0.4310 -0.2831 -0.2410
  173SAPS   H4X19701   5.837   1.419   3.181  0.0222  0.2389 -1.7181
  173SAPS   H4Y19702   5.817   1.595   3.239  2.6099  0.8882  1.7452
  173SAPS   C3519703   5.979   1.487   3.320 -0.1022  0.1395  0.8496
  173SAPS   H5X19704   6.032   1.582   3.344  0.0633 -0.1391  1.6069
  173SAPS   H5Y19705   6.063   1.425   3.282  1.0630  1.8903  0.4238
  173SAPS   C3619706   5.914   1.441   3.448 -0.0853 -0.3083  0.4979
  173SAPS   H6X19707   5.874   1.338   3.439 -1.5362  0.2436  0.4502
  173SAPS   H6Y19708   5.821   1.501   3.461 -0.3971 -1.2268  3.1374
  173SAPS   C3719709   6.004   1.454   3.572 -0.1256 -0.3586 -0.3529
  173SAPS   H7X19710   6.047   1.555   3.555 -0.6740 -0.2248 -0.9995
  173SAPS   H7Y19711   6.082   1.376   3.555 -0.1015 -0.0023 -2.0732
  173SAPS   C3819712   5.938   1.445   3.708 -0.4960  0.3951  0.5917
  173SAPS   H8X19713   5.856   1.370   3.710 -3.0737  2.9919 -0.7586
  173SAPS   H8Y19714   5.878   1.537   3.715 -0.3952  0.5628 -0.5148
  173SAPS   C3919715   6.038   1.430   3.825  0.2110  0.7427 -0.4601
  173SAPS   H9X19716   6.093   1.526   3.838 -1.1853  1.3408  1.4420
  173SAPS   H9Y19717   6.113   1.360   3.784  0.2702  1.2657 -1.2697
  173SAPS  C31019718   5.985   1.376   3.959 -0.4436  0.2906  0.2501
  173SAPS  H10X19719   5.954   1.273   3.933 -2.7274  1.0899 -0.4975
  173SAPS  H10Y19720   5.895   1.436   3.987 -1.1660  0.0714 -1.4945
  173SAPS  C31119721   6.089   1.373   4.077  0.7101 -0.0354 -0.1035
  173SAPS  H11X19722   6.134   1.474   4.084 -1.4188  0.8415  3.7153
  173SAPS  H11Y19723   6.168   1.298   4.056  1.3976  0.3296  1.0902
  173SAPS  C31219724   6.027   1.326   4.209  0.6228 -0.2377  0.0347
  173SAPS  H12X19725   6.005   1.217   4.200  0.8222 -0.1110 -2.8184
  173SAPS  H12Y19726   5.929   1.374   4.233  1.0666  0.7727 -0.1432
  173SAPS  C31319727   6.111   1.372   4.326  0.4619  0.3823 -0.1951
  173SAPS  H13X19728   6.135   1.480   4.315 -2.4736  1.1562 -0.0471
  173SAPS  H13Y19729   6.207   1.316   4.333  1.5516  2.3036  1.0585
  173SAPS  C31419730   6.046   1.349   4.461 -0.1980 -0.2306 -0.3075
  173SAPS  H14X19731   5.968   1.426   4.481 -0.0192  0.1800 -1.1345
  173SAPS  H14Y19732   6.121   1.385   4.535 -1.6911  2.4498  0.0248
  173SAPS  C31519733   6.012   1.199   4.478 -0.8980  0.0522 -0.6759
  173SAPS  H15X19734   6.084   1.137   4.419  1.6187 -0.1388  2.3541
  173SAPS  H15Y19735   5.912   1.171   4.440 -0.1638 -2.9416 -0.6887
  173SAPS  C31619736   6.019   1.153   4.624 -0.2611 -0.2903  0.1306
  173SAPS  H16X19737   6.118   1.185   4.663  1.3764 -2.8368 -1.5850
  173SAPS  H16Y19738   6.013   1.042   4.618 -2.1180 -0.1306 -3.3038
  173SAPS  C31719739   5.915   1.212   4.711  0.2662  0.1595 -0.9663
  173SAPS  H17X19740   5.816   1.183   4.670 -1.0821  1.9056  0.8384
  173SAPS  H17Y19741   5.925   1.322   4.703 -1.4442  0.6509  2.0281
  173SAPS  C31819742   5.923   1.148   4.855 -1.0417  0.5584 -0.0813
  173SAPS  H18X19743   6.020   1.179   4.899  0.1389 -0.4239 -1.8046
  173SAPS  H18Y19744   5.922   1.037   4.847  0.7744  0.5987 -1.5463
  173SAPS  H18Z19745   5.842   1.186   4.919 -0.7353 -0.6581  1.0732
  174SAPS     N19746   2.259   0.824   1.963 -0.1042  0.2464 -0.7976
  174SAPS   HN119747   2.211   0.737   1.993 -1.4143  1.4703  0.8864
  174SAPS   HN219748   2.361   0.815   1.984 -0.3552  3.1728  2.8618
  174SAPS   HN319749   2.234   0.903   2.027 -0.2836 -1.7775  1.8020
  174SAPS   C1219750   2.232   0.863   1.822  0.2033 -0.4068  0.2794
  174SAPS  H12A19751   2.285   0.954   1.796 -1.1264 -0.1450 -1.6737
  174SAPS   C1319752   2.269   0.762   1.711  0.1184  0.3516 -0.0164
  174SAPS  O13A19753   2.313   0.651   1.746  0.4395  0.3243  0.5876
  174SAPS  O13B19754   2.242   0.790   1.591  0.2837 -0.0075  0.1985
  174SAPS   C1119755   2.082   0.906   1.822  0.6537  0.8448 -0.2223
  174SAPS  H11A19756   2.023   0.814   1.843 -0.6724  1.9668  1.2341
  174SAPS  H11B19757   2.056   0.936   1.718  0.2499  1.7742  0.1277
  174SAPS     P19758   1.897   1.053   1.924  0.4412 -0.3722  0.2102
  174SAPS   O1319759   1.895   1.197   1.962 -0.3249  0.8060  0.2114
  174SAPS   O1419760   1.823   1.015   1.798 -0.0849 -1.2236 -0.1957
  174SAPS   O1219761   2.044   1.015   1.907 -0.1664  0.2138 -0.5000
  174SAPS   O1119762   1.845   0.971   2.045  0.2116 -0.2318 -0.2398
  174SAPS    C119763   1.748   1.020   2.138  1.0090  0.2762  0.0735
  174SAPS    HA19764   1.670   1.074   2.081  1.7213 -0.4191 -1.6463
  174SAPS    HB19765   1.700   0.931   2.185  0.5286  0.7222  0.4352
  174SAPS    C219766   1.791   1.093   2.263  0.0212 -0.2387  0.2499
  174SAPS    HS19767   1.834   1.190   2.230  0.8768 -0.0300  1.9156
  174SAPS   O2119768   1.895   1.018   2.334 -0.0956 -0.0442 -0.4126
  174SAPS   C2119769   1.941   1.071   2.443 -0.5194 -0.2693 -0.2386
  174SAPS   O2219770   1.917   1.184   2.486 -0.4803  0.2416  0.7135
  174SAPS   C2219771   2.027   0.980   2.521 -0.6618  0.0317  0.0435
  174SAPS   H2R19772   2.111   0.966   2.451 -0.3987  3.0127 -0.3457
  174SAPS   H2S19773   2.061   1.024   2.617 -2.8289  0.1566  0.8284
  174SAPS    C319774   1.660   1.140   2.338  0.8178 -0.3853  0.1828
  174SAPS    HX19775   1.595   1.200   2.270  2.4887 -0.8562 -1.9161
  174SAPS    HY19776   1.690   1.213   2.416 -4.1137  0.8547  1.3010
  174SAPS   O3119777   1.595   1.026   2.398  0.1936 -0.4702 -0.1566
  174SAPS   C3119778   1.457   1.035   2.419  0.5649  0.0459  0.2174
  174SAPS   O3219779   1.387   1.132   2.400  0.1325 -0.2444  0.1856
  174SAPS   C3219780   1.393   0.910   2.475 -0.3466  0.0507  0.4067
  174SAPS   H2X19781   1.474   0.841   2.505 -0.0798 -0.0624 -0.5204
  174SAPS   H2Y19782   1.338   0.859   2.392  0.1032 -1.7453  1.1710
  174SAPS   C2319783   1.955   0.847   2.550 -0.7047 -0.8298 -0.2308
  174SAPS   H3R19784   2.029   0.765   2.561 -0.2806 -0.6077 -1.3726
  174SAPS   H3S19785   1.889   0.811   2.469  1.2734  1.2793 -2.9570
  174SAPS   C2419786   1.865   0.866   2.677 -0.3043  0.5583 -0.2162
  174SAPS   H4R19787   1.797   0.950   2.652 -1.8350 -0.2912  0.9247
  174SAPS   H4S19788   1.934   0.890   2.761  0.9247  0.2363 -1.1088
  174SAPS   C2519789   1.781   0.742   2.714 -0.4216 -0.7156 -0.6896
  174SAPS   H5R19790   1.743   0.672   2.638 -1.4753 -1.2776  0.3110
  174SAPS   C2619791   1.737   0.704   2.838  0.3411  0.4198  0.2489
  174SAPS   H6R19792   1.667   0.620   2.851 -0.5560  1.2678  1.0876
  174SAPS   C2719793   1.755   0.768   2.975  0.2222  0.0523  0.7677
  174SAPS   H7R19794   1.661   0.746   3.030 -0.3004  1.7467  0.6048
  174SAPS   H7S19795   1.748   0.876   2.952  0.4531  0.1689  1.2403
  174SAPS   C2819796   1.883   0.732   3.048 -0.1519  0.8826 -0.9019
  174SAPS   H8R19797   1.974   0.765   2.996 -0.1205  1.4378 -0.5040
  174SAPS   C2919798   1.887   0.654   3.160  0.4169 -0.3495  0.4094
  174SAPS   H9R19799   1.986   0.627   3.198  1.1341 -0.4941 -1.4450
  174SAPS  C21019800   1.770   0.642   3.256  1.3234  1.2053 -0.3683
  174SAPS  H10R19801   1.686   0.713   3.236 -1.4292 -1.8061 -0.2833
  174SAPS  H10S19802   1.797   0.675   3.359  0.4277 -2.6188  1.2382
  174SAPS  C21119803   1.732   0.500   3.268 -0.1482  0.2702  0.3243
  174SAPS  H11R19804   1.671   0.468   3.183 -0.8964 -1.3737  1.4285
  174SAPS  C21219805   1.764   0.404   3.361  0.1805  0.5050 -0.1938
  174SAPS  H12R19806   1.714   0.307   3.352 -0.1545  0.8202 -2.3014
  174SAPS  C21319807   1.828   0.417   3.497  0.7324  0.0973  0.2396
  174SAPS  H13R19808   1.840   0.313   3.533  0.7325  0.2471  0.6718
  174SAPS  H13S19809   1.763   0.460   3.575 -0.3937 -0.7413 -0.2090
  174SAPS  C21419810   1.966   0.473   3.508 -0.1699 -0.2704 -0.1588
  174SAPS  H14R19811   2.013   0.517   3.419 -2.0433  0.5712 -0.7950
  174SAPS  C21519812   2.049   0.446   3.608  0.3401 -0.4163 -0.5726
  174SAPS  H15R19813   2.150   0.489   3.615  0.2875 -0.2374 -0.8900
  174SAPS  C21619814   2.005   0.393   3.742  0.4423 -0.6621  0.5608
  174SAPS  H16R19815   1.895   0.400   3.756  0.2808  0.6622 -1.0194
  174SAPS  H16S19816   2.061   0.456   3.815  1.1114 -1.0350  0.3790
  174SAPS  C21719817   2.071   0.253   3.780  0.7142  0.1418 -0.3088
  174SAPS  H17R19818   2.172   0.247   3.735  1.1486 -3.1024  0.8738
  174SAPS  H17S19819   2.016   0.176   3.721  0.8801  1.0432 -1.6910
  174SAPS  C21819820   2.083   0.202   3.927  0.3091  0.4979 -0.7645
  174SAPS  H18R19821   1.976   0.201   3.957  0.6594 -1.7941  0.6294
  174SAPS  H18S19822   2.142   0.274   3.988  1.9190 -1.1885 -0.2600
  174SAPS  C21919823   2.136   0.053   3.948  0.0011 -0.6817 -0.4607
  174SAPS  H19R19824   2.247   0.060   3.947 -0.1014  2.6963  0.7870
  174SAPS  H19S19825   2.112  -0.005   3.857 -0.0118 -1.7435  0.2017
  174SAPS  C22019826   2.100  -0.021   4.078  0.7322  0.4250  0.5919
  174SAPS  H20R19827   2.133  -0.126   4.059 -1.9893 -0.4353 -0.0046
  174SAPS  H20S19828   1.989  -0.024   4.085  0.6956 -0.9673 -0.1346
  174SAPS  H20T19829   2.148   0.027   4.165 -0.5060  1.4417  0.7472
  174SAPS   C3319830   1.306   0.939   2.595 -0.6874  0.3727  0.3067
  174SAPS   H3X19831   1.245   0.848   2.611 -2.0082  0.7301 -2.1898
  174SAPS   H3Y19832   1.246   1.032   2.594  0.6848  1.3091  1.1103
  174SAPS   C3419833   1.407   0.963   2.709  0.3090  0.0211  0.5748
  174SAPS   H4X19834   1.400   1.065   2.753  0.6271  0.2013  0.2185
  174SAPS   H4Y19835   1.513   0.962   2.676 -0.3457 -0.0479 -1.6521
  174SAPS   C3519836   1.381   0.853   2.814 -0.4632 -0.1691  0.4878
  174SAPS   H5X19837   1.472   0.845   2.876  0.4587 -2.0107 -0.9892
  174SAPS   H5Y19838   1.384   0.752   2.768  0.4237 -0.9736  2.2179
  174SAPS   C3619839   1.245   0.865   2.885 -0.7107  0.4555  0.2802
  174SAPS   H6X19840   1.156   0.839   2.824 -2.5687  1.5135  2.4012
  174SAPS   H6Y19841   1.228   0.966   2.929 -0.8050  0.5173  0.1010
  174SAPS   C3719842   1.240   0.772   3.008 -0.4542 -0.8342  0.1562
  174SAPS   H7X19843   1.328   0.795   3.071  0.2654 -1.4954 -0.5751
  174SAPS   H7Y19844   1.245   0.669   2.965 -3.3605 -0.5710 -1.0027
  174SAPS   C3819845   1.116   0.784   3.085  0.2587 -0.3803 -0.1854
  174SAPS   H8X19846   1.033   0.734   3.031 -0.9472 -0.7127  1.8815
  174SAPS   H8Y19847   1.086   0.891   3.083  0.6531 -0.2773 -1.0472
  174SAPS   C3919848   1.129   0.727   3.230  0.2242  0.1106  0.0012
  174SAPS   H9X19849   1.218   0.766   3.284 -0.3093  2.2708 -0.5633
  174SAPS   H9Y19850   1.140   0.617   3.216  2.2686  0.0692  1.5718
  174SAPS  C31019851   1.006   0.741   3.319 -0.5590 -0.6916 -0.0493
  174SAPS  H10X19852   0.926   0.692   3.260 -1.2220 -1.1721  1.2292
  174SAPS  H10Y19853   0.980   0.850   3.317  0.3937 -0.4488 -2.0392
  174SAPS  C31119854   1.022   0.678   3.457  0.6049 -0.3512  0.1490
  174SAPS  H11X19855   1.000   0.755   3.534  4.3996  0.0490  1.0395
  174SAPS  H11Y19856   1.128   0.652   3.475  0.1857 -1.9096  0.4724
  174SAPS  C31219857   0.936   0.565   3.477  0.0092  0.1879 -0.1751
  174SAPS  H12X19858   0.937   0.490   3.395 -0.5748  0.3101 -0.3009
  174SAPS  H12Y19859   0.833   0.608   3.480  0.0244  0.3697 -1.5776
  174SAPS  C31319860   0.980   0.495   3.616  0.2583 -0.8108  0.0541
  174SAPS  H13X19861   0.971   0.570   3.698  0.8086  0.4458 -1.0013
  174SAPS  H13Y19862   1.087   0.471   3.597  0.4074  0.5840 -1.0096
  174SAPS  C31419863   0.914   0.360   3.632  0.4807  0.0890 -1.1210
  174SAPS  H14X19864   0.924   0.293   3.545 -1.3058 -1.9759  0.1721
  174SAPS  H14Y19865   0.805   0.383   3.643  0.2954 -0.9309 -0.7924
  174SAPS  C31519866   0.981   0.272   3.747  0.0354  0.2147  0.2598
  174SAPS  H15X19867   0.977   0.336   3.837 -2.4968  0.3372  0.1270
  174SAPS  H15Y19868   1.084   0.250   3.711  0.3311  2.1867 -0.2262
  174SAPS  C31619869   0.907   0.141   3.779 -0.3868 -0.4081 -0.6927
  174SAPS  H16X19870   0.898   0.078   3.689  1.7920  0.8311 -1.8682
  174SAPS  H16Y19871   0.801   0.163   3.806 -1.6758 -2.9707 -3.1418
  174SAPS  C31719872   0.959   0.057   3.900 -0.2578 -0.6435  0.5270
  174SAPS  H17X19873   1.068   0.041   3.885 -0.4404 -1.2041 -0.2565
  174SAPS  H17Y19874   0.911  -0.044   3.896 -1.4773 -0.1215 -3.7237
  174SAPS  C31819875   0.933   0.127   4.041 -0.5998  0.1946  0.1707
  174SAPS  H18X19876   0.958   0.060   4.126  1.5186  0.4217 -0.2134
  174SAPS  H18Y19877   0.826   0.155   4.046 -0.1755  1.7108  2.1897
  174SAPS  H18Z19878   1.000   0.216   4.044 -1.8431  1.1498  0.5056
  175SAPS     N19879   3.920   4.843   1.772 -0.3038  0.6165 -0.2635
  175SAPS   HN119880   3.985   4.858   1.852  0.7919  3.5529 -1.5568
  175SAPS   HN219881   3.850   4.772   1.799  0.9685 -0.6735 -0.2094
  175SAPS   HN319882   3.968   4.810   1.686  1.1184  1.3013  0.2383
  175SAPS   C1219883   3.863   4.979   1.746  0.6288  0.4719 -0.6724
  175SAPS  H12A19884   3.945   5.044   1.721  0.3294  1.0663 -0.1432
  175SAPS   C1319885   3.760   4.981   1.632 -0.4033 -0.3815  0.5445
  175SAPS  O13A19886   3.735   4.875   1.566  0.4115 -0.3889  0.3861
  175SAPS  O13B19887   3.708   5.093   1.595 -0.3035  0.2976 -0.4708
  175SAPS   C1119888   3.798   5.036   1.876 -0.7894 -0.7389  0.2663
  175SAPS  H11A19889   3.711   4.970   1.900 -0.4389 -1.1391  0.4505
  175SAPS  H11B19890   3.760   5.138   1.856 -1.8388 -1.0785  0.4627
  175SAPS     P19891   3.963   5.156   2.045 -0.0481 -0.2778 -0.1765
  175SAPS   O1319892   4.073   5.179   1.949  0.6722 -0.8152 -0.1785
  175SAPS   O1419893   3.876   5.274   2.071 -0.1084 -0.1911  0.2635
  175SAPS   O1219894   3.885   5.037   1.987  0.2954  0.3023 -0.5172
  175SAPS   O1119895   4.031   5.098   2.175  0.0213 -0.3337  0.5787
  175SAPS    C119896   3.964   4.993   2.250 -0.2961 -0.0146 -0.2005
  175SAPS    HA19897   3.872   5.035   2.296 -0.0837  1.0282 -0.7022
  175SAPS    HB19898   3.927   4.911   2.184 -1.5640  1.6320 -1.6098
  175SAPS    C219899   4.051   4.932   2.366 -0.1987  0.5387  0.5056
  175SAPS    HS19900   3.990   4.858   2.423 -0.7729 -1.2536 -2.2066
  175SAPS   O2119901   4.127   5.038   2.437 -0.3269 -0.1485 -0.5166
  175SAPS   C2119902   4.094   5.061   2.567  0.9436  1.3790 -0.3965
  175SAPS   O2219903   4.016   4.987   2.627 -0.5682  0.3354  0.0542
  175SAPS   C2219904   4.157   5.183   2.628  0.5387 -0.4140 -0.3034
  175SAPS   H2R19905   4.266   5.167   2.616  0.2808 -1.6558 -1.2115
  175SAPS   H2S19906   4.131   5.277   2.575 -2.6915 -0.2151  1.4117
  175SAPS    C319907   4.161   4.840   2.296  0.0952 -0.4315  0.3966
  175SAPS    HX19908   4.206   4.907   2.220 -0.2974 -0.2098  0.3554
  175SAPS    HY19909   4.103   4.759   2.247 -1.5127  1.3466 -0.7532
  175SAPS   O3119910   4.263   4.800   2.385 -0.7511 -0.3454 -0.0083
  175SAPS   C3119911   4.248   4.690   2.455 -0.1357  0.2889  0.1609
  175SAPS   O3219912   4.146   4.618   2.457  0.7892 -0.4300 -0.1559
  175SAPS   C3219913   4.378   4.659   2.540 -0.8778 -0.3593  0.4577
  175SAPS   H2X19914   4.451   4.734   2.503 -0.9273 -0.4014  0.2747
  175SAPS   H2Y19915   4.409   4.555   2.515  2.7235 -0.0017  2.7947
  175SAPS   C2319916   4.118   5.196   2.785  0.1374  0.1119  0.3422
  175SAPS   H3R19917   4.180   5.272   2.838  0.9053  0.8648 -1.5541
  175SAPS   H3S19918   4.152   5.098   2.827  0.5776 -0.0465 -0.3570
  175SAPS   C2419919   3.976   5.220   2.822 -0.4482  0.5185  0.2932
  175SAPS   H4R19920   3.961   5.203   2.931  0.1635  2.0661  0.6488
  175SAPS   H4S19921   3.913   5.143   2.773  0.4961  0.9570 -1.6951
  175SAPS   C2519922   3.932   5.358   2.803 -0.5857 -1.1575  0.8173
  175SAPS   H5R19923   3.940   5.386   2.697 -2.1062  1.9335  1.4123
  175SAPS   C2619924   3.876   5.441   2.893 -0.1115  0.2686  0.5130
  175SAPS   H6R19925   3.870   5.546   2.860 -0.6219 -0.5638 -2.3275
  175SAPS   C2719926   3.836   5.423   3.041  0.3395 -0.7692  0.2047
  175SAPS   H7R19927   3.774   5.331   3.047 -2.8648  1.2055 -0.5039
  175SAPS   H7S19928   3.773   5.511   3.064 -0.5144 -1.4681  0.5804
  175SAPS   C2819929   3.964   5.421   3.124 -0.5073  0.0656  0.1323
  175SAPS   H8R19930   4.061   5.419   3.071 -0.1583 -0.7438  0.7610
  175SAPS   C2919931   3.968   5.415   3.258  0.7518 -0.2094  0.6838
  175SAPS   H9R19932   4.069   5.422   3.300  0.5724  0.8607  0.9803
  175SAPS  C21019933   3.852   5.413   3.356  0.2818 -0.0189  0.4494
  175SAPS  H10R19934   3.783   5.328   3.338  2.5662 -1.7704 -0.5436
  175SAPS  H10S19935   3.789   5.502   3.337  1.2086  0.5110 -0.2760
  175SAPS  C21119936   3.896   5.426   3.498  0.1645 -0.3811  0.4779
  175SAPS  H11R19937   3.949   5.336   3.533  2.7667  0.6732 -0.4832
  175SAPS  C21219938   3.877   5.532   3.585 -0.0267  0.5381 -0.6704
  175SAPS  H12R19939   3.906   5.511   3.689 -0.5346 -0.0380 -0.6371
  175SAPS  C21319940   3.820   5.669   3.560 -0.0201 -0.3754  0.4472
  175SAPS  H13R19941   3.739   5.688   3.634  2.2610 -0.7718  3.2064
  175SAPS  H13S19942   3.773   5.671   3.459  1.1673 -0.6521 -0.1286
  175SAPS  C21419943   3.932   5.773   3.550 -0.1900 -0.0155  0.0755
  175SAPS  H14R19944   3.962   5.794   3.446  0.1132  1.1241  0.3761
  175SAPS  C21519945   3.996   5.842   3.644 -0.5020  0.4869  0.3240
  175SAPS  H15R19946   4.089   5.891   3.612 -0.7827  0.2263 -0.9337
  175SAPS  C21619947   3.982   5.836   3.793  0.7682 -0.4188 -0.2186
  175SAPS  H16R19948   3.943   5.738   3.827  0.1788 -0.9653 -2.3317
  175SAPS  H16S19949   3.906   5.911   3.825  1.3217 -0.3950  1.1309
  175SAPS  C21719950   4.117   5.872   3.865 -0.2216 -0.9305 -0.1348
  175SAPS  H17R19951   4.158   5.975   3.857  1.4779 -1.6871 -2.2252
  175SAPS  H17S19952   4.192   5.800   3.824 -0.4727 -2.8743  2.5216
  175SAPS  C21819953   4.119   5.841   4.013  0.4888 -0.1663 -0.8042
  175SAPS  H18R19954   4.126   5.731   4.029 -1.4351 -0.5220 -2.0325
  175SAPS  H18S19955   4.035   5.899   4.057  0.8461  0.3246 -0.7703
  175SAPS  C21919956   4.253   5.910   4.068 -0.1605  0.4954  0.0398
  175SAPS  H19R19957   4.233   6.019   4.061 -0.2163  0.4773 -0.0834
  175SAPS  H19S19958   4.332   5.872   3.999  1.2695 -2.1176  2.8523
  175SAPS  C22019959   4.280   5.872   4.213  0.0732  0.1069  0.3648
  175SAPS  H20R19960   4.388   5.889   4.233 -0.2471  0.1722  2.2250
  175SAPS  H20S19961   4.250   5.766   4.223  1.9332 -0.2912  2.6463
  175SAPS  H20T19962   4.214   5.930   4.282 -2.2070  0.3150 -1.8289
  175SAPS   C3319963   4.386   4.676   2.698 -0.0826 -0.3517 -0.2664
  175SAPS   H3X19964   4.470   4.618   2.743  1.1842  0.9170 -0.9335
  175SAPS   H3Y19965   4.291   4.631   2.734  0.1596  0.2752  1.2085
  175SAPS   C3419966   4.397   4.816   2.751 -0.0736 -0.5632 -0.5483
  175SAPS   H4X19967   4.305   4.868   2.715 -2.0957 -1.0598  3.4051
  175SAPS   H4Y19968   4.492   4.862   2.718 -0.5488  1.7070  1.0464
  175SAPS   C3519969   4.386   4.809   2.902 -0.5207 -0.2968 -0.3025
  175SAPS   H5X19970   4.480   4.762   2.938 -0.5140 -0.2450 -0.2520
  175SAPS   H5Y19971   4.299   4.746   2.934  0.2815 -0.6043  1.3921
  175SAPS   C3619972   4.377   4.945   2.967 -0.0163 -0.5115 -0.0798
  175SAPS   H6X19973   4.271   4.977   2.957 -0.7770 -2.6662  0.7030
  175SAPS   H6Y19974   4.441   5.012   2.905  2.1720 -0.4413  2.0960
  175SAPS   C3719975   4.391   4.947   3.119  0.1438  0.5328 -0.3380
  175SAPS   H7X19976   4.496   4.923   3.145 -0.2773 -2.2539 -0.9012
  175SAPS   H7Y19977   4.339   4.857   3.157  1.8028 -0.2936  0.0478
  175SAPS   C3819978   4.341   5.074   3.184  0.9739 -0.7089  0.4837
  175SAPS   H8X19979   4.234   5.051   3.206  0.4253 -0.1869 -1.4311
  175SAPS   H8Y19980   4.362   5.160   3.117 -0.4782 -0.7658 -0.0850
  175SAPS   C3919981   4.412   5.099   3.313 -0.8951  0.1165 -0.1998
  175SAPS   H9X19982   4.511   5.147   3.298 -0.2949 -0.9059  0.4077
  175SAPS   H9Y19983   4.421   5.000   3.362 -1.0099 -0.3374 -1.0894
  175SAPS  C31019984   4.319   5.176   3.405 -0.0180  0.6765  0.4605
  175SAPS  H10X19985   4.231   5.115   3.435  0.0760  0.9212  1.2300
  175SAPS  H10Y19986   4.291   5.269   3.350  1.0551 -0.2011 -1.6925
  175SAPS  C31119987   4.395   5.214   3.534 -0.5054  0.2374  0.2271
  175SAPS  H11X19988   4.487   5.266   3.502  0.1255 -1.3865 -0.7210
  175SAPS  H11Y19989   4.430   5.124   3.589 -0.7663  0.4619  0.7687
  175SAPS  C31219990   4.320   5.305   3.636  0.1715  0.0025  0.0915
  175SAPS  H12X19991   4.300   5.402   3.585 -0.8064  0.1547  0.7386
  175SAPS  H12Y19992   4.381   5.333   3.724 -1.0589  0.4579  0.8268
  175SAPS  C31319993   4.192   5.236   3.687  0.3265  0.0600  0.5839
  175SAPS  H13X19994   4.221   5.130   3.696  1.0475 -0.0136 -1.8834
  175SAPS  H13Y19995   4.104   5.260   3.622 -1.7974 -2.7337  2.2146
  175SAPS  C31419996   4.152   5.276   3.835 -0.5495  0.2679  0.8311
  175SAPS  H14X19997   4.170   5.384   3.849 -1.3909  0.4789  0.3060
  175SAPS  H14Y19998   4.212   5.214   3.905 -0.7142  0.2087  0.9203
  175SAPS  C31519999   4.006   5.251   3.872  0.8556  0.0650 -0.1243
  175SAPS  H15X20000   3.995   5.140   3.874  1.0107 -0.1380 -3.8112
  175SAPS  H15Y20001   3.939   5.289   3.792 -1.1291  0.3943  1.6135
  175SAPS  C31620002   3.969   5.326   4.003 -0.8581  0.1504  0.4320
  175SAPS  H16X20003   4.049   5.394   4.039 -0.6717  0.9483 -1.3477
  175SAPS  H16Y20004   3.939   5.253   4.081 -1.4032  2.3351  2.3796
  175SAPS  C31720005   3.847   5.414   3.975 -0.1268  0.0220 -0.5959
  175SAPS  H17X20006   3.759   5.352   3.948 -0.6115  0.9535 -1.2439
  175SAPS  H17Y20007   3.871   5.489   3.896 -0.4555 -0.1424 -0.8540
  175SAPS  C31820008   3.812   5.492   4.109  0.0025  1.0063 -0.1146
  175SAPS  H18X20009   3.906   5.546   4.129  0.2838  1.2078 -1.8091
  175SAPS  H18Y20010   3.787   5.414   4.185  0.5384  0.1622 -0.7815
  175SAPS  H18Z20011   3.728   5.556   4.074 -1.0389  0.4202  1.2234
  176SAPS     N20012   3.669   3.871   2.047 -0.3412 -0.4714  0.4827
  176SAPS   HN120013   3.659   3.768   2.035 -1.6970 -0.1767 -1.2433
  176SAPS   HN220014   3.747   3.912   1.993 -0.5135 -2.3201 -1.2974
  176SAPS   HN320015   3.681   3.889   2.149 -1.9345  0.3798  0.5509
  176SAPS   C1220016   3.547   3.934   1.989 -0.1758 -0.4381 -0.1997
  176SAPS  H12A20017   3.556   4.040   2.010 -1.8555 -0.2831 -0.1604
  176SAPS   C1320018   3.541   3.908   1.836  1.1789 -0.2004 -0.9494
  176SAPS  O13A20019   3.646   3.857   1.787 -0.3279 -0.0421  0.6246
  176SAPS  O13B20020   3.458   3.969   1.767 -0.1557 -0.6736  0.5488
  176SAPS   C1120021   3.413   3.886   2.064 -0.1676  0.9767  0.4861
  176SAPS  H11A20022   3.408   3.775   2.060  0.2621  0.9476  0.6864
  176SAPS  H11B20023   3.326   3.912   2.000 -0.6809  0.1616  0.8373
  176SAPS     P20024   3.265   3.933   2.269 -0.1706  0.4684 -0.1077
  176SAPS   O1320025   3.200   4.051   2.208 -0.4477 -0.1633  0.2480
  176SAPS   O1420026   3.201   3.799   2.248  0.1420  0.7300  0.0642
  176SAPS   O1220027   3.409   3.930   2.202  0.3947 -0.2828  0.2807
  176SAPS   O1120028   3.288   3.963   2.422 -0.0607 -0.7537 -0.3124
  176SAPS    C120029   3.397   4.028   2.478  0.7298  0.3328  0.3952
  176SAPS    HA20030   3.441   4.092   2.399  1.2358 -1.5590 -0.9242
  176SAPS    HB20031   3.367   4.093   2.563  2.4761  1.8843 -0.1199
  176SAPS    C220032   3.502   3.926   2.529  0.0222  0.5028 -0.1889
  176SAPS    HS20033   3.523   3.861   2.442 -0.8196  0.7868 -0.6082
  176SAPS   O2120034   3.448   3.851   2.645 -0.2500 -0.0043 -0.4982
  176SAPS   C2120035   3.525   3.752   2.684 -0.4566 -0.3394 -0.3844
  176SAPS   O2220036   3.614   3.702   2.618  0.1260  0.0761 -0.0061
  176SAPS   C2220037   3.496   3.726   2.834 -0.1399  0.4154  0.2624
  176SAPS   H2R20038   3.479   3.826   2.880 -1.0558 -0.4694  1.9407
  176SAPS   H2S20039   3.405   3.662   2.840  1.0736 -1.7332 -2.2781
  176SAPS    C320040   3.630   4.002   2.574  0.3432  0.5777 -0.0145
  176SAPS    HX20041   3.657   4.074   2.493  0.5648  0.2156 -0.2642
  176SAPS    HY20042   3.710   3.925   2.579  0.1346  0.3875  0.4853
  176SAPS   O3120043   3.619   4.053   2.705  0.6051 -0.0886 -0.8152
  176SAPS   C3120044   3.589   4.184   2.715 -0.6310  0.5876  0.0876
  176SAPS   O3220045   3.579   4.253   2.616  1.0488  0.3957 -0.3854
  176SAPS   C3220046   3.566   4.217   2.868 -0.0821  0.3821 -0.0267
  176SAPS   H2X20047   3.665   4.231   2.916  0.1670  2.0822 -0.9417
  176SAPS   H2Y20048   3.525   4.124   2.914  0.3245 -0.1914 -0.7953
  176SAPS   C2320049   3.608   3.657   2.919 -0.3619  0.2653 -0.0337
  176SAPS   H3R20050   3.696   3.713   2.879  0.4354  0.6316  2.0899
  176SAPS   H3S20051   3.626   3.554   2.881  0.2994  0.4469 -0.2334
  176SAPS   C2420052   3.612   3.675   3.074  0.1058  0.7548  0.6575
  176SAPS   H4R20053   3.603   3.783   3.099 -0.8964  0.6076  0.9634
  176SAPS   H4S20054   3.710   3.633   3.106 -0.1523 -0.9052 -0.5904
  176SAPS   C2520055   3.500   3.596   3.135 -0.5905  0.2665 -0.6916
  176SAPS   H5R20056   3.404   3.586   3.081 -0.8962 -1.7917  0.1249
  176SAPS   C2620057   3.504   3.531   3.255 -0.5850 -0.5358 -0.1708
  176SAPS   H6R20058   3.417   3.484   3.304  0.2951  1.1642  3.4059
  176SAPS   C2720059   3.628   3.539   3.346  1.3461  0.2047  0.3400
  176SAPS   H7R20060   3.646   3.646   3.371  0.0652  0.1642  1.5800
  176SAPS   H7S20061   3.720   3.498   3.300  1.5488  2.0255 -0.9503
  176SAPS   C2820062   3.594   3.462   3.471  0.5338 -0.0446  0.0405
  176SAPS   H8R20063   3.583   3.352   3.469  2.2721 -0.2750  0.8457
  176SAPS   C2920064   3.603   3.510   3.598  0.3534  0.5444  0.1008
  176SAPS   H9R20065   3.593   3.437   3.680  1.2556 -1.1586 -1.2194
  176SAPS  C21020066   3.644   3.649   3.643  0.0931 -0.2807  0.0668
  176SAPS  H10R20067   3.734   3.693   3.596 -0.1709  1.3160  0.9776
  176SAPS  H10S20068   3.668   3.636   3.751 -0.7486 -1.3382  0.1546
  176SAPS  C21120069   3.542   3.757   3.610  0.4809  1.0951  0.2488
  176SAPS  H11R20070   3.510   3.755   3.505  0.6923 -0.5798  0.1861
  176SAPS  C21220071   3.479   3.840   3.691  0.3459 -0.6606 -0.4749
  176SAPS  H12R20072   3.396   3.897   3.646 -0.0223 -0.3891  0.5336
  176SAPS  C21320073   3.485   3.859   3.839  1.0978  0.0081  0.2244
  176SAPS  H13R20074   3.499   3.966   3.868  1.8560  0.4840 -1.6793
  176SAPS  H13S20075   3.573   3.808   3.885  0.3851 -1.5407 -0.0805
  176SAPS  C21420076   3.358   3.819   3.904  0.2460  0.7004 -0.1221
  176SAPS  H14R20077   3.266   3.851   3.853 -0.7173 -1.5989  0.0134
  176SAPS  C21520078   3.346   3.738   4.016  0.2042 -0.5602 -0.0397
  176SAPS  H15R20079   3.242   3.727   4.049 -1.3338  2.4793 -3.2307
  176SAPS  C21620080   3.453   3.669   4.092  0.1494 -0.2151  0.0675
  176SAPS  H16R20081   3.461   3.717   4.192 -0.5042 -2.7136  1.3941
  176SAPS  H16S20082   3.545   3.666   4.031 -1.1686  0.4768 -2.0688
  176SAPS  C21720083   3.425   3.519   4.108  0.0741 -0.0261  0.3210
  176SAPS  H17R20084   3.429   3.472   4.008 -0.8159  2.8461 -1.1881
  176SAPS  H17S20085   3.320   3.509   4.141  0.2522 -0.7491  0.6968
  176SAPS  C21820086   3.528   3.450   4.195  0.3373  0.5737  0.2888
  176SAPS  H18R20087   3.627   3.476   4.152 -0.0626  1.2757 -0.2446
  176SAPS  H18S20088   3.507   3.341   4.201  0.2227  0.5832  0.0889
  176SAPS  C21920089   3.530   3.504   4.342  0.1750  0.2538  0.0069
  176SAPS  H19R20090   3.429   3.495   4.386 -0.1986  1.9701 -0.4407
  176SAPS  H19S20091   3.566   3.610   4.341  0.5212  0.1464 -1.5896
  176SAPS  C22020092   3.623   3.426   4.429 -0.1453  0.1233  0.0254
  176SAPS  H20R20093   3.724   3.448   4.387  0.4811 -1.2905  0.7125
  176SAPS  H20S20094   3.603   3.316   4.429 -0.7082  0.0905  3.9346
  176SAPS  H20T20095   3.625   3.467   4.532  1.6456  1.0238 -0.3279
  176SAPS   C3320096   3.467   4.337   2.883 -0.2093  0.6966 -0.1316
  176SAPS   H3X20097   3.362   4.307   2.860 -0.8254  1.6979  1.2393
  176SAPS   H3Y20098   3.492   4.409   2.802  0.2692 -0.4542 -1.0338
  176SAPS   C3420099   3.463   4.403   3.025 -0.2126 -0.1197  0.3628
  176SAPS   H4X20100   3.445   4.323   3.100 -2.5929  1.6747  1.8639
  176SAPS   H4Y20101   3.380   4.477   3.030  0.9874  1.3807 -0.8720
  176SAPS   C3520102   3.583   4.473   3.084 -0.1397  0.1738  1.0036
  176SAPS   H5X20103   3.592   4.560   3.016 -1.0913  0.2873  1.0197
  176SAPS   H5Y20104   3.674   4.411   3.069 -0.5835 -0.2324 -0.0507
  176SAPS   C3620105   3.587   4.526   3.228  0.2470 -0.0444 -0.0861
  176SAPS   H6X20106   3.677   4.590   3.235  0.0844  0.0342  1.4982
  176SAPS   H6Y20107   3.592   4.443   3.301  3.7546  0.1764  0.0608
  176SAPS   C3720108   3.465   4.615   3.264  0.7515 -1.2856 -0.7604
  176SAPS   H7X20109   3.378   4.550   3.285  0.2723 -0.6613 -0.7917
  176SAPS   H7Y20110   3.447   4.676   3.173  1.5004 -1.8701 -1.3226
  176SAPS   C3820111   3.494   4.713   3.385  0.0348 -0.4418  0.3482
  176SAPS   H8X20112   3.444   4.808   3.359  1.1830 -0.2579 -1.3475
  176SAPS   H8Y20113   3.603   4.732   3.372  0.0008  0.3515  1.1232
  176SAPS   C3920114   3.453   4.666   3.524  0.2058 -0.3570 -0.1053
  176SAPS   H9X20115   3.516   4.709   3.605  2.0930 -0.7388 -1.3075
  176SAPS   H9Y20116   3.455   4.555   3.523 -3.4038 -0.5792  1.6897
  176SAPS  C31020117   3.308   4.707   3.568  0.8647  0.1023  0.6762
  176SAPS  H10X20118   3.239   4.672   3.489 -1.2564  1.1866  1.9583
  176SAPS  H10Y20119   3.301   4.818   3.573  0.4871  0.2214 -1.5782
  176SAPS  C31120120   3.269   4.643   3.704  0.5759 -0.9669  0.5655
  176SAPS  H11X20121   3.267   4.532   3.695 -1.8759 -1.0840  1.7063
  176SAPS  H11Y20122   3.172   4.689   3.733  1.2274  1.9118 -1.3966
  176SAPS  C31220123   3.368   4.661   3.820  0.2139  0.1197 -0.3311
  176SAPS  H12X20124   3.394   4.768   3.837 -0.9599  0.3194  0.3624
  176SAPS  H12Y20125   3.466   4.612   3.805  1.4955  1.8506  1.8150
  176SAPS  C31320126   3.308   4.608   3.949 -0.6519  0.6477 -0.9693
  176SAPS  H13X20127   3.390   4.592   4.023 -1.9312  1.8790  0.7953
  176SAPS  H13Y20128   3.264   4.511   3.919 -0.1759 -1.0558  3.2095
  176SAPS  C31420129   3.195   4.701   4.003  0.0576  0.1118  0.1510
  176SAPS  H14X20130   3.100   4.689   3.946  0.9992  0.3645 -1.5153
  176SAPS  H14Y20131   3.231   4.804   3.985  2.0905  0.1756  3.6187
  176SAPS  C31520132   3.179   4.678   4.150 -0.1650  0.0518 -1.2889
  176SAPS  H15X20133   3.268   4.713   4.205 -1.7119  0.2532  1.2218
  176SAPS  H15Y20134   3.175   4.573   4.186  1.6742  0.2500 -0.4082
  176SAPS  C31620135   3.062   4.759   4.213 -0.2784 -0.5260 -0.7557
  176SAPS  H16X20136   3.074   4.865   4.183  0.7180 -0.1177  0.9797
  176SAPS  H16Y20137   3.057   4.749   4.323  2.7458  0.0302 -0.5025
  176SAPS  C31720138   2.920   4.710   4.166 -0.1499 -0.8607 -0.5054
  176SAPS  H17X20139   2.924   4.601   4.183 -2.8617 -0.8908  0.4419
  176SAPS  H17Y20140   2.897   4.712   4.058 -2.1494 -2.0767 -0.1473
  176SAPS  C31820141   2.801   4.774   4.239  0.3798  0.8375  0.1359
  176SAPS  H18X20142   2.711   4.720   4.203  2.3091 -1.3562 -1.6447
  176SAPS  H18Y20143   2.795   4.881   4.210  1.2059  0.6954 -0.6171
  176SAPS  H18Z20144   2.819   4.768   4.349 -0.0864  1.0744  0.2288
  177SAPS     N20145   0.205   5.688   2.010  0.0453 -0.0132  0.0848
  177SAPS   HN120146   0.289   5.688   1.949 -0.6873  0.3068 -0.9662
  177SAPS   HN220147   0.187   5.788   2.033  2.9294  0.0902  2.5574
  177SAPS   HN320148   0.243   5.652   2.100 -1.1465 -0.1462  0.5551
  177SAPS   C1220149   0.095   5.600   1.946  0.4403 -0.4756 -0.7708
  177SAPS  H12A20150   0.017   5.598   2.021  1.0110 -0.4384 -0.1638
  177SAPS   C1320151   0.048   5.657   1.814 -0.3308  0.4676 -0.0955
  177SAPS  O13A20152   0.054   5.781   1.788 -0.0763  0.7204 -0.2519
  177SAPS  O13B20153  -0.041   5.585   1.756 -0.8135 -0.2226 -0.1034
  177SAPS   C1120154   0.162   5.462   1.920  0.3824  0.3390  0.8842
  177SAPS  H11A20155   0.223   5.457   1.827 -2.2153 -1.8548 -0.8494
  177SAPS  H11B20156   0.078   5.392   1.899  0.6423  0.3242 -0.1450
  177SAPS     P20157   0.304   5.268   2.025 -0.1652  0.1634 -0.7807
  177SAPS   O1320158   0.215   5.166   1.965 -0.4184 -0.0743  0.2779
  177SAPS   O1420159   0.443   5.296   1.971  0.2096 -0.2687  0.1982
  177SAPS   O1220160   0.232   5.408   2.030 -0.1963 -0.1747  0.1407
  177SAPS   O1120161   0.306   5.226   2.179 -0.8308  0.0465 -0.2947
  177SAPS    C120162   0.183   5.202   2.254 -0.5090 -0.2031 -0.3645
  177SAPS    HA20163   0.097   5.231   2.191 -1.5368 -1.1805  0.5400
  177SAPS    HB20164   0.170   5.094   2.278 -3.4263 -0.3606 -2.1057
  177SAPS    C220165   0.185   5.280   2.389  0.4814  0.2163  0.4485
  177SAPS    HS20166   0.243   5.372   2.367  0.3280 -0.0385 -1.1358
  177SAPS   O2120167   0.259   5.199   2.489  0.0838 -0.6854 -0.6963
  177SAPS   C2120168   0.376   5.239   2.531 -0.7673 -0.2102  0.0156
  177SAPS   O2220169   0.421   5.351   2.520  0.4469  0.6213 -0.1314
  177SAPS   C2220170   0.437   5.125   2.613  0.3244 -0.1363 -0.2052
  177SAPS   H2R20171   0.366   5.103   2.695 -0.6810 -1.9475 -1.4842
  177SAPS   H2S20172   0.436   5.035   2.548 -3.6698 -0.6372  0.2922
  177SAPS    C320173   0.042   5.328   2.433  0.3678 -0.9002 -0.4126
  177SAPS    HX20174  -0.029   5.242   2.435  0.0560 -0.6224  1.1050
  177SAPS    HY20175   0.009   5.414   2.371 -1.9762 -0.5303  1.2313
  177SAPS   O3120176   0.053   5.380   2.564 -0.0418 -0.3974 -0.2749
  177SAPS   C3120177   0.046   5.298   2.673  0.2972 -0.7151  0.0994
  177SAPS   O3220178   0.027   5.177   2.673 -0.2660  0.0067  0.3273
  177SAPS   C3220179   0.062   5.376   2.809  0.1209 -0.4851  0.4688
  177SAPS   H2X20180  -0.041   5.405   2.839 -0.4786 -1.7426 -0.2845
  177SAPS   H2Y20181   0.120   5.469   2.789 -0.2765  0.1439  2.0863
  177SAPS   C2320182   0.578   5.139   2.669  0.0068  0.0189  0.1906
  177SAPS   H3R20183   0.568   5.219   2.746 -0.8153 -0.4612  0.5977
  177SAPS   H3S20184   0.653   5.178   2.597  1.1290  0.9736  1.7940
  177SAPS   C2420185   0.634   5.008   2.725  0.0087 -1.1052 -0.3045
  177SAPS   H4R20186   0.644   4.934   2.643  1.1235  1.1794 -2.3878
  177SAPS   H4S20187   0.558   4.967   2.794 -0.4789 -2.2709 -1.4994
  177SAPS   C2520188   0.772   5.015   2.782  0.7312  0.1593 -0.0817
  177SAPS   H5R20189   0.858   4.989   2.719  2.6647  0.2749  2.3367
  177SAPS   C2620190   0.798   5.024   2.916 -0.4538  0.0026 -0.0778
  177SAPS   H6R20191   0.901   5.032   2.954 -0.9721 -1.3657  1.7612
  177SAPS   C2720192   0.706   5.054   3.030  0.9976  0.4155 -0.1029
  177SAPS   H7R20193   0.604   5.046   2.987  1.4754 -0.2183 -1.1703
  177SAPS   H7S20194   0.722   5.159   3.063 -2.1645  0.9151  0.0705
  177SAPS   C2820195   0.714   4.969   3.152  0.6493  0.2036  0.7385
  177SAPS   H8R20196   0.667   4.872   3.131  2.9582 -1.2281  1.8085
  177SAPS   C2920197   0.770   4.999   3.271 -0.2841 -0.7347 -0.5596
  177SAPS   H9R20198   0.767   4.924   3.351 -0.1660  0.5481  0.6865
  177SAPS  C21020199   0.850   5.124   3.309  0.3368 -0.5314 -0.0214
  177SAPS  H10R20200   0.798   5.175   3.392  1.2065 -1.2075  0.9848
  177SAPS  H10S20201   0.857   5.196   3.225 -1.8065 -0.7457 -0.4205
  177SAPS  C21120202   0.985   5.082   3.355  0.6548  0.1239 -0.6323
  177SAPS  H11R20203   1.064   5.077   3.278  0.2256 -0.2622 -1.0487
  177SAPS  C21220204   1.018   5.055   3.483 -0.3397  0.5625 -0.4525
  177SAPS  H12R20205   1.120   5.029   3.517 -1.1568  0.3715  2.0763
  177SAPS  C21320206   0.923   5.062   3.601  0.8990  0.0518  0.4306
  177SAPS  H13R20207   0.927   4.973   3.667 -1.3265  0.0517  0.6544
  177SAPS  H13S20208   0.817   5.062   3.569  1.0280 -1.4266 -0.0668
  177SAPS  C21420209   0.938   5.194   3.677 -0.1232 -0.2682 -0.0976
  177SAPS  H14R20210   0.934   5.283   3.612 -0.0577 -0.0323  0.2222
  177SAPS  C21520211   0.955   5.200   3.813 -0.3640 -0.6855  0.4764
  177SAPS  H15R20212   0.978   5.297   3.859 -2.1632  0.5595 -1.0659
  177SAPS  C21620213   0.966   5.085   3.906  0.1204 -0.1337 -0.2681
  177SAPS  H16R20214   0.879   5.018   3.889  0.8044 -0.6869 -1.8246
  177SAPS  H16S20215   0.954   5.121   4.010  1.0805 -1.7597  0.4469
  177SAPS  C21720216   1.098   5.019   3.896 -0.2829 -0.0566  0.5476
  177SAPS  H17R20217   1.181   5.078   3.941 -1.2647  0.4856  1.6876
  177SAPS  H17S20218   1.123   5.007   3.788  0.4637  1.4539  0.5238
  177SAPS  C21820219   1.102   4.878   3.961  0.5019 -0.5671  0.5728
  177SAPS  H18R20220   1.172   4.824   3.893  0.9354  0.5585  0.0920
  177SAPS  H18S20221   1.007   4.821   3.955 -1.9125  3.1271  0.5119
  177SAPS  C21920222   1.156   4.870   4.106  0.4960  0.2729  0.1683
  177SAPS  H19R20223   1.108   4.945   4.172  1.1838  0.6409  0.2610
  177SAPS  H19S20224   1.262   4.903   4.105 -0.1111  2.3599  0.0219
  177SAPS  C22020225   1.135   4.730   4.166  0.2854  0.0606 -0.0228
  177SAPS  H20R20226   1.027   4.709   4.181  0.1868 -0.1518 -0.9717
  177SAPS  H20S20227   1.192   4.714   4.259  1.5975  2.8567 -0.2270
  177SAPS  H20T20228   1.177   4.653   4.097 -3.1313 -3.6290  1.6384
  177SAPS   C3320229   0.145   5.296   2.913  0.4972  0.0822  0.0486
  177SAPS   H3X20230   0.246   5.280   2.871 -0.0998 -0.1695 -1.3295
  177SAPS   H3Y20231   0.107   5.191   2.915  1.3624 -0.2369  0.4622
  177SAPS   C3420232   0.157   5.363   3.054 -0.4426  0.0219  0.2304
  177SAPS   H4X20233   0.055   5.376   3.096 -1.0829 -0.1056 -1.2176
  177SAPS   H4Y20234   0.194   5.466   3.036  0.7113 -0.0861  1.8096
  177SAPS   C3520235   0.253   5.294   3.145  0.1189  0.4449 -0.0876
  177SAPS   H5X20236   0.355   5.287   3.102  0.6606  0.0473  1.2492
  177SAPS   H5Y20237   0.203   5.197   3.162  0.8450 -0.1255 -1.0919
  177SAPS   C3620238   0.266   5.348   3.285 -0.7287 -0.7001  0.6435
  177SAPS   H6X20239   0.177   5.409   3.310  0.6944  1.3026  1.0026
  177SAPS   H6Y20240   0.337   5.433   3.283 -0.3393 -1.0271 -1.2946
  177SAPS   C3720241   0.286   5.247   3.396 -0.1170  0.5605  0.3973
  177SAPS   H7X20242   0.389   5.213   3.418 -0.4998  0.9260  3.1195
  177SAPS   H7Y20243   0.218   5.162   3.374 -1.0074  1.7744 -1.8151
  177SAPS   C3820244   0.220   5.303   3.520 -0.2117 -0.0267  0.0102
  177SAPS   H8X20245   0.113   5.328   3.503 -0.3891 -1.3859 -1.0479
  177SAPS   H8Y20246   0.269   5.399   3.544 -0.8996 -0.2072  2.4220
  177SAPS   C3920247   0.228   5.207   3.639 -0.4677  0.3182 -0.1704
  177SAPS   H9X20248   0.336   5.182   3.654  0.0407  1.8147 -1.1666
  177SAPS   H9Y20249   0.173   5.113   3.616 -1.2286  0.5845  0.5325
  177SAPS  C31020250   0.195   5.288   3.764 -0.5127  0.6168  0.1834
  177SAPS  H10X20251   0.097   5.340   3.752 -1.6730 -1.4863  0.2024
  177SAPS  H10Y20252   0.282   5.357   3.773  0.4418 -0.0718 -2.7558
  177SAPS  C31120253   0.187   5.196   3.886  0.1362 -0.3000 -0.4456
  177SAPS  H11X20254   0.285   5.150   3.912  0.4752  1.0302  0.7959
  177SAPS  H11Y20255   0.121   5.111   3.857  0.9411 -0.1339 -3.0443
  177SAPS  C31220256   0.128   5.277   4.007 -0.2662 -0.5034  0.2947
  177SAPS  H12X20257   0.042   5.340   3.973 -0.0589 -0.5798 -0.3911
  177SAPS  H12Y20258   0.204   5.355   4.030  0.9175 -0.9838 -1.7582
  177SAPS  C31320259   0.092   5.185   4.124 -0.1593  0.5447 -0.0797
  177SAPS  H13X20260   0.185   5.140   4.165 -0.1092  1.8090  1.2940
  177SAPS  H13Y20261   0.026   5.105   4.085  0.5043  0.3506 -0.8262
  177SAPS  C31420262   0.033   5.255   4.245 -0.5731 -0.0524  0.2839
  177SAPS  H14X20263  -0.052   5.320   4.215  0.5796  1.5165  0.2595
  177SAPS  H14Y20264   0.105   5.335   4.275  0.0631 -0.2009 -0.7745
  177SAPS  C31520265   0.002   5.164   4.371 -0.3117 -0.0735  0.1590
  177SAPS  H15X20266   0.089   5.097   4.391 -1.9952 -1.7535  2.4276
  177SAPS  H15Y20267  -0.084   5.105   4.333  0.8475 -0.8860 -1.3249
  177SAPS  C31620268  -0.044   5.241   4.495  0.7088 -0.1285  0.9296
  177SAPS  H16X20269  -0.142   5.284   4.467 -0.5661 -2.3644  1.6460
  177SAPS  H16Y20270   0.027   5.320   4.528  1.2404 -0.5154  0.7331
  177SAPS  C31720271  -0.074   5.153   4.613  0.5896  0.1295 -0.0809
  177SAPS  H17X20272   0.017   5.113   4.663 -0.4339 -1.8086  0.3181
  177SAPS  H17Y20273  -0.131   5.067   4.572 -0.8613 -0.8523  3.6284
  177SAPS  C31820274  -0.161   5.225   4.724 -0.3415  0.4867 -0.3415
  177SAPS  H18X20275  -0.100   5.294   4.787 -0.9328  1.2785 -0.6140
  177SAPS  H18Y20276  -0.216   5.152   4.786  0.2105  1.3438  1.2181
  177SAPS  H18Z20277  -0.239   5.288   4.675  0.2840 -0.0765 -2.1312
  178SAPS     N20278   4.938   2.225   2.117 -0.3111 -0.2547 -0.0096
  178SAPS   HN120279   4.883   2.313   2.110  0.0348 -0.0371 -0.0571
  178SAPS   HN220280   4.897   2.153   2.181  0.5793  0.3557  1.3066
  178SAPS   HN320281   5.031   2.250   2.156 -1.3509 -0.4290  2.8494
  178SAPS   C1220282   4.956   2.156   1.986  0.1793  0.1498 -0.0548
  178SAPS  H12A20283   4.851   2.138   1.968 -0.5730  2.1148  1.9081
  178SAPS   C1320284   5.007   2.252   1.879  0.2611 -0.0317  0.0428
  178SAPS  O13A20285   4.973   2.373   1.890  0.0351  0.2736 -0.0516
  178SAPS  O13B20286   5.023   2.197   1.763  0.2163  0.0341  0.4938
  178SAPS   C1120287   5.050   2.032   1.997 -0.3737  0.1341 -0.3363
  178SAPS  H11A20288   5.147   2.079   2.024 -1.9587  2.9801  0.8578
  178SAPS  H11B20289   5.043   1.968   1.907  1.1428 -1.6587  0.7563
  178SAPS     P20290   5.076   1.814   2.145  0.3940 -0.1810  0.0686
  178SAPS   O1320291   5.038   1.713   2.039  1.2221 -0.3555 -0.1840
  178SAPS   O1420292   5.223   1.839   2.166 -0.0990  0.3543  0.5449
  178SAPS   O1220293   5.014   1.955   2.117  0.1414  0.0350 -0.0741
  178SAPS   O1120294   5.014   1.771   2.287  0.5847  0.3781  0.1614
  178SAPS    C120295   5.017   1.874   2.387 -0.1071  0.6268 -0.0100
  178SAPS    HA20296   5.045   1.976   2.353 -1.8702  1.4994  1.0062
  178SAPS    HB20297   4.914   1.894   2.422 -0.7421 -1.0513 -0.8076
  178SAPS    C220298   5.101   1.822   2.506 -0.7491 -0.1895  0.2710
  178SAPS    HS20299   5.189   1.770   2.463  2.4712  1.7838  3.8211
  178SAPS   O2120300   5.030   1.728   2.581 -0.6000  0.3317  0.5967
  178SAPS   C2120301   5.088   1.661   2.674 -0.3293  0.3843  0.4106
  178SAPS   O2220302   5.215   1.654   2.681 -0.2012  0.3893 -0.6282
  178SAPS   C2220303   4.980   1.574   2.746  0.1881  0.3445 -0.3777
  178SAPS   H2R20304   4.910   1.540   2.667  1.4910 -2.5551 -0.3942
  178SAPS   H2S20305   5.021   1.482   2.793 -2.5869 -0.1136  1.3658
  178SAPS    C320306   5.150   1.949   2.590  0.5330  0.0404 -0.8099
  178SAPS    HX20307   5.222   2.013   2.536  1.4911  1.1533  1.6671
  178SAPS    HY20308   5.220   1.914   2.669 -0.4092  2.7130  1.3582
  178SAPS   O3120309   5.042   2.028   2.656 -0.0556 -0.4728 -0.3966
  178SAPS   C3120310   5.020   2.145   2.604  0.0504  0.8918 -0.6869
  178SAPS   O3220311   5.046   2.183   2.490 -0.7202  0.6166  0.1725
  178SAPS   C3220312   4.939   2.233   2.699 -0.3865  0.6579  0.2001
  178SAPS   H2X20313   4.837   2.245   2.656 -1.3049  1.0297  2.3602
  178SAPS   H2Y20314   4.989   2.331   2.687 -0.1833  0.3720 -1.6230
  178SAPS   C2320315   4.892   1.646   2.852 -0.2340 -0.3982  0.1821
  178SAPS   H3R20316   4.796   1.592   2.868 -0.0416 -1.0832 -0.8981
  178SAPS   H3S20317   4.866   1.744   2.807  0.4332 -0.0011  0.6480
  178SAPS   C2420318   4.955   1.665   2.989 -0.7463  0.0687  0.4992
  178SAPS   H4R20319   4.920   1.752   3.049 -0.5761  0.3754  0.1545
  178SAPS   H4S20320   5.060   1.698   2.977 -1.1115  0.6176 -1.5584
  178SAPS   C2520321   4.948   1.539   3.071  0.4295  0.4875  0.5508
  178SAPS   H5R20322   5.040   1.479   3.071  0.4327  0.4670 -0.7345
  178SAPS   C2620323   4.830   1.508   3.135 -0.6948 -0.2272 -0.4021
  178SAPS   H6R20324   4.815   1.409   3.180  1.6590 -0.2030  0.5942
  178SAPS   C2720325   4.717   1.611   3.149 -0.3594  0.6876  0.2634
  178SAPS   H7R20326   4.631   1.575   3.089 -1.2952  2.1994  0.6446
  178SAPS   H7S20327   4.732   1.715   3.112  0.4031  0.5055  0.0264
  178SAPS   C2820328   4.690   1.608   3.303 -0.4699  0.3414  0.0144
  178SAPS   H8R20329   4.762   1.661   3.367  0.3496 -0.0105 -0.5933
  178SAPS   C2920330   4.572   1.590   3.362 -0.3897 -0.3970 -0.2267
  178SAPS   H9R20331   4.567   1.591   3.472  0.4973 -0.8605 -0.1759
  178SAPS  C21020332   4.439   1.569   3.291 -0.4039 -0.7744  0.4382
  178SAPS  H10R20333   4.415   1.461   3.280 -1.1287 -0.5648 -0.0908
  178SAPS  H10S20334   4.451   1.616   3.191 -0.0245 -0.1287  0.7833
  178SAPS  C21120335   4.328   1.633   3.376 -0.2647  0.4060 -0.0059
  178SAPS  H11R20336   4.359   1.726   3.427  0.7257 -0.4674  1.0484
  178SAPS  C21220337   4.203   1.585   3.393  0.2093 -0.5542  1.0759
  178SAPS  H12R20338   4.132   1.644   3.453 -1.6055  0.2359 -1.6744
  178SAPS  C21320339   4.134   1.461   3.338  0.0082 -0.5169 -0.2115
  178SAPS  H13R20340   4.089   1.404   3.423 -0.0318 -1.0550 -0.5889
  178SAPS  H13S20341   4.214   1.391   3.303  0.4711  0.0347 -0.2768
  178SAPS  C21420342   4.038   1.459   3.227  0.3244  0.3772 -0.0517
  178SAPS  H14R20343   4.062   1.529   3.146  1.9455 -0.0196  0.0537
  178SAPS  C21520344   3.937   1.371   3.205  0.2732  0.2540  0.0578
  178SAPS  H15R20345   3.872   1.393   3.119  1.0871 -1.9400 -1.1812
  178SAPS  C21620346   3.891   1.256   3.303 -0.6139 -0.3878 -0.4784
  178SAPS  H16R20347   3.828   1.313   3.375  0.8543  3.1120 -1.6947
  178SAPS  H16S20348   3.979   1.210   3.352 -1.0176 -1.9484 -1.1746
  178SAPS  C21720349   3.803   1.146   3.234 -0.6387 -0.5875 -0.6439
  178SAPS  H17R20350   3.865   1.104   3.153 -0.2473 -1.7556  0.2248
  178SAPS  H17S20351   3.708   1.182   3.189 -0.2226  1.8436  0.2429
  178SAPS  C21820352   3.771   1.036   3.331  0.4110 -0.3368  0.1158
  178SAPS  H18R20353   3.743   1.079   3.429 -2.1950 -2.4277  0.4045
  178SAPS  H18S20354   3.863   0.980   3.355  0.1851 -2.1397 -2.7039
  178SAPS  C21920355   3.678   0.925   3.284  0.7962 -0.0881  0.6213
  178SAPS  H19R20356   3.740   0.853   3.225  0.3934 -1.4081  1.7339
  178SAPS  H19S20357   3.600   0.973   3.222  0.7899 -1.9727 -0.9218
  178SAPS  C22020358   3.621   0.836   3.398 -0.2784 -0.2003  0.0025
  178SAPS  H20R20359   3.710   0.784   3.440 -0.9002 -0.3439  1.1791
  178SAPS  H20S20360   3.547   0.761   3.363 -0.8288  0.6031 -0.5791
  178SAPS  H20T20361   3.561   0.893   3.471 -2.5565 -1.6395 -0.6456
  178SAPS   C3320362   4.938   2.178   2.846 -0.3231 -0.3386 -0.3527
  178SAPS   H3X20363   5.036   2.153   2.893 -0.6392 -1.5506 -0.3064
  178SAPS   H3Y20364   4.881   2.083   2.846 -1.1181  0.1217  0.3753
  178SAPS   C3420365   4.867   2.271   2.947  0.3796  0.3425 -0.7926
  178SAPS   H4X20366   4.779   2.321   2.902 -0.7071 -1.1745 -0.4381
  178SAPS   H4Y20367   4.944   2.350   2.962 -0.1958  0.6959  0.3863
  178SAPS   C3520368   4.818   2.196   3.070  0.4288 -0.1503 -0.2458
  178SAPS   H5X20369   4.891   2.121   3.109 -0.0266 -0.3080  0.3150
  178SAPS   H5Y20370   4.729   2.137   3.042  0.0078  0.6248 -0.5540
  178SAPS   C3620371   4.784   2.300   3.185 -0.0934 -0.4329  0.0818
  178SAPS   H6X20372   4.746   2.394   3.140 -1.3350 -0.7640  0.4233
  178SAPS   H6Y20373   4.885   2.321   3.228  0.6543  1.0477 -2.1693
  178SAPS   C3720374   4.687   2.253   3.289  1.2662 -0.1768 -0.1693
  178SAPS   H7X20375   4.721   2.163   3.344 -0.4297  0.8429  2.7944
  178SAPS   H7Y20376   4.595   2.229   3.233  1.8611 -2.3327 -0.2975
  178SAPS   C3820377   4.670   2.358   3.405  0.4170 -0.4142 -0.0734
  178SAPS   H8X20378   4.561   2.352   3.426  0.3508 -1.6871 -0.6864
  178SAPS   H8Y20379   4.693   2.456   3.357  0.5124 -0.8136 -0.8522
  178SAPS   C3920380   4.751   2.342   3.531  0.0937 -0.1640  0.0187
  178SAPS   H9X20381   4.743   2.435   3.591 -0.2921 -0.4071  0.3486
  178SAPS   H9Y20382   4.856   2.352   3.494 -0.6091  2.0756 -1.6014
  178SAPS  C31020383   4.714   2.223   3.625 -0.5657  0.0965 -0.9289
  178SAPS  H10X20384   4.718   2.128   3.567 -1.0802 -0.2050 -0.4817
  178SAPS  H10Y20385   4.607   2.231   3.655  0.0469 -1.8778  2.1835
  178SAPS  C31120386   4.811   2.214   3.744 -0.7556  0.0163  0.5217
  178SAPS  H11X20387   4.801   2.307   3.804  0.4740 -1.7481  3.7310
  178SAPS  H11Y20388   4.909   2.204   3.691 -0.7472  1.4903  0.1999
  178SAPS  C31220389   4.799   2.093   3.838  0.3702  0.4957 -0.2699
  178SAPS  H12X20390   4.816   2.003   3.776 -3.2262 -1.1184  0.8683
  178SAPS  H12Y20391   4.697   2.070   3.875  0.5202 -1.0772 -0.7691
  178SAPS  C31320392   4.905   2.079   3.953 -0.1710  0.2581  0.0627
  178SAPS  H13X20393   5.006   2.097   3.910  1.1632 -1.8096  2.1129
  178SAPS  H13Y20394   4.910   1.978   3.999  1.3358  0.8327  1.2522
  178SAPS  C31420395   4.887   2.186   4.066  0.6615  0.0522  0.3743
  178SAPS  H14X20396   4.779   2.194   4.090  0.6588  3.6650 -0.3062
  178SAPS  H14Y20397   4.908   2.280   4.010 -3.2070  0.3659 -0.8409
  178SAPS  C31520398   4.958   2.159   4.200  1.1752 -0.1883 -0.3297
  178SAPS  H15X20399   5.067   2.145   4.180  1.5339  2.4914 -0.6187
  178SAPS  H15Y20400   4.911   2.063   4.230 -0.8272  1.3767  1.8574
  178SAPS  C31620401   4.932   2.261   4.306 -0.2355 -0.0776  0.0176
  178SAPS  H16X20402   4.825   2.294   4.304  0.4906  2.4019 -1.4202
  178SAPS  H16Y20403   4.986   2.349   4.266 -1.0497  0.3370 -0.2088
  178SAPS  C31720404   4.979   2.222   4.442 -0.3252 -0.5515 -0.3942
  178SAPS  H17X20405   5.079   2.173   4.436  0.0608 -0.0067  1.1438
  178SAPS  H17Y20406   4.913   2.135   4.463  1.9149 -2.2539 -0.0449
  178SAPS  C31820407   4.975   2.324   4.557  0.5811 -0.4048 -1.1022
  178SAPS  H18X20408   4.881   2.375   4.586  0.9458 -1.3158  1.9916
  178SAPS  H18Y20409   5.042   2.411   4.538 -2.3592  2.1038 -0.7507
  178SAPS  H18Z20410   5.019   2.281   4.649 -0.3349  3.8162  1.5816
  179SAPS     N20411   6.555   4.106   2.235 -0.6073 -0.3177  0.3053
  179SAPS   HN120412   6.469   4.047   2.236 -2.3114  2.0009  1.8030
  179SAPS   HN220413   6.627   4.070   2.302 -0.3940  0.4272  0.4853
  179SAPS   HN320414   6.531   4.203   2.263  3.1659  1.1563 -0.9332
  179SAPS   C1220415   6.598   4.107   2.093 -0.1184 -0.6199  0.1226
  179SAPS  H12A20416   6.630   4.007   2.068  0.9275 -1.0363  2.7770
  179SAPS   C1320417   6.500   4.155   1.991 -0.0719 -0.2620 -0.2029
  179SAPS  O13A20418   6.388   4.201   2.027  0.2064 -0.7747  0.2233
  179SAPS  O13B20419   6.532   4.154   1.872  0.2404 -0.1368  0.2383
  179SAPS   C1120420   6.729   4.190   2.097 -0.0586 -0.8865 -0.3268
  179SAPS  H11A20421   6.784   4.181   2.001 -0.0182  0.5957 -0.4590
  179SAPS  H11B20422   6.799   4.146   2.171 -1.2546 -0.4386  1.1042
  179SAPS     P20423   6.798   4.429   2.189  0.0477 -0.5715  0.0200
  179SAPS   O1320424   6.925   4.417   2.112  0.8400  0.3745 -0.3568
  179SAPS   O1420425   6.753   4.573   2.198 -0.1252  0.2908  0.1948
  179SAPS   O1220426   6.689   4.331   2.124 -0.3226  1.2108  0.1677
  179SAPS   O1120427   6.817   4.378   2.331 -0.2385  0.3019 -0.0164
  179SAPS    C120428   6.727   4.358   2.433 -0.0295  0.2699  0.2028
  179SAPS    HA20429   6.624   4.346   2.393  0.2617  0.3484 -0.5908
  179SAPS    HB20430   6.754   4.266   2.489 -0.1714  0.2677  0.2670
  179SAPS    C220431   6.717   4.484   2.527 -0.4669  0.3537  0.0970
  179SAPS    HS20432   6.704   4.579   2.471  1.5640  1.5277  1.4661
  179SAPS   O2120433   6.845   4.490   2.598 -0.4334 -0.2195  0.1424
  179SAPS   C2120434   6.874   4.613   2.642  0.2948 -0.4787 -0.1836
  179SAPS   O2220435   6.824   4.720   2.602  0.5171 -0.1230  0.3811
  179SAPS   C2220436   6.977   4.610   2.748 -0.0634  0.3740  0.1083
  179SAPS   H2R20437   6.970   4.525   2.819  0.6338  0.4211  0.2495
  179SAPS   H2S20438   7.074   4.579   2.702 -0.5564 -1.1879  0.0712
  179SAPS    C320439   6.603   4.477   2.631 -0.0610  0.0953  0.0505
  179SAPS    HX20440   6.618   4.381   2.685 -1.3917  1.3274  2.8217
  179SAPS    HY20441   6.509   4.471   2.571  0.6731  0.0179 -1.1301
  179SAPS   O3120442   6.599   4.595   2.716 -0.4189  0.3477  1.0442
  179SAPS   C3120443   6.503   4.605   2.803 -0.5013  0.5097 -0.1729
  179SAPS   O3220444   6.431   4.517   2.845  0.0210 -0.1495 -0.0008
  179SAPS   C3220445   6.499   4.745   2.855  0.3025 -0.0303  0.4644
  179SAPS   H2X20446   6.400   4.757   2.904 -0.7360 -0.8032 -1.3706
  179SAPS   H2Y20447   6.525   4.813   2.771  1.6634 -0.6125  0.3886
  179SAPS   C2320448   7.009   4.750   2.803 -1.2359 -0.4049 -0.8199
  179SAPS   H3R20449   6.914   4.775   2.856  0.1482 -2.3724  2.9793
  179SAPS   H3S20450   7.033   4.821   2.720  3.2194  0.3376  0.8111
  179SAPS   C2420451   7.124   4.750   2.908 -0.6581  0.7288 -0.5531
  179SAPS   H4R20452   7.215   4.724   2.849 -1.0635  0.9761 -1.3067
  179SAPS   H4S20453   7.116   4.668   2.983 -0.5926  1.4012  0.1997
  179SAPS   C2520454   7.140   4.880   2.974 -0.3526  0.3043 -0.0564
  179SAPS   H5R20455   7.182   4.963   2.914  2.4186 -0.0180  1.2681
  179SAPS   C2620456   7.131   4.901   3.108 -0.9205  0.3763 -0.2218
  179SAPS   H6R20457   7.164   5.000   3.144  0.1940 -0.4088  0.9849
  179SAPS   C2720458   7.102   4.799   3.218 -0.1412 -0.1103  0.0730
  179SAPS   H7R20459   7.194   4.738   3.232  0.0238 -0.2369 -1.4586
  179SAPS   H7S20460   7.023   4.732   3.178 -0.0179 -0.7737  0.8961
  179SAPS   C2820461   7.041   4.857   3.345 -0.2455 -0.5738 -0.6445
  179SAPS   H8R20462   6.937   4.888   3.329  0.1790  1.3228  0.0234
  179SAPS   C2920463   7.100   4.881   3.465 -1.1872 -0.2671 -0.2380
  179SAPS   H9R20464   7.033   4.908   3.548 -2.7163  1.9689 -2.0238
  179SAPS  C21020465   7.245   4.850   3.503  0.5673 -0.3681  0.1458
  179SAPS  H10R20466   7.305   4.846   3.410 -0.0508  1.5740 -0.3868
  179SAPS  H10S20467   7.253   4.753   3.556  0.3271 -0.6520 -0.3373
  179SAPS  C21120468   7.312   4.959   3.579  0.0766 -0.0109 -0.4149
  179SAPS  H11R20469   7.316   5.049   3.516 -2.3783 -1.0790 -2.2841
  179SAPS  C21220470   7.363   4.957   3.709  0.6099  0.0855 -0.2765
  179SAPS  H12R20471   7.425   5.034   3.756 -0.1511 -0.2792  1.3855
  179SAPS  C21320472   7.333   4.836   3.793  0.0443 -0.0894 -0.0230
  179SAPS  H13R20473   7.433   4.793   3.813  0.8303  2.0536  0.9672
  179SAPS  H13S20474   7.273   4.752   3.753 -0.4413 -0.2339  0.9778
  179SAPS  C21420475   7.258   4.877   3.917  0.5623  0.2111  0.0886
  179SAPS  H14R20476   7.149   4.864   3.915  0.5599 -0.5038  2.1872
  179SAPS  C21520477   7.321   4.910   4.033 -0.8787  1.0189  0.4399
  179SAPS  H15R20478   7.267   4.928   4.127  3.3578  2.1786  2.9067
  179SAPS  C21620479   7.469   4.934   4.050 -0.3505  0.0197 -0.8860
  179SAPS  H16R20480   7.487   5.037   4.013  0.0150 -0.4307 -2.0190
  179SAPS  H16S20481   7.536   4.868   3.990 -1.8237 -0.2710 -2.2954
  179SAPS  C21720482   7.497   4.935   4.204  0.2971 -0.0084  0.2899
  179SAPS  H17R20483   7.493   4.833   4.246  1.5413 -0.3366 -0.3577
  179SAPS  H17S20484   7.422   5.003   4.249 -0.4531  0.4986 -1.6095
  179SAPS  C21820485   7.635   4.997   4.232 -0.2765  0.4141 -0.6869
  179SAPS  H18R20486   7.635   5.102   4.194  1.1938  0.8374  0.3784
  179SAPS  H18S20487   7.713   4.938   4.179 -0.2274  0.1236 -0.2932
  179SAPS  C21920488   7.675   4.999   4.382 -0.2430 -0.5687 -0.4946
  179SAPS  H19R20489   7.589   5.054   4.426  0.8046  0.8932 -0.1980
  179SAPS  H19S20490   7.763   5.066   4.379 -1.9511  1.7825 -1.5906
  179SAPS  C22020491   7.696   4.871   4.446 -0.9207 -0.2842  0.2309
  179SAPS  H20R20492   7.787   4.828   4.400 -0.2609  1.5352 -0.2593
  179SAPS  H20S20493   7.611   4.810   4.409 -0.1569  0.0765 -2.2999
  179SAPS  H20T20494   7.716   4.876   4.555  3.3311 -0.1035 -0.4117
  179SAPS   C3320495   6.609   4.766   2.966 -0.2293  0.2153 -0.2091
  179SAPS   H3X20496   6.711   4.731   2.939  0.7465  1.9413  1.0477
  179SAPS   H3Y20497   6.587   4.708   3.058 -0.4297 -1.6500 -1.3916
  179SAPS   C3420498   6.624   4.914   3.007 -0.4087 -0.3446 -0.1991
  179SAPS   H4X20499   6.526   4.946   3.049 -1.5976 -1.6533 -1.8399
  179SAPS   H4Y20500   6.634   4.973   2.914 -2.1970 -0.8882 -0.7816
  179SAPS   C3520501   6.732   4.944   3.117 -0.2794 -0.1378  0.3113
  179SAPS   H5X20502   6.824   4.933   3.056  0.0207  0.8190  0.5711
  179SAPS   H5Y20503   6.740   4.857   3.187 -2.0520 -3.6946 -3.4857
  179SAPS   C3620504   6.722   5.078   3.181 -0.5469  0.6067 -0.1713
  179SAPS   H6X20505   6.706   5.161   3.110  0.8581  2.7042  1.8228
  179SAPS   H6Y20506   6.820   5.096   3.231 -0.0868 -1.8122 -0.0742
  179SAPS   C3720507   6.616   5.084   3.297  0.4470  0.7010  0.2702
  179SAPS   H7X20508   6.512   5.069   3.261  1.1392 -0.0288 -1.6052
  179SAPS   H7Y20509   6.610   5.186   3.340 -2.6340  1.2857 -1.3044
  179SAPS   C3820510   6.647   4.987   3.407 -0.4435  0.0938 -1.2542
  179SAPS   H8X20511   6.756   4.991   3.428 -0.6512 -1.1907  0.2559
  179SAPS   H8Y20512   6.616   4.887   3.369  1.2030 -1.1378  0.4375
  179SAPS   C3920513   6.572   5.009   3.544 -0.2870 -0.4445  0.6538
  179SAPS   H9X20514   6.467   4.976   3.543  0.5499 -3.3769 -0.8828
  179SAPS   H9Y20515   6.574   5.120   3.548 -1.5381 -0.3876  0.0214
  179SAPS  C31020516   6.635   4.936   3.658  0.4051  1.3123 -0.0395
  179SAPS  H10X20517   6.739   4.969   3.674  1.1348 -1.5737  2.1962
  179SAPS  H10Y20518   6.634   4.826   3.639 -1.6203  1.3323 -0.2800
  179SAPS  C31120519   6.550   4.952   3.790 -0.4654  0.1012  0.0510
  179SAPS  H11X20520   6.619   4.909   3.865 -1.0907  0.5703  0.9255
  179SAPS  H11Y20521   6.459   4.888   3.785 -0.8849  0.6122  0.9137
  179SAPS  C31220522   6.498   5.099   3.829  0.0307 -0.2294 -0.0048
  179SAPS  H12X20523   6.403   5.124   3.778 -0.4397  0.7014  1.2872
  179SAPS  H12Y20524   6.579   5.160   3.783  1.3575  0.0610  2.5217
  179SAPS  C31320525   6.482   5.113   3.972 -0.2472  0.0661  0.1830
  179SAPS  H13X20526   6.578   5.086   4.021 -0.5075 -0.3494  0.4754
  179SAPS  H13Y20527   6.400   5.048   4.011 -0.0705  0.3682  1.0760
  179SAPS  C31420528   6.462   5.260   4.013  0.1774 -0.3919  1.2123
  179SAPS  H14X20529   6.372   5.305   3.967  1.1518  0.4136  0.0108
  179SAPS  H14Y20530   6.542   5.321   3.966  0.3888 -1.0011  0.7613
  179SAPS  C31520531   6.466   5.304   4.164  0.8684  0.4514 -0.2793
  179SAPS  H15X20532   6.460   5.415   4.153 -0.8625  0.3544 -0.6817
  179SAPS  H15Y20533   6.559   5.278   4.219  0.0049 -1.2037  0.4718
  179SAPS  C31620534   6.341   5.234   4.229 -0.1707 -0.8753  0.1475
  179SAPS  H16X20535   6.346   5.124   4.215  2.2050 -0.7721 -0.2316
  179SAPS  H16Y20536   6.253   5.267   4.170  1.1279  0.1631 -1.2679
  179SAPS  C31720537   6.333   5.261   4.382  0.0358 -0.0998  0.2170
  179SAPS  H17X20538   6.406   5.196   4.435 -0.6207 -2.1138 -1.2004
  179SAPS  H17Y20539   6.232   5.229   4.416 -1.2118  3.0244 -0.2065
  179SAPS  C31820540   6.358   5.415   4.423  0.2921  0.2438  0.3630
  179SAPS  H18X20541   6.448   5.443   4.364 -0.4751 -1.1350 -1.5338
  179SAPS  H18Y20542   6.374   5.409   4.533 -0.5587 -0.9073  0.4367
  179SAPS  H18Z20543   6.275   5.479   4.387 -0.9109 -1.2103  0.4581
  180SAPS     N20544   6.191   4.031   2.065  0.0229 -0.6750  0.2039
  180SAPS   HN120545   6.258   4.101   2.026 -0.3230 -1.4400 -1.8908
  180SAPS   HN220546   6.258   3.972   2.119  1.3621  1.9404  1.6066
  180SAPS   HN320547   6.152   3.980   1.984  0.5639  1.2181 -1.3239
  180SAPS   C1220548   6.078   4.092   2.143  0.1887  0.1493  0.3024
  180SAPS  H12A20549   6.056   4.182   2.087 -1.6774 -0.3694  0.1388
  180SAPS   C1320550   5.948   4.010   2.142  0.1300  0.2700  0.0534
  180SAPS  O13A20551   5.951   3.902   2.079 -0.5160  0.1271 -0.6902
  180SAPS  O13B20552   5.845   4.046   2.209 -0.3143 -0.0067  0.1456
  180SAPS   C1120553   6.107   4.140   2.285  0.0813  0.0671 -0.6675
  180SAPS  H11A20554   6.142   4.056   2.348  3.2923  1.8527  0.1558
  180SAPS  H11B20555   6.015   4.190   2.321  2.1028  3.6017  0.0085
  180SAPS     P20556   6.281   4.307   2.403  0.5594 -0.3546  0.1459
  180SAPS   O1320557   6.412   4.244   2.438  0.6133 -0.1667  0.2776
  180SAPS   O1420558   6.272   4.450   2.362 -0.3479 -0.1408 -0.0813
  180SAPS   O1220559   6.210   4.237   2.282  0.5307  0.0806 -0.2157
  180SAPS   O1120560   6.184   4.279   2.524  0.6480 -0.3918 -0.1264
  180SAPS    C120561   6.059   4.348   2.545 -0.4526 -0.4357  0.0149
  180SAPS    HA20562   6.020   4.387   2.449  0.6682 -1.1384 -0.7452
  180SAPS    HB20563   5.979   4.283   2.587  0.1085 -0.5251  0.9845
  180SAPS    C220564   6.062   4.473   2.644 -0.1275 -0.0980  0.1579
  180SAPS    HS20565   6.149   4.529   2.602  0.1276 -0.4902  0.1555
  180SAPS   O2120566   6.094   4.437   2.780 -0.0254  0.1866 -0.6193
  180SAPS   C2120567   6.128   4.543   2.861  0.4933  0.4000  0.1773
  180SAPS   O2220568   6.156   4.651   2.821 -0.3090 -0.0744 -0.0837
  180SAPS   C2220569   6.136   4.494   3.005 -0.7151 -0.7810  0.3204
  180SAPS   H2R20570   6.029   4.478   3.031 -1.1346 -0.7773 -1.3144
  180SAPS   H2S20571   6.188   4.396   3.002 -0.7315 -0.7673 -1.1693
  180SAPS    C320572   5.947   4.574   2.640  0.2753 -0.0741  0.1670
  180SAPS    HX20573   5.902   4.594   2.540 -0.3091 -1.7189  0.0758
  180SAPS    HY20574   5.995   4.671   2.663  1.4190 -0.8427  1.1025
  180SAPS   O3120575   5.837   4.543   2.728 -0.0942  0.0082  0.1012
  180SAPS   C3120576   5.754   4.451   2.684  0.7613  0.2016 -0.2547
  180SAPS   O3220577   5.767   4.389   2.578  0.3523 -0.2159 -0.4075
  180SAPS   C3220578   5.645   4.428   2.787  0.0186 -0.0068 -0.2835
  180SAPS   H2X20579   5.598   4.528   2.803  0.2064  0.2737 -1.4250
  180SAPS   H2Y20580   5.700   4.397   2.879 -0.0420  1.6522  0.3462
  180SAPS   C2320581   6.192   4.608   3.092 -0.2621 -0.3695 -0.5997
  180SAPS   H3R20582   6.121   4.693   3.105  0.7831  0.2248  1.9174
  180SAPS   H3S20583   6.285   4.636   3.039 -0.0167 -0.4477 -0.2111
  180SAPS   C2420584   6.242   4.558   3.224  0.2470  0.1496  0.3582
  180SAPS   H4R20585   6.294   4.465   3.194 -1.5923  0.7083 -6.2604
  180SAPS   H4S20586   6.158   4.517   3.284  0.9287 -1.4278  0.2769
  180SAPS   C2520587   6.318   4.667   3.288  0.6318 -0.1978 -0.2142
  180SAPS   H5R20588   6.415   4.691   3.242  0.8788 -1.7392 -0.5532
  180SAPS   C2620589   6.282   4.731   3.397  0.1467 -0.4614  0.3076
  180SAPS   H6R20590   6.348   4.814   3.425  0.3998  0.1676 -1.9124
  180SAPS   C2720591   6.177   4.697   3.500  0.0103  1.0582  0.7258
  180SAPS   H7R20592   6.221   4.703   3.602  1.4947 -1.4440  0.3125
  180SAPS   H7S20593   6.136   4.594   3.490 -0.0641  1.1048  0.5392
  180SAPS   C2820594   6.062   4.793   3.485 -0.4462 -0.0777 -0.2510
  180SAPS   H8R20595   6.012   4.792   3.386  0.4603  2.1079 -0.8032
  180SAPS   C2920596   6.003   4.849   3.588 -0.3028  0.2000  0.3202
  180SAPS   H9R20597   5.914   4.913   3.579  0.1545  1.0833  1.8051
  180SAPS  C21020598   6.044   4.840   3.739  0.4692  0.2385 -0.0265
  180SAPS  H10R20599   5.970   4.894   3.801 -0.6646 -2.7463  1.4194
  180SAPS  H10S20600   6.146   4.879   3.761  0.4291  0.2358  0.1615
  180SAPS  C21120601   6.037   4.691   3.779  0.0513 -0.7260  0.1819
  180SAPS  H11R20602   5.948   4.640   3.739  0.3429 -1.4523  0.4626
  180SAPS  C21220603   6.118   4.633   3.871 -0.4101  0.0696  0.0375
  180SAPS  H12R20604   6.096   4.529   3.900  3.4202 -0.6835  0.7669
  180SAPS  C21320605   6.241   4.696   3.940  0.5764 -0.0194  0.1736
  180SAPS  H13R20606   6.261   4.805   3.943 -1.8094  0.4753  2.2771
  180SAPS  H13S20607   6.321   4.646   3.882  0.1353  0.4203 -0.8302
  180SAPS  C21420608   6.243   4.647   4.080  0.0170  0.2682  0.3188
  180SAPS  H14R20609   6.178   4.560   4.097 -0.0619  0.4602  1.0309
  180SAPS  C21520610   6.314   4.700   4.180  0.3919  0.2031 -0.4258
  180SAPS  H15R20611   6.298   4.652   4.278 -1.9643 -2.2057 -1.8767
  180SAPS  C21620612   6.413   4.813   4.162  0.1148  0.3507  0.5531
  180SAPS  H16R20613   6.374   4.914   4.184  1.7114  0.6975  2.0469
  180SAPS  H16S20614   6.471   4.791   4.069 -1.2734 -1.4270  0.0481
  180SAPS  C21720615   6.530   4.793   4.274  0.1403  0.7089  0.0005
  180SAPS  H17R20616   6.608   4.864   4.239  1.0192 -1.0951 -1.9515
  180SAPS  H17S20617   6.560   4.686   4.277  2.0626  1.1599 -1.2583
  180SAPS  C21820618   6.484   4.831   4.413 -0.0027 -0.2333  0.0931
  180SAPS  H18R20619   6.385   4.785   4.434  1.2924 -2.9030  0.9255
  180SAPS  H18S20620   6.483   4.941   4.400 -1.0516 -0.4084 -1.6097
  180SAPS  C21920621   6.573   4.779   4.525 -0.5082 -0.7323  0.3721
  180SAPS  H19R20622   6.674   4.820   4.501 -0.5283 -1.3268 -0.8081
  180SAPS  H19S20623   6.580   4.668   4.515 -1.1267 -0.8782  1.4949
  180SAPS  C22020624   6.525   4.811   4.666  0.1394 -0.5759 -0.1971
  180SAPS  H20R20625   6.427   4.758   4.673  1.0228 -2.4433 -1.2881
  180SAPS  H20S20626   6.589   4.759   4.741 -0.5513  1.7146  2.1432
  180SAPS  H20T20627   6.516   4.920   4.685 -1.4404 -0.8052  0.5928
  180SAPS   C3320628   5.540   4.323   2.750 -0.0870  0.1123 -0.0413
  180SAPS   H3X20629   5.566   4.216   2.755 -0.2787 -0.1888 -3.4497
  180SAPS   H3Y20630   5.502   4.325   2.646 -0.4987  1.0925  0.1138
  180SAPS   C3420631   5.406   4.346   2.818  0.2540 -0.3224  0.1094
  180SAPS   H4X20632   5.336   4.263   2.795  0.0647 -0.6811  1.8645
  180SAPS   H4Y20633   5.358   4.435   2.773  0.2895  0.4788  1.6188
  180SAPS   C3520634   5.427   4.366   2.968 -0.3804 -0.6973  0.4799
  180SAPS   H5X20635   5.465   4.470   2.979 -1.7876 -0.2863  1.7891
  180SAPS   H5Y20636   5.508   4.294   2.996 -0.9930 -1.7178 -0.3107
  180SAPS   C3620637   5.307   4.356   3.065  0.2429 -0.9518  0.7425
  180SAPS   H6X20638   5.265   4.254   3.079 -0.9977 -0.3896  1.3367
  180SAPS   H6Y20639   5.216   4.412   3.032  1.1373 -0.5370 -1.1141
  180SAPS   C3720640   5.359   4.393   3.202 -0.1571 -0.2594 -0.2058
  180SAPS   H7X20641   5.394   4.499   3.199  1.1994 -0.5095  3.0281
  180SAPS   H7Y20642   5.450   4.335   3.226 -0.2972 -0.6150 -0.5228
  180SAPS   C3820643   5.252   4.377   3.311 -0.6357  0.8811  0.1660
  180SAPS   H8X20644   5.229   4.269   3.317  0.5720  0.5945 -0.1726
  180SAPS   H8Y20645   5.163   4.432   3.272  1.2413  1.8893 -3.0780
  180SAPS   C3920646   5.301   4.424   3.440  0.1510 -0.0797  0.2485
  180SAPS   H9X20647   5.316   4.533   3.445  2.5635 -0.3870  0.6798
  180SAPS   H9Y20648   5.402   4.381   3.453 -0.3350 -1.2325  0.4128
  180SAPS  C31020649   5.204   4.385   3.551  0.4877  0.3438  0.4443
  180SAPS  H10X20650   5.217   4.279   3.580 -0.3602 -0.0934 -0.6900
  180SAPS  H10Y20651   5.098   4.403   3.522  0.6907 -0.7100 -1.0592
  180SAPS  C31120652   5.212   4.468   3.675 -0.3269 -0.2807 -0.2692
  180SAPS  H11X20653   5.141   4.428   3.751 -1.4831 -0.4244 -1.3927
  180SAPS  H11Y20654   5.190   4.574   3.650  0.4305  0.3780  1.6810
  180SAPS  C31220655   5.348   4.465   3.743 -0.1371  0.3355  0.5024
  180SAPS  H12X20656   5.427   4.473   3.665 -0.9059 -1.2329 -0.4969
  180SAPS  H12Y20657   5.348   4.359   3.776 -1.1088  0.0775 -0.2719
  180SAPS  C31320658   5.364   4.562   3.861 -0.1346  0.1309 -0.7639
  180SAPS  H13X20659   5.371   4.667   3.825 -1.2028  1.6546  2.9654
  180SAPS  H13Y20660   5.454   4.526   3.915 -0.9626 -0.8087  0.0276
  180SAPS  C31420661   5.254   4.545   3.970  0.1373  0.4480  0.4552
  180SAPS  H14X20662   5.259   4.435   3.988 -0.2824  0.5365  1.1476
  180SAPS  H14Y20663   5.160   4.579   3.922  0.1858 -0.2938 -0.1961
  180SAPS  C31520664   5.286   4.627   4.094 -0.5056  0.1817 -0.4973
  180SAPS  H15X20665   5.269   4.735   4.072 -3.0818  0.2618  1.4762
  180SAPS  H15Y20666   5.392   4.617   4.124 -0.4882  0.0187 -0.6118
  180SAPS  C31620667   5.202   4.592   4.220  0.0934 -0.1275 -0.8614
  180SAPS  H16X20668   5.276   4.553   4.294  0.1305  0.1931 -0.7297
  180SAPS  H16Y20669   5.130   4.513   4.189 -2.0758 -0.2925  3.6995
  180SAPS  C31720670   5.113   4.704   4.289 -0.0904  0.1220 -0.3145
  180SAPS  H17X20671   5.014   4.660   4.317 -0.1563  0.2112 -0.4106
  180SAPS  H17Y20672   5.083   4.784   4.220 -0.6778  2.2900  2.2836
  180SAPS  C31820673   5.167   4.768   4.411 -0.0369 -0.4111 -0.5562
  180SAPS  H18X20674   5.100   4.851   4.442  1.8693  1.1225 -0.3913
  180SAPS  H18Y20675   5.267   4.812   4.394 -0.8638  1.1024 -1.7734
  180SAPS  H18Z20676   5.164   4.706   4.504  1.2534  3.8562  2.6260
  181POPC     N20677   4.016   5.350   6.876  1.0379 -0.3610  0.1096
  181POPC   C1220678   4.164   5.361   6.867  0.0890  0.9459 -0.0172
  181POPC  H12A20679   4.192   5.462   6.894  1.1176  0.7978 -0.4682
  181POPC  H12B20680   4.197   5.341   6.766 -0.3659  0.3917 -0.0588
  181POPC   C1320681   3.957   5.452   6.783  0.7355 -0.6357  0.4507
  181POPC  H13A20682   3.984   5.433   6.680 -2.6960 -0.6798 -0.5838
  181POPC  H13B20683   3.849   5.454   6.778  0.7755  1.6767 -0.8223
  181POPC  H13C20684   3.990   5.554   6.793 -0.7664  0.0014 -0.7361
  181POPC   C1420685   3.969   5.214   6.835 -0.4368  0.4159 -0.6676
  181POPC  H14A20686   3.971   5.206   6.727 -0.4322 -1.2231 -0.5627
  181POPC  H14B20687   4.040   5.143   6.874  1.2519  2.0307 -0.6626
  181POPC  H14C20688   3.869   5.201   6.873 -0.7858  2.3655 -0.8068
  181POPC   C1520689   3.971   5.384   7.014  0.2765  0.4075  0.4867
  181POPC  H15A20690   3.981   5.292   7.071 -1.6879 -0.6651 -0.8124
  181POPC  H15B20691   3.867   5.412   7.019  0.4768  1.3905 -0.5895
  181POPC  H15C20692   4.032   5.467   7.047  3.1070 -2.3250  2.7665
  181POPC   C1120693   4.254   5.264   6.957  0.4579 -0.5551  0.1855
  181POPC  H11A20694   4.219   5.280   7.061 -1.4754 -1.1242 -0.3462
  181POPC  H11B20695   4.359   5.293   6.934 -0.3976  1.7331 -1.1544
  181POPC     P20696   4.311   5.061   6.805  0.3943  0.6598  0.5704
  181POPC   O1320697   4.245   4.934   6.770  0.1579  0.2060  0.2614
  181POPC   O1420698   4.455   5.055   6.838 -0.2716 -0.3991  0.3999
  181POPC   O1220699   4.229   5.126   6.920  0.3075  0.2366  0.4386
  181POPC   O1120700   4.294   5.150   6.678 -0.2841  0.1779  0.3333
  181POPC    C120701   4.205   5.098   6.575 -0.0077  0.6888  0.7213
  181POPC    HA20702   4.161   5.185   6.521  1.8220  0.3087 -1.5637
  181POPC    HB20703   4.116   5.044   6.613  0.5225 -0.7098  0.0481
  181POPC    C220704   4.284   5.017   6.468 -0.1779  0.3288 -0.0340
  181POPC    HS20705   4.322   4.919   6.505 -1.3722 -1.4947 -3.2866
  181POPC   O2120706   4.385   5.097   6.416 -0.1440  0.1926  0.3387
  181POPC   C2120707   4.504   5.038   6.401  0.2011  0.0936  0.4820
  181POPC   O2220708   4.530   4.920   6.427 -0.3952  0.1474  0.4668
  181POPC   C2220709   4.609   5.141   6.340  0.9785 -0.3616 -0.9229
  181POPC   H2R20710   4.674   5.170   6.425  1.4002 -2.2835 -0.5265
  181POPC   H2S20711   4.551   5.227   6.301  0.0163  0.0909  1.3411
  181POPC    C320712   4.181   4.980   6.359  0.3199 -0.3245  0.3265
  181POPC    HX20713   4.141   5.078   6.326 -1.0702 -1.5941 -2.0194
  181POPC    HY20714   4.103   4.925   6.416  1.0449 -1.4754  0.2436
  181POPC   O3120715   4.230   4.915   6.235 -0.7318 -0.0489  0.1270
  181POPC   C3120716   4.245   4.782   6.239 -0.0642 -0.1424  0.0923
  181POPC   O3220717   4.215   4.714   6.334  0.4942  0.1090  0.0661
  181POPC   C3220718   4.319   4.726   6.113  0.1463 -0.3283  0.1972
  181POPC   H2X20719   4.427   4.751   6.119 -0.2883  1.7522 -0.0142
  181POPC   H2Y20720   4.269   4.783   6.031 -1.5511 -1.3484  0.4587
  181POPC   C2320721   4.693   5.077   6.231  0.1306  0.5228  0.0461
  181POPC   H3R20722   4.743   4.984   6.266  0.6503  0.9859  0.5557
  181POPC   H3S20723   4.779   5.144   6.209  0.9713 -0.8349 -0.9620
  181POPC   C2420724   4.630   5.067   6.089  0.1133  0.0987 -0.1275
  181POPC   H4R20725   4.597   5.170   6.067  0.3340  0.2984  0.4454
  181POPC   H4S20726   4.548   4.992   6.080 -0.2058  0.2822  1.0803
  181POPC   C2520727   4.720   5.036   5.970 -0.2251 -0.0210 -0.1978
  181POPC   H5R20728   4.755   4.933   5.989  2.1367  0.4514 -1.5387
  181POPC   H5S20729   4.813   5.098   5.965 -0.4576  0.2470 -3.4541
  181POPC   C2620730   4.654   5.035   5.832  0.4354 -0.7480  0.1307
  181POPC   H6R20731   4.736   5.020   5.759  0.6777 -0.9187  0.4360
  181POPC   H6S20732   4.619   5.139   5.816 -0.3996 -0.8205  1.4019
  181POPC   C2720733   4.527   4.942   5.821 -0.1610  0.0589  0.3960
  181POPC   H7R20734   4.451   4.980   5.892  0.8866  2.5323  0.3015
  181POPC   H7S20735   4.549   4.837   5.849 -0.6382 -0.7180 -1.9072
  181POPC   C2820736   4.446   4.947   5.686 -0.0914  0.4550  0.1907
  181POPC   H8R20737   4.416   5.048   5.651  0.5419 -0.5118 -3.6224
  181POPC   H8S20738   4.351   4.890   5.698 -0.7235  1.6886  1.2698
  181POPC   C2920739   4.520   4.883   5.570  0.3850 -0.2490 -0.2524
  181POPC   H9120740   4.582   4.796   5.594  0.0693 -0.3442  0.2390
  181POPC  C21020741   4.482   4.891   5.442  0.0787  0.2556 -0.5705
  181POPC  H10120742   4.544   4.838   5.367  1.6296 -0.0699  0.8634
  181POPC  C21120743   4.363   4.972   5.392 -0.3101 -0.0601  0.1802
  181POPC  H11R20744   4.401   5.058   5.332  0.9833  0.3215  1.4714
  181POPC  H11S20745   4.313   5.020   5.479 -1.7102 -1.2128  0.0460
  181POPC  C21220746   4.262   4.888   5.303  0.9521  0.3185  0.2240
  181POPC  H12R20747   4.183   4.955   5.263 -1.6528 -2.7803 -0.2152
  181POPC  H12S20748   4.215   4.819   5.377  2.2696 -0.2148  0.5755
  181POPC  C21320749   4.340   4.825   5.186  0.0684  0.0391 -0.0192
  181POPC  H13R20750   4.416   4.751   5.220  1.4941  2.0016  1.2553
  181POPC  H13S20751   4.391   4.909   5.135 -1.8667  0.7022 -0.9755
  181POPC  C21420752   4.241   4.770   5.080 -0.5726 -0.3331 -0.0691
  181POPC  H14R20753   4.172   4.848   5.044  0.7167  0.5780 -0.6324
  181POPC  H14S20754   4.180   4.693   5.132  1.6355 -2.0589  0.0981
  181POPC  C21520755   4.306   4.701   4.957 -0.7579 -0.3603 -0.2321
  181POPC  H15R20756   4.230   4.646   4.897  0.5067 -2.0966 -0.3273
  181POPC  H15S20757   4.382   4.626   4.987 -0.2732  0.9163  1.9811
  181POPC  C21620758   4.381   4.797   4.862 -0.0793 -0.2348  0.0371
  181POPC  H16R20759   4.472   4.827   4.918 -0.6125  0.4691  0.5455
  181POPC  H16S20760   4.328   4.894   4.847  0.3212 -0.2376 -1.5186
  181POPC  C21720761   4.425   4.720   4.732 -0.0949  0.7351  0.3473
  181POPC  H17R20762   4.334   4.692   4.674  0.7027 -1.5032  0.0860
  181POPC  H17S20763   4.465   4.621   4.763 -1.0618 -0.7068 -2.6393
  181POPC  C21820764   4.533   4.788   4.643 -0.5633  0.0916 -0.6304
  181POPC  H18R20765   4.484   4.870   4.587  0.2213  1.6962  0.9338
  181POPC  H18S20766   4.584   4.725   4.566  1.3963  1.6993 -0.7488
  181POPC  H18T20767   4.614   4.829   4.707 -0.5812 -1.1064  0.1844
  181POPC   C3320768   4.294   4.579   6.092  0.7196  0.4841 -0.4559
  181POPC   H3X20769   4.186   4.553   6.099  1.1113 -1.3097 -0.5036
  181POPC   H3Y20770   4.343   4.525   6.175  1.5609  0.1787 -1.1385
  181POPC   C3420771   4.359   4.511   5.962  0.0495  0.2535  0.0712
  181POPC   H4X20772   4.333   4.404   5.971  0.9669  0.0515  0.3350
  181POPC   H4Y20773   4.465   4.539   5.978  0.1915  0.0569 -0.5134
  181POPC   C3520774   4.310   4.569   5.831 -0.1699  0.5741 -0.0320
  181POPC   H5X20775   4.354   4.670   5.817 -0.6519  0.9512  1.0997
  181POPC   H5Y20776   4.200   4.586   5.829 -0.7735 -2.6581  0.1830
  181POPC   C3620777   4.353   4.486   5.705  0.0980  0.1942  0.1750
  181POPC   H6X20778   4.307   4.386   5.723 -2.5167  1.4118  0.8389
  181POPC   H6Y20779   4.463   4.473   5.696 -0.2131 -2.1028 -1.1890
  181POPC   C3720780   4.302   4.553   5.578  0.0132  0.0101 -0.3413
  181POPC   H7X20781   4.386   4.591   5.516 -1.2792  2.7013 -0.5718
  181POPC   H7Y20782   4.246   4.645   5.605  0.3528  0.0517  0.2620
  181POPC   C3820783   4.203   4.464   5.500 -0.2029  0.5536  0.0140
  181POPC   H8X20784   4.120   4.432   5.565 -0.1148 -1.0957 -0.6542
  181POPC   H8Y20785   4.251   4.370   5.466 -0.2605  1.0465 -1.4990
  181POPC   C3920786   4.139   4.526   5.381  0.0785 -0.2810 -0.2178
  181POPC   H9X20787   4.213   4.562   5.306  0.2394  2.1220  0.9719
  181POPC   H9Y20788   4.076   4.614   5.406 -1.1403 -1.4448  0.9182
  181POPC  C31020789   4.058   4.427   5.293 -0.4233 -0.0786 -0.5354
  181POPC  H10X20790   3.967   4.397   5.351 -0.1950 -1.0837 -0.6827
  181POPC  H10Y20791   4.112   4.333   5.274  0.2921  0.4503 -1.1780
  181POPC  C31120792   3.994   4.473   5.158  0.3999  0.9800 -0.0818
  181POPC  H11X20793   4.074   4.500   5.087 -0.2217 -0.5029 -1.4020
  181POPC  H11Y20794   3.937   4.566   5.179  0.8150  1.4407 -0.9545
  181POPC  C31220795   3.917   4.365   5.073  0.4379 -0.8518  0.6400
  181POPC  H12X20796   3.829   4.331   5.132 -0.8914 -0.3771 -0.9829
  181POPC  H12Y20797   3.978   4.275   5.051 -0.7857 -1.7343  0.7630
  181POPC  C31320798   3.869   4.435   4.941 -0.7535  0.4043 -0.8732
  181POPC  H13X20799   3.966   4.481   4.910 -0.3213  0.2641  0.2381
  181POPC  H13Y20800   3.789   4.510   4.959 -1.0882  0.0946 -1.0827
  181POPC  C31420801   3.828   4.334   4.831 -0.0327 -0.4055  0.5058
  181POPC  H14X20802   3.753   4.369   4.757 -2.1098 -2.9652  1.2646
  181POPC  H14Y20803   3.785   4.243   4.877  0.9069 -0.3180  1.6358
  181POPC  C31520804   3.948   4.286   4.743  0.7554 -0.0777  0.2740
  181POPC  H15X20805   3.993   4.211   4.812 -1.5199 -0.2839  1.6351
  181POPC  H15Y20806   4.013   4.373   4.721  0.2690  0.5217  1.1330
  181POPC  C31620807   3.904   4.214   4.614 -0.1327 -0.4555  0.4204
  181POPC  H16X20808   3.837   4.127   4.631 -3.5520  1.4334 -2.1924
  181POPC  H16Y20809   3.993   4.191   4.551 -0.7391 -1.2029 -0.1840
  181POPC  H16Z20810   3.852   4.288   4.550 -0.2414  0.3361  1.3927
  182POPC     N20811   1.319   5.280   6.916  0.6262  0.6740 -0.7801
  182POPC   C1220812   1.461   5.274   6.878  0.8244 -0.1188  1.0004
  182POPC  H12A20813   1.490   5.190   6.816  2.4751  2.2586 -1.7154
  182POPC  H12B20814   1.517   5.275   6.970  0.4872 -1.0025  1.2298
  182POPC   C1320815   1.232   5.314   6.797 -0.6856  0.3261  0.2486
  182POPC  H13A20816   1.127   5.322   6.822 -0.5669  0.7918  0.6236
  182POPC  H13B20817   1.257   5.410   6.755 -2.7548  1.2940  1.0526
  182POPC  H13C20818   1.243   5.234   6.726 -0.8171  0.6688 -0.1664
  182POPC   C1420819   1.274   5.144   6.969 -0.4298  0.3068 -0.0941
  182POPC  H14A20820   1.326   5.117   7.060 -1.1372  0.6040  0.4058
  182POPC  H14B20821   1.173   5.146   7.005 -0.0344  0.0386  1.0763
  182POPC  H14C20822   1.285   5.067   6.894  1.8917 -0.1058  0.5637
  182POPC   C1520823   1.293   5.387   7.018  0.7573 -0.9378  0.0334
  182POPC  H15A20824   1.336   5.361   7.113  0.7612  1.3920  0.7378
  182POPC  H15B20825   1.188   5.407   7.038  0.9374  0.4278 -0.2643
  182POPC  H15C20826   1.338   5.481   6.990  0.4552 -0.6700  0.4327
  182POPC   C1120827   1.512   5.398   6.793 -0.3416  0.5038  0.0740
  182POPC  H11A20828   1.456   5.409   6.698 -0.9339  1.7029  0.5451
  182POPC  H11B20829   1.614   5.373   6.757 -0.5934  0.7230 -0.8181
  182POPC     P20830   1.457   5.655   6.810 -0.0723  0.1065  0.2401
  182POPC   O1320831   1.502   5.754   6.908  0.8579  0.4184 -0.7258
  182POPC   O1420832   1.313   5.650   6.794  0.6812 -0.5922  0.0402
  182POPC   O1220833   1.508   5.516   6.868 -0.1099 -0.2523  0.0262
  182POPC   O1120834   1.534   5.673   6.669  0.1517 -0.1124 -0.1417
  182POPC    C120835   1.675   5.663   6.660  0.1713 -0.2835 -0.6298
  182POPC    HA20836   1.711   5.560   6.682  1.4988  0.1637 -0.5627
  182POPC    HB20837   1.723   5.741   6.723 -0.1550 -0.1794 -0.5107
  182POPC    C220838   1.729   5.673   6.517  0.0333 -0.3261  0.1019
  182POPC    HS20839   1.675   5.761   6.475  1.2230  0.7020  0.6546
  182POPC   O2120840   1.695   5.554   6.443  0.2363  0.0453  0.2806
  182POPC   C2120841   1.649   5.582   6.325 -0.2048  0.1878 -0.8161
  182POPC   O2220842   1.664   5.687   6.261  0.0335  0.7984 -0.4711
  182POPC   C2220843   1.584   5.454   6.269  0.7760 -0.3161  0.3024
  182POPC   H2R20844   1.508   5.430   6.347  0.5436  0.4905  0.3265
  182POPC   H2S20845   1.652   5.366   6.264 -1.3756 -2.0308 -1.2212
  182POPC    C320846   1.883   5.701   6.525  0.5022 -0.0614  0.7903
  182POPC    HX20847   1.930   5.618   6.583  1.4617  0.4408  0.7609
  182POPC    HY20848   1.899   5.800   6.573 -1.6992  0.5923  0.2959
  182POPC   O3120849   1.956   5.710   6.404  0.4046  0.2761  0.0997
  182POPC   C3120850   1.997   5.596   6.343 -0.0177  0.0923 -0.3400
  182POPC   O3220851   1.968   5.485   6.387 -0.4678 -0.3539 -0.0748
  182POPC   C3220852   2.091   5.627   6.234  0.3621 -0.1744 -0.0626
  182POPC   H2X20853   2.149   5.534   6.216 -1.0297 -0.9317 -0.8366
  182POPC   H2Y20854   2.153   5.713   6.266  0.2160  0.2840 -0.9879
  182POPC   C2320855   1.488   5.469   6.150  0.0730  0.3398 -1.4975
  182POPC   H3R20856   1.542   5.519   6.066 -1.8317  0.5787 -2.6321
  182POPC   H3S20857   1.409   5.542   6.177 -0.1197 -0.8778  1.6152
  182POPC   C2420858   1.427   5.344   6.088  0.3759  0.4965  0.1068
  182POPC   H4R20859   1.361   5.385   6.008 -0.6949  0.2370  0.8408
  182POPC   H4S20860   1.359   5.291   6.158 -0.0257 -1.1241 -1.4600
  182POPC   C2520861   1.526   5.245   6.033  0.5324  0.5785  0.3033
  182POPC   H5R20862   1.573   5.187   6.116 -3.2564 -0.3389  2.0432
  182POPC   H5S20863   1.605   5.303   5.981  0.8368  0.0247  0.1382
  182POPC   C2620864   1.462   5.131   5.947  0.6447 -0.3098  0.0263
  182POPC   H6R20865   1.356   5.114   5.977  0.5654  1.1960  0.6507
  182POPC   H6S20866   1.519   5.036   5.961  0.0432 -0.9351 -1.5176
  182POPC   C2720867   1.454   5.157   5.793 -0.7088  0.6404 -0.7193
  182POPC   H7R20868   1.426   5.263   5.778  1.9201  1.3995 -0.6689
  182POPC   H7S20869   1.376   5.086   5.756  1.7869 -4.7118  2.9137
  182POPC   C2820870   1.591   5.121   5.726 -0.3642  1.0134 -0.4308
  182POPC   H8R20871   1.623   5.019   5.756  1.8132  0.9498 -2.6092
  182POPC   H8S20872   1.665   5.193   5.770  0.5751  0.0686 -0.4141
  182POPC   C2920873   1.590   5.134   5.574  0.0117  0.3968  0.3966
  182POPC   H9120874   1.521   5.073   5.513  2.0139 -1.0265 -0.5229
  182POPC  C21020875   1.669   5.204   5.491  0.2629 -0.0525 -0.3292
  182POPC  H10120876   1.644   5.202   5.384  2.5617 -2.7111 -0.9273
  182POPC  C21120877   1.781   5.306   5.537  1.0754 -0.1657  0.1215
  182POPC  H11R20878   1.871   5.293   5.473 -0.1768 -0.0235 -1.7339
  182POPC  H11S20879   1.811   5.299   5.644  0.6609  2.4744  0.4689
  182POPC  C21220880   1.739   5.457   5.502 -1.1507  0.5932 -0.4427
  182POPC  H12R20881   1.816   5.528   5.539 -0.2143  1.8734 -4.3119
  182POPC  H12S20882   1.648   5.474   5.562 -1.9873 -1.2719 -1.1180
  182POPC  C21320883   1.721   5.486   5.346 -0.3661 -0.4312  0.3140
  182POPC  H13R20884   1.691   5.593   5.342 -0.8953 -0.5815  0.1119
  182POPC  H13S20885   1.635   5.429   5.304  0.5611 -1.9065  0.3319
  182POPC  C21420886   1.855   5.483   5.272  0.1127 -0.1937 -0.2405
  182POPC  H14R20887   1.867   5.374   5.255 -3.5492 -0.5485 -1.5344
  182POPC  H14S20888   1.913   5.533   5.352  0.8308  2.3193 -2.2239
  182POPC  C21520889   1.855   5.541   5.131  0.0172  0.2716 -0.0398
  182POPC  H15R20890   1.961   5.569   5.110 -0.2304  0.8428 -0.5686
  182POPC  H15S20891   1.802   5.639   5.135  1.3666  1.0720 -0.6962
  182POPC  C21620892   1.801   5.440   5.025 -0.6138 -0.2761 -0.9656
  182POPC  H16R20893   1.706   5.395   5.061  0.9577 -2.0815  1.2988
  182POPC  H16S20894   1.875   5.360   5.001 -0.0996  0.7032 -2.7989
  182POPC  C21720895   1.775   5.514   4.893 -0.5883 -0.3854 -0.5721
  182POPC  H17R20896   1.873   5.528   4.844 -0.1900 -1.0278  0.0348
  182POPC  H17S20897   1.736   5.615   4.920 -0.0313 -0.8696  2.4420
  182POPC  C21820898   1.678   5.436   4.805 -0.1465  0.2353 -0.0775
  182POPC  H18R20899   1.651   5.485   4.710 -1.9456 -2.1130 -0.8893
  182POPC  H18S20900   1.581   5.419   4.857  1.1086 -3.4723  1.3878
  182POPC  H18T20901   1.718   5.336   4.778 -1.5125 -0.1584 -0.7454
  182POPC   C3320902   2.013   5.664   6.099  0.1013 -0.2007 -0.3363
  182POPC   H3X20903   2.086   5.714   6.032 -0.5727  0.6090 -0.4824
  182POPC   H3Y20904   1.933   5.736   6.128 -1.9556 -2.1818 -0.8069
  182POPC   C3420905   1.953   5.537   6.034  0.3155  0.0208 -0.5699
  182POPC   H4X20906   1.883   5.493   6.108 -0.4192  2.6767  0.4313
  182POPC   H4Y20907   2.043   5.481   6.001  0.0522  0.4698 -2.1552
  182POPC   C3520908   1.875   5.562   5.906 -0.1313  0.1787  0.1545
  182POPC   H5X20909   1.782   5.604   5.950 -1.1880 -1.3751 -0.4916
  182POPC   H5Y20910   1.844   5.470   5.851  0.9143  0.3541 -0.7525
  182POPC   C3620911   1.939   5.645   5.795  0.3199 -0.0778  0.7045
  182POPC   H6X20912   1.984   5.739   5.833  0.1933  0.9010 -1.4547
  182POPC   H6Y20913   1.873   5.658   5.706  0.3844 -1.2167  0.4758
  182POPC   C3720914   2.045   5.562   5.719 -0.2673 -0.2124  0.4865
  182POPC   H7X20915   2.007   5.459   5.702 -0.0378 -0.0247 -1.3788
  182POPC   H7Y20916   2.136   5.554   5.783 -2.5482  3.3050  4.7578
  182POPC   C3820917   2.081   5.622   5.583  0.6104  0.0672 -0.4639
  182POPC   H8X20918   2.137   5.716   5.599  1.1233  0.0460 -1.9712
  182POPC   H8Y20919   1.990   5.649   5.525  0.0379 -0.1420  0.3231
  182POPC   C3920920   2.176   5.528   5.501 -0.1235 -0.5027 -0.0879
  182POPC   H9X20921   2.107   5.447   5.470 -2.1392  0.9563  0.4388
  182POPC   H9Y20922   2.257   5.490   5.567  0.9514  3.5997  1.2864
  182POPC  C31020923   2.234   5.597   5.384  0.3787 -0.4100  0.2047
  182POPC  H10X20924   2.322   5.661   5.403 -0.6720  0.7433  1.4131
  182POPC  H10Y20925   2.155   5.662   5.341 -0.7959 -0.7228  1.8085
  182POPC  C31120926   2.290   5.498   5.274 -0.2566 -0.4126  0.4032
  182POPC  H11X20927   2.237   5.401   5.272  2.1648 -1.8151  0.5372
  182POPC  H11Y20928   2.391   5.464   5.305 -0.0228 -1.3903 -1.2861
  182POPC  C31220929   2.304   5.555   5.131 -0.4032 -0.0064  0.0488
  182POPC  H12X20930   2.382   5.632   5.149 -0.8501  0.7493 -1.1197
  182POPC  H12Y20931   2.206   5.595   5.097 -2.3787 -1.9826  2.9334
  182POPC  C31320932   2.353   5.442   5.040 -0.1648  0.1946  0.6699
  182POPC  H13X20933   2.302   5.346   5.061 -0.5850  0.1945 -0.2647
  182POPC  H13Y20934   2.460   5.435   5.070 -0.0592 -0.7311  0.1171
  182POPC  C31420935   2.335   5.467   4.890  0.4613 -0.0117  0.3114
  182POPC  H14X20936   2.404   5.396   4.840  0.8051 -1.2707  2.5017
  182POPC  H14Y20937   2.371   5.569   4.862  0.8626 -0.1625  0.2758
  182POPC  C31520938   2.185   5.472   4.837 -0.5032  0.4146  0.6074
  182POPC  H15X20939   2.184   5.507   4.732 -1.6545  2.1031  1.1351
  182POPC  H15Y20940   2.120   5.536   4.901  0.3049  2.0430 -0.1700
  182POPC  C31620941   2.119   5.328   4.822  0.1835 -0.4095  0.1750
  182POPC  H16X20942   2.184   5.258   4.764  0.7946 -0.4887  0.9328
  182POPC  H16Y20943   2.022   5.343   4.770  0.9468  1.8878 -0.6882
  182POPC  H16Z20944   2.120   5.293   4.928 -1.2182  0.3050  0.4428
  183POPC     N20945   3.749   3.037   6.843 -0.1710 -0.5592  0.3063
  183POPC   C1220946   3.630   2.987   6.930  0.5569 -0.3422 -0.6004
  183POPC  H12A20947   3.586   3.069   6.985  2.1086  0.2512 -0.1955
  183POPC  H12B20948   3.674   2.915   6.998 -0.8869  1.3118  2.2770
  183POPC   C1320949   3.826   2.919   6.786 -0.1955  0.0477 -0.1586
  183POPC  H13A20950   3.848   2.858   6.872 -1.0205 -1.8585 -1.2414
  183POPC  H13B20951   3.765   2.853   6.726 -0.8866  1.7149 -1.3779
  183POPC  H13C20952   3.908   2.957   6.728 -0.9824 -0.6907 -1.8117
  183POPC   C1420953   3.702   3.119   6.733  0.0917 -0.3454  0.2877
  183POPC  H14A20954   3.778   3.168   6.675  1.6564  0.2779  2.6931
  183POPC  H14B20955   3.632   3.065   6.671  0.2234 -2.5301  1.8939
  183POPC  H14C20956   3.642   3.198   6.775 -1.7692 -0.7857 -1.3985
  183POPC   C1520957   3.852   3.123   6.913 -0.0930 -0.0421 -0.0752
  183POPC  H15A20958   3.935   3.137   6.845 -0.8738 -1.0475 -1.2720
  183POPC  H15B20959   3.892   3.077   7.002 -3.6732  0.3039  1.8696
  183POPC  H15C20960   3.808   3.216   6.946  0.6808  0.5092 -0.5593
  183POPC   C1120961   3.521   2.910   6.858 -1.2934  0.2173 -0.3470
  183POPC  H11A20962   3.473   2.977   6.784 -2.7312  0.6724  0.9467
  183POPC  H11B20963   3.442   2.885   6.932 -3.1548  3.1675 -1.1623
  183POPC     P20964   3.519   2.716   6.680 -0.0350 -0.3260 -0.1150
  183POPC   O1320965   3.393   2.646   6.724  0.3736  0.5715  0.5772
  183POPC   O1420966   3.632   2.635   6.627 -0.3173  0.3987  0.2078
  183POPC   O1220967   3.580   2.785   6.805 -0.6254  0.3653  0.2888
  183POPC   O1120968   3.490   2.831   6.570 -0.4817  0.2677  0.5067
  183POPC    C120969   3.355   2.834   6.510 -0.0685 -0.2300  0.3318
  183POPC    HA20970   3.354   2.941   6.478 -0.0474  1.1841  4.4801
  183POPC    HB20971   3.267   2.807   6.572 -1.6134  0.3548 -1.5034
  183POPC    C220972   3.358   2.743   6.376 -0.4652 -0.3105  0.3706
  183POPC    HS20973   3.405   2.649   6.411 -1.4272 -0.4626  1.3083
  183POPC   O2120974   3.431   2.817   6.278 -0.5009  0.4861  0.6556
  183POPC   C2120975   3.507   2.732   6.205  0.0104 -0.7663 -0.3555
  183POPC   O2220976   3.501   2.608   6.199  0.6857 -0.0544  0.6907
  183POPC   C2220977   3.619   2.810   6.129 -0.6421  0.3466 -0.6927
  183POPC   H2R20978   3.715   2.781   6.178 -1.5606 -0.3117  0.7719
  183POPC   H2S20979   3.612   2.918   6.152  2.0058  0.3242  0.7693
  183POPC    C320980   3.213   2.713   6.317  0.1353 -0.1709 -0.1073
  183POPC    HX20981   3.184   2.814   6.282 -0.5369 -1.2019 -2.7573
  183POPC    HY20982   3.134   2.682   6.388 -1.2206  0.7350 -1.1832
  183POPC   O3120983   3.219   2.622   6.208  0.6029 -0.0385  0.1834
  183POPC   C3120984   3.225   2.490   6.246  0.5273 -1.3174  0.1209
  183POPC   O3220985   3.217   2.451   6.360  0.7451  0.1074  0.5835
  183POPC   C3220986   3.249   2.409   6.118 -0.1909  0.0381  0.2252
  183POPC   H2X20987   3.344   2.425   6.062 -1.0433 -0.3704 -1.4170
  183POPC   H2Y20988   3.169   2.436   6.046  1.0817  0.1857 -1.1830
  183POPC   C2320989   3.620   2.786   5.971  0.4376 -0.0708  0.4656
  183POPC   H3R20990   3.528   2.827   5.924  2.0618  1.3577 -1.7154
  183POPC   H3S20991   3.606   2.676   5.965 -0.5874 -0.0453  2.0309
  183POPC   C2420992   3.757   2.820   5.908 -0.1846 -0.1529  0.2650
  183POPC   H4R20993   3.831   2.761   5.968 -0.7790 -0.9631  0.2176
  183POPC   H4S20994   3.776   2.927   5.932 -3.4870  0.7863 -0.8865
  183POPC   C2520995   3.756   2.784   5.758  0.0510  0.6085 -0.7041
  183POPC   H5R20996   3.724   2.677   5.757  3.0143 -0.4298  0.7813
  183POPC   H5S20997   3.860   2.787   5.719 -0.1891 -3.4239 -2.1287
  183POPC   C2620998   3.657   2.866   5.675 -0.5207  0.0285  0.3471
  183POPC   H6R20999   3.691   2.972   5.672  0.6692 -0.3345  0.8262
  183POPC   H6S21000   3.552   2.856   5.710 -0.7962  1.6725  0.1104
  183POPC   C2721001   3.637   2.825   5.525  0.1600  0.3899 -0.8898
  183POPC   H7R21002   3.608   2.719   5.517  1.6165 -0.4068  2.3899
  183POPC   H7S21003   3.734   2.839   5.473  1.0047 -0.4424  0.3999
  183POPC   C2821004   3.532   2.922   5.462  0.0408 -0.0173  0.1863
  183POPC   H8R21005   3.550   3.015   5.519  1.1309 -0.2540  0.2644
  183POPC   H8S21006   3.433   2.899   5.505 -0.0325 -0.9173 -0.4382
  183POPC   C2921007   3.525   2.932   5.311  0.3675 -0.3925  0.3923
  183POPC   H9121008   3.571   3.017   5.258  0.9214 -1.5535 -1.0745
  183POPC  C21021009   3.464   2.850   5.222 -0.2492 -0.2425 -0.4796
  183POPC  H10121010   3.451   2.893   5.121 -0.0441  2.1502  0.4413
  183POPC  C21121011   3.382   2.727   5.262  0.1878 -0.5528  0.3855
  183POPC  H11R21012   3.409   2.687   5.361  0.0357  0.1430  0.7155
  183POPC  H11S21013   3.391   2.638   5.196 -0.2775  0.3005 -0.8936
  183POPC  C21221014   3.229   2.751   5.270 -0.3531  0.3054 -0.5006
  183POPC  H12R21015   3.217   2.799   5.370 -0.1297 -1.2446  0.3065
  183POPC  H12S21016   3.176   2.654   5.271 -1.4443  0.8389 -2.2105
  183POPC  C21321017   3.165   2.833   5.154 -0.4276  0.0990  0.3945
  183POPC  H13R21018   3.196   2.780   5.062 -0.9998 -0.8080  0.7056
  183POPC  H13S21019   3.206   2.936   5.162  2.4587 -0.9988  1.3099
  183POPC  C21421020   3.013   2.839   5.158 -0.1883  0.3287  0.3492
  183POPC  H14R21021   2.973   2.893   5.246  0.7216  1.6277 -0.0051
  183POPC  H14S21022   2.970   2.737   5.167 -0.9503  0.7157  1.1893
  183POPC  C21521023   2.949   2.898   5.024 -1.2773  0.0272 -1.1497
  183POPC  H15R21024   2.997   2.832   4.948 -0.7700  0.6734 -1.4040
  183POPC  H15S21025   3.011   2.989   5.011  1.6297 -1.2668  2.0997
  183POPC  C21621026   2.800   2.919   5.018  0.3796  0.4044 -0.5678
  183POPC  H16R21027   2.758   2.975   5.104  1.8640 -1.3461  1.3997
  183POPC  H16S21028   2.752   2.818   5.016  0.7676  0.2212 -2.7549
  183POPC  C21721029   2.765   3.000   4.887  0.1118 -0.1326 -0.0472
  183POPC  H17R21030   2.663   2.984   4.846  0.2135  2.9829 -1.8622
  183POPC  H17S21031   2.844   2.963   4.819  1.7119  0.4771  1.4196
  183POPC  C21821032   2.773   3.153   4.902  0.0682 -0.2646 -0.8662
  183POPC  H18R21033   2.873   3.189   4.933 -0.4108 -0.1165  0.5918
  183POPC  H18S21034   2.695   3.187   4.974 -0.8446 -0.5253 -1.7036
  183POPC  H18T21035   2.740   3.211   4.813 -2.4180 -1.0429 -0.5334
  183POPC   C3321036   3.253   2.264   6.151 -0.4944  0.2267 -0.1930
  183POPC   H3X21037   3.161   2.218   6.193 -1.0236  2.0297  0.7556
  183POPC   H3Y21038   3.321   2.258   6.239 -0.7967  0.3046  0.0461
  183POPC   C3421039   3.320   2.171   6.045  0.2918 -0.6645 -0.4136
  183POPC   H4X21040   3.339   2.074   6.094  0.9257 -1.1368 -1.5637
  183POPC   H4Y21041   3.423   2.197   6.011 -0.0513 -2.3029 -2.9524
  183POPC   C3521042   3.225   2.146   5.928 -1.0722  0.5801  1.0929
  183POPC   H5X21043   3.219   2.235   5.863 -1.1032 -0.5961 -0.5762
  183POPC   H5Y21044   3.124   2.126   5.970 -0.9125  0.4815  1.4345
  183POPC   C3621045   3.279   2.022   5.865  0.3366 -0.5049 -0.2591
  183POPC   H6X21046   3.265   1.941   5.939 -0.8834  0.6222  0.7988
  183POPC   H6Y21047   3.387   2.035   5.842  0.8073  3.8525  3.0756
  183POPC   C3721048   3.196   1.989   5.740  0.4189  0.4872 -0.3528
  183POPC   H7X21049   3.198   2.073   5.668 -1.5169  1.2699  0.4696
  183POPC   H7Y21050   3.094   1.983   5.782  0.3221 -0.3081 -0.6801
  183POPC   C3821051   3.235   1.854   5.673 -0.0105 -0.4662  0.2288
  183POPC   H8X21052   3.245   1.774   5.749 -0.2644 -0.1516  0.6011
  183POPC   H8Y21053   3.330   1.877   5.619  0.0742 -0.5707  0.3346
  183POPC   C3921054   3.150   1.805   5.558 -0.5660 -0.5599 -0.1271
  183POPC   H9X21055   3.053   1.766   5.594 -0.0729 -1.2981  0.4339
  183POPC   H9Y21056   3.202   1.715   5.517  0.5280 -0.2443  0.5249
  183POPC  C31021057   3.123   1.903   5.439 -0.2746 -0.8274 -0.2682
  183POPC  H10X21058   3.219   1.945   5.401 -1.2966  1.4194 -0.4940
  183POPC  H10Y21059   3.078   2.000   5.469  1.9579  0.0877  0.3348
  183POPC  C31121060   3.042   1.836   5.325 -0.6377  0.1104 -0.3292
  183POPC  H11X21061   2.940   1.807   5.359 -0.1622 -3.8893 -1.7335
  183POPC  H11Y21062   3.098   1.743   5.303  0.5138  0.6730  0.1398
  183POPC  C31221063   3.035   1.916   5.193 -0.2620  0.2473 -0.2253
  183POPC  H12X21064   3.131   1.934   5.141 -0.6476  0.3326 -0.9166
  183POPC  H12Y21065   2.989   2.013   5.222  1.9874  1.7034 -1.2590
  183POPC  C31321066   2.930   1.849   5.098  0.2483 -0.4081 -0.5391
  183POPC  H13X21067   2.927   1.908   5.004  1.8608  1.1506  0.3215
  183POPC  H13Y21068   2.834   1.866   5.151  0.6725 -0.6437  0.3257
  183POPC  C31421069   2.965   1.701   5.072  1.3784 -0.2313  0.3146
  183POPC  H14X21070   2.969   1.649   5.171  1.7878 -0.4679  0.1775
  183POPC  H14Y21071   3.061   1.689   5.017  0.5923 -0.5286 -1.0169
  183POPC  C31521072   2.855   1.631   4.984 -0.0477 -0.3663 -0.0590
  183POPC  H15X21073   2.753   1.655   5.021 -0.0264  1.7712 -1.2145
  183POPC  H15Y21074   2.879   1.523   4.999 -0.4645 -0.6582 -1.3822
  183POPC  C31621075   2.875   1.659   4.835  0.2819  0.4433 -0.4403
  183POPC  H16X21076   2.982   1.657   4.807  0.8027 -0.8805  1.4462
  183POPC  H16Y21077   2.835   1.761   4.812  0.7660  0.6709 -0.2788
  183POPC  H16Z21078   2.825   1.585   4.769  1.4156 -0.3571 -0.4249
  184POPC     N21079   3.468   4.613   7.006 -0.8330  0.3883  0.5130
  184POPC   C1221080   3.333   4.681   6.986 -0.2203 -0.4627 -0.7667
  184POPC  H12A21081   3.335   4.787   7.006  2.8838 -0.5864 -0.0545
  184POPC  H12B21082   3.271   4.651   7.069  0.1590 -1.6773 -0.9016
  184POPC   C1321083   3.569   4.672   6.919 -0.0797 -0.6425  0.1601
  184POPC  H13A21084   3.579   4.779   6.930 -0.0170 -0.7153  0.8666
  184POPC  H13B21085   3.668   4.630   6.936  1.3107  1.7239 -1.5332
  184POPC  H13C21086   3.543   4.654   6.816 -0.5023  0.2597  0.1013
  184POPC   C1421087   3.523   4.631   7.142  0.7521 -0.7085 -0.9574
  184POPC  H14A21088   3.622   4.588   7.152  1.5448  1.4281  1.9348
  184POPC  H14B21089   3.543   4.737   7.148  1.5351 -0.2667 -6.2975
  184POPC  H14C21090   3.455   4.608   7.222  3.1238 -1.9125  0.8542
  184POPC   C1521091   3.465   4.464   6.980  0.1886  0.4197 -0.3277
  184POPC  H15A21092   3.563   4.420   6.991  0.3082  0.8769  0.4944
  184POPC  H15B21093   3.436   4.427   6.882  2.9554 -1.0463 -0.7088
  184POPC  H15C21094   3.399   4.422   7.053 -1.4002  3.8569  0.4338
  184POPC   C1121095   3.257   4.668   6.851  0.4162 -0.1141  0.2970
  184POPC  H11A21096   3.336   4.691   6.776 -0.0187 -0.7017 -0.3473
  184POPC  H11B21097   3.171   4.737   6.865 -0.1387 -0.7538  0.0743
  184POPC     P21098   3.095   4.469   6.907  0.0508 -0.3471  0.2122
  184POPC   O1321099   3.109   4.489   7.052 -0.5867 -1.3037  0.4621
  184POPC   O1421100   3.071   4.330   6.869 -0.4090 -0.1128  0.2350
  184POPC   O1221101   3.221   4.526   6.827  0.5528  1.0414 -0.6159
  184POPC   O1121102   2.981   4.562   6.845 -0.8671  0.3987 -0.2763
  184POPC    C121103   2.959   4.572   6.703  0.0605 -0.4033  0.6231
  184POPC    HA21104   3.050   4.561   6.639  0.6444 -0.8533  1.5063
  184POPC    HB21105   2.923   4.677   6.693  0.1611 -0.3052  1.2140
  184POPC    C221106   2.847   4.472   6.641 -0.7066 -0.2042  0.2321
  184POPC    HS21107   2.899   4.376   6.620 -1.0227 -0.3499  0.1193
  184POPC   O2121108   2.784   4.531   6.532 -0.3459 -0.4589 -0.0149
  184POPC   C2121109   2.851   4.530   6.419 -0.7593  0.0509 -0.7034
  184POPC   O2221110   2.966   4.484   6.406  0.5079  0.7060  0.4102
  184POPC   C2221111   2.753   4.558   6.309  0.0090 -0.2359  0.7232
  184POPC   H2R21112   2.738   4.668   6.305  1.7878  0.0496  0.8794
  184POPC   H2S21113   2.662   4.499   6.332 -0.9976  1.1462  0.4120
  184POPC    C321114   2.733   4.450   6.741 -0.1429 -0.1316 -0.2109
  184POPC    HX21115   2.689   4.550   6.760  1.5993  0.6396  0.0342
  184POPC    HY21116   2.788   4.416   6.832 -0.2512 -0.2298 -0.1822
  184POPC   O3121117   2.642   4.352   6.687 -0.3084 -0.3572  0.4993
  184POPC   C3121118   2.532   4.401   6.625  0.3371  0.2114 -0.3478
  184POPC   O3221119   2.508   4.519   6.616  0.4160 -0.2713  1.0467
  184POPC   C3221120   2.444   4.286   6.597 -0.4430  0.1692 -0.2911
  184POPC   H2X21121   2.378   4.273   6.685  0.5184  2.5020  0.8510
  184POPC   H2Y21122   2.494   4.187   6.589 -4.6996 -2.2691  0.1918
  184POPC   C2321123   2.812   4.523   6.168 -0.0713 -0.2254  0.0523
  184POPC   H3R21124   2.853   4.420   6.167  1.3112  0.2882 -1.4597
  184POPC   H3S21125   2.904   4.583   6.149 -0.6269  0.1236 -1.7365
  184POPC   C2421126   2.700   4.552   6.058 -0.6291 -0.5212  0.1636
  184POPC   H4R21127   2.678   4.660   6.072  0.2425 -0.3596  0.3344
  184POPC   H4S21128   2.608   4.489   6.064 -2.0521  1.1512 -2.1570
  184POPC   C2521129   2.751   4.538   5.917 -0.4177 -0.0458 -0.4112
  184POPC   H5R21130   2.860   4.556   5.910 -0.2593 -1.3805 -2.0564
  184POPC   H5S21131   2.705   4.618   5.855 -2.0290  0.0726  0.8882
  184POPC   C2621132   2.733   4.390   5.872  0.0785 -0.1086  0.6576
  184POPC   H6R21133   2.625   4.372   5.853  0.4301  0.4566 -2.3100
  184POPC   H6S21134   2.782   4.330   5.952 -0.6624 -0.5282  0.8054
  184POPC   C2721135   2.800   4.374   5.739  0.6388  0.1997 -0.1874
  184POPC   H7R21136   2.908   4.384   5.765  0.9646 -1.8629 -0.5717
  184POPC   H7S21137   2.763   4.453   5.670  0.5866  0.8923  0.6115
  184POPC   C2821138   2.788   4.237   5.674 -0.1579 -0.0413  0.3381
  184POPC   H8R21139   2.823   4.176   5.760 -0.5363  0.8938  1.1801
  184POPC   H8S21140   2.847   4.236   5.580 -0.1340  0.4008  0.3440
  184POPC   C2921141   2.640   4.208   5.645 -0.0487  0.4202  0.1736
  184POPC   H9121142   2.586   4.182   5.737 -1.5971  1.3055 -0.4278
  184POPC  C21021143   2.577   4.185   5.533 -0.7745 -0.5035  1.0841
  184POPC  H10121144   2.467   4.179   5.529 -0.9949  2.2956  0.8618
  184POPC  C21121145   2.644   4.190   5.396 -0.3556  0.0865  0.4730
  184POPC  H11R21146   2.754   4.206   5.408 -0.0033 -1.8734  0.1281
  184POPC  H11S21147   2.618   4.282   5.340  1.2408  0.9534  1.0541
  184POPC  C21221148   2.602   4.071   5.302 -0.0145 -0.4766 -0.2584
  184POPC  H12R21149   2.493   4.051   5.310  0.0153 -0.9943 -1.0290
  184POPC  H12S21150   2.645   3.973   5.329  1.0421  0.3940  1.3766
  184POPC  C21321151   2.658   4.090   5.160  0.0639  0.1965  0.8982
  184POPC  H13R21152   2.677   3.989   5.117  0.9783 -1.1211  4.1138
  184POPC  H13S21153   2.762   4.128   5.170  0.4102 -0.8130  1.3503
  184POPC  C21421154   2.568   4.184   5.082  0.4425 -0.0026 -0.0302
  184POPC  H14R21155   2.624   4.278   5.065  1.2580  0.0731  2.6308
  184POPC  H14S21156   2.476   4.201   5.143  0.4258  0.6440 -0.2300
  184POPC  C21521157   2.529   4.142   4.934  0.1905 -0.2056  0.5498
  184POPC  H15R21158   2.467   4.228   4.902  2.6081  0.5978 -2.4719
  184POPC  H15S21159   2.468   4.050   4.929  0.1501 -0.1665  0.3357
  184POPC  C21621160   2.645   4.116   4.839 -0.2258 -0.1637 -0.3635
  184POPC  H16R21161   2.711   4.037   4.880 -2.2356 -1.0850  1.2780
  184POPC  H16S21162   2.702   4.212   4.840 -0.7169  0.1344  0.5151
  184POPC  C21721163   2.616   4.062   4.698 -0.5064 -0.0460 -0.0643
  184POPC  H17R21164   2.719   4.049   4.658  0.6299  4.1492  0.9719
  184POPC  H17S21165   2.563   4.138   4.638  1.7768  1.1471 -0.6902
  184POPC  C21821166   2.536   3.929   4.689  0.4936  0.0918 -0.2276
  184POPC  H18R21167   2.591   3.850   4.744  0.4563 -2.4942 -3.5749
  184POPC  H18S21168   2.526   3.890   4.585 -0.2501 -0.9073  0.2054
  184POPC  H18T21169   2.440   3.933   4.745 -0.4275 -2.3983 -1.4848
  184POPC   C3321170   2.363   4.306   6.472 -0.3622  0.0849 -0.5442
  184POPC   H3X21171   2.304   4.399   6.457  0.5378  0.4858 -1.7738
  184POPC   H3Y21172   2.297   4.217   6.471 -0.6062  0.1267  2.4601
  184POPC   C3421173   2.440   4.286   6.337  0.1636 -0.2291 -0.1059
  184POPC   H4X21174   2.515   4.205   6.339  1.0387  0.3668 -3.2702
  184POPC   H4Y21175   2.500   4.377   6.314  0.2556  0.2068  1.7015
  184POPC   C3521176   2.343   4.246   6.231 -0.3754  0.9672  0.3925
  184POPC   H5X21177   2.376   4.284   6.132 -1.1654  3.2487  0.9281
  184POPC   H5Y21178   2.245   4.296   6.250 -2.0487 -1.8397 -0.2967
  184POPC   C3621179   2.318   4.089   6.217  0.4780  0.1823 -0.0208
  184POPC   H6X21180   2.248   4.043   6.290 -0.8028  2.7011  0.4482
  184POPC   H6Y21181   2.413   4.035   6.236  0.5407 -0.3113 -1.6333
  184POPC   C3721182   2.267   4.046   6.079  0.0970 -0.0509 -0.4558
  184POPC   H7X21183   2.180   4.106   6.046 -2.2980 -2.6228  0.7775
  184POPC   H7Y21184   2.209   3.952   6.088 -2.0686  1.3483  1.2152
  184POPC   C3821185   2.372   4.051   5.964 -0.6046  0.0944  0.4361
  184POPC   H8X21186   2.425   4.148   5.954 -1.5519  0.5932  0.1863
  184POPC   H8Y21187   2.319   4.028   5.869 -3.2860 -0.4507  1.9452
  184POPC   C3921188   2.481   3.945   5.990 -0.4657  0.1379 -0.9992
  184POPC   H9X21189   2.449   3.852   6.041  2.6425  0.0918  1.1627
  184POPC   H9Y21190   2.558   3.988   6.057 -2.1695  0.8014  0.5985
  184POPC  C31021191   2.543   3.899   5.857  0.4235 -1.1178  0.1222
  184POPC  H10X21192   2.537   3.982   5.783 -0.7197 -0.5739  0.7860
  184POPC  H10Y21193   2.475   3.821   5.815 -1.2627 -0.5074  1.5684
  184POPC  C31121194   2.687   3.858   5.862 -0.3813  0.2049 -0.0954
  184POPC  H11X21195   2.695   3.798   5.955 -1.0986  0.9079  0.4399
  184POPC  H11Y21196   2.763   3.939   5.866 -0.2451  0.1875 -1.5775
  184POPC  C31221197   2.738   3.769   5.745 -0.0919  0.3248  0.4142
  184POPC  H12X21198   2.682   3.674   5.738  2.0231 -1.3247  3.3509
  184POPC  H12Y21199   2.844   3.747   5.770 -0.4813  0.6510  2.6601
  184POPC  C31321200   2.725   3.836   5.613  0.2602 -0.0413  0.2963
  184POPC  H13X21201   2.789   3.927   5.605 -1.7598  1.4165 -0.3588
  184POPC  H13Y21202   2.619   3.856   5.586 -0.0351 -2.1182 -0.2513
  184POPC  C31421203   2.752   3.740   5.493  0.9632 -0.0602 -0.2398
  184POPC  H14X21204   2.726   3.788   5.397  0.4763 -2.0663 -1.1614
  184POPC  H14Y21205   2.680   3.658   5.515 -0.9651  2.1267  2.2219
  184POPC  C31521206   2.893   3.684   5.495 -0.0395 -0.7463 -0.8520
  184POPC  H15X21207   2.894   3.622   5.588  1.1771 -0.4711 -0.6527
  184POPC  H15Y21208   2.967   3.766   5.512  0.3066 -1.0992 -0.6133
  184POPC  C31621209   2.929   3.602   5.369 -0.0021 -0.0270 -0.0280
  184POPC  H16X21210   2.891   3.650   5.276 -2.9992 -1.4212  0.3649
  184POPC  H16Y21211   2.869   3.509   5.373  1.4058 -0.9216  2.4729
  184POPC  H16Z21212   3.037   3.588   5.349  0.6067  1.2904  1.9709
  185POPC     N21213   3.484   2.053   2.062  0.0133 -0.2047 -0.4135
  185POPC   C1221214   3.476   1.923   2.151 -0.4384 -0.0550 -0.3028
  185POPC  H12A21215   3.484   1.839   2.084  0.8730  1.2685 -1.9056
  185POPC  H12B21216   3.382   1.911   2.201  0.2940 -1.5830  0.7903
  185POPC   C1321217   3.488   2.174   2.157 -0.3120 -0.2701  0.0074
  185POPC  H13A21218   3.569   2.160   2.227 -0.0460  1.1949  0.0339
  185POPC  H13B21219   3.510   2.261   2.096 -1.4589 -1.8342 -2.8473
  185POPC  H13C21220   3.391   2.177   2.204 -1.1192 -2.4736 -1.3835
  185POPC   C1421221   3.609   2.052   1.985  0.2270 -0.0233 -0.7668
  185POPC  H14A21222   3.694   2.060   2.052 -0.2429 -0.8108 -0.0552
  185POPC  H14B21223   3.615   1.968   1.918  1.9696 -0.3549 -0.2684
  185POPC  H14C21224   3.613   2.141   1.925  0.4940  0.4670 -0.0405
  185POPC   C1521225   3.363   2.065   1.980 -0.5546  0.1496 -0.3421
  185POPC  H15A21226   3.379   2.153   1.920  2.7564 -0.3335 -0.3540
  185POPC  H15B21227   3.272   2.069   2.038 -0.7664 -0.9803 -0.5714
  185POPC  H15C21228   3.358   1.987   1.906  1.2155  1.2916 -1.7691
  185POPC   C1121229   3.588   1.882   2.252 -0.5615 -0.0072  0.3271
  185POPC  H11A21230   3.562   1.798   2.320 -1.8387  0.0884 -0.0213
  185POPC  H11B21231   3.602   1.972   2.315 -1.6194 -0.1034  0.7099
  185POPC     P21232   3.731   1.706   2.118 -0.0792 -0.0838  0.1826
  185POPC   O1321233   3.867   1.697   2.056 -0.7332 -0.0202 -0.2630
  185POPC   O1421234   3.621   1.681   2.024 -0.0316 -0.0478  0.1168
  185POPC   O1221235   3.708   1.844   2.185 -0.0212  0.5076  0.7944
  185POPC   O1121236   3.724   1.622   2.250 -0.6679 -0.0840 -0.9553
  185POPC    C121237   3.824   1.632   2.344  0.1388  0.1305 -0.0840
  185POPC    HA21238   3.824   1.736   2.382 -2.1405  0.9356 -1.9971
  185POPC    HB21239   3.922   1.603   2.299  0.9201 -0.2569  1.7891
  185POPC    C221240   3.806   1.520   2.448  0.0693 -0.2966 -0.7361
  185POPC    HS21241   3.705   1.530   2.493  0.1464 -0.2859 -0.5631
  185POPC   O2121242   3.905   1.521   2.546  0.2495 -0.2596  0.4708
  185POPC   C2121243   3.911   1.619   2.643 -0.1782  0.1383 -0.0691
  185POPC   O2221244   3.819   1.695   2.665 -0.4283  0.5251  0.4991
  185POPC   C2221245   4.049   1.626   2.716 -0.2138 -0.4685 -0.0548
  185POPC   H2R21246   4.047   1.676   2.815  2.0845  2.2404 -1.2330
  185POPC   H2S21247   4.130   1.683   2.666  0.4143 -0.6871  0.6794
  185POPC    C321248   3.817   1.380   2.385  0.1496  0.9015  0.1829
  185POPC    HX21249   3.921   1.357   2.353 -0.2955 -1.0707  0.0047
  185POPC    HY21250   3.755   1.369   2.293  0.9896  0.3165 -0.3356
  185POPC   O3121251   3.775   1.278   2.479 -0.5227 -0.5041  0.5649
  185POPC   C3121252   3.837   1.157   2.471 -0.5936 -0.2211 -0.2986
  185POPC   O3221253   3.926   1.133   2.393 -0.2946  0.5260 -0.4523
  185POPC   C3221254   3.783   1.069   2.582  0.2606  1.1550 -0.2225
  185POPC   H2X21255   3.784   0.961   2.557  0.2323  0.8680  0.9686
  185POPC   H2Y21256   3.673   1.071   2.592  0.1738 -0.7439 -0.5147
  185POPC   C2321257   4.093   1.484   2.746  0.1481 -0.3706  0.3086
  185POPC   H3R21258   4.118   1.435   2.649  1.8508  0.3474  0.3610
  185POPC   H3S21259   4.011   1.424   2.791  1.1225 -0.6121  1.8053
  185POPC   C2421260   4.200   1.474   2.858  0.1993 -0.2762 -0.0564
  185POPC   H4R21261   4.161   1.497   2.960 -0.3576 -0.9364 -0.1145
  185POPC   H4S21262   4.277   1.552   2.838 -0.8626  1.6782  2.7494
  185POPC   C2521263   4.278   1.338   2.867  0.4897  0.1662 -0.1900
  185POPC   H5R21264   4.298   1.294   2.767 -0.0549  2.4461 -1.3621
  185POPC   H5S21265   4.210   1.267   2.919  1.2695 -0.7068 -0.3326
  185POPC   C2621266   4.417   1.345   2.939 -0.3518 -0.8176  0.3006
  185POPC   H6R21267   4.410   1.414   3.026  0.3470  1.7653 -1.5550
  185POPC   H6S21268   4.492   1.398   2.876 -2.0373 -1.9413 -2.8851
  185POPC   C2721269   4.471   1.213   2.982 -0.2820  0.5048 -0.6158
  185POPC   H7R21270   4.466   1.144   2.895 -0.7895 -1.1332  0.6336
  185POPC   H7S21271   4.417   1.153   3.060  2.8425 -2.8321 -0.7711
  185POPC   C2821272   4.609   1.229   3.045 -0.5204  0.0073  0.9628
  185POPC   H8R21273   4.600   1.327   3.097 -2.0982  0.7719 -0.6433
  185POPC   H8S21274   4.676   1.254   2.960  1.2581  0.2409  2.3589
  185POPC   C2921275   4.674   1.121   3.126  0.3412  0.5125  0.4048
  185POPC   H9121276   4.724   1.038   3.073 -1.0135  0.3453 -0.6812
  185POPC  C21021277   4.651   1.112   3.260 -0.4098 -0.0655 -0.1525
  185POPC  H10121278   4.683   1.024   3.317  1.1295  1.2426  1.0878
  185POPC  C21121279   4.576   1.207   3.341  0.0337 -1.0556 -0.1049
  185POPC  H11R21280   4.527   1.286   3.281 -0.3800  0.3895  1.9999
  185POPC  H11S21281   4.651   1.270   3.393 -0.5755 -2.0362  2.0987
  185POPC  C21221282   4.481   1.147   3.437  0.2045  0.8013 -0.5329
  185POPC  H12R21283   4.502   1.056   3.499  3.8810  1.1165 -1.0620
  185POPC  H12S21284   4.398   1.108   3.375  0.5252  0.1799 -0.5880
  185POPC  C21321285   4.420   1.259   3.529  0.6014  0.1548  0.0336
  185POPC  H13R21286   4.346   1.316   3.470  1.5124 -0.7970 -2.1333
  185POPC  H13S21287   4.507   1.316   3.569  2.8703 -2.1813 -1.2499
  185POPC  C21421288   4.317   1.200   3.637 -0.1975 -0.0763  0.0696
  185POPC  H14R21289   4.291   1.279   3.712  1.5503 -0.6834  1.3813
  185POPC  H14S21290   4.384   1.131   3.692 -0.2578 -0.0294  0.2037
  185POPC  C21521291   4.201   1.120   3.581 -0.2759 -0.3142  0.1025
  185POPC  H15R21292   4.239   1.038   3.516 -0.3164  0.6019 -1.1001
  185POPC  H15S21293   4.151   1.191   3.512  1.7382  0.3650 -0.7499
  185POPC  C21621294   4.108   1.064   3.685  0.2969 -0.7765 -0.0275
  185POPC  H16R21295   4.064   1.144   3.749  0.7254 -0.0922 -0.5843
  185POPC  H16S21296   4.168   1.005   3.757  0.2158  1.4842  1.9989
  185POPC  C21721297   3.996   0.985   3.620 -0.0637  0.4947 -0.0381
  185POPC  H17R21298   4.027   0.885   3.581  0.1916  0.2302  0.8215
  185POPC  H17S21299   3.958   1.033   3.527 -1.4250 -0.5390 -0.0494
  185POPC  C21821300   3.876   0.952   3.717  0.6628  0.1082  0.0133
  185POPC  H18R21301   3.787   1.004   3.676  0.3926 -0.6599 -0.3875
  185POPC  H18S21302   3.888   0.970   3.826 -2.9102  3.7953  0.0300
  185POPC  H18T21303   3.844   0.847   3.707  0.7318  0.0095  0.7203
  185POPC   C3321304   3.847   1.089   2.722 -0.6717  0.2622 -0.3628
  185POPC   H3X21305   3.779   1.040   2.795 -1.2465  0.3670 -0.8197
  185POPC   H3Y21306   3.846   1.197   2.744  1.9625 -0.0831  2.0340
  185POPC   C3421307   3.988   1.031   2.737 -0.3251  0.0522 -0.0437
  185POPC   H4X21308   4.059   1.102   2.690 -0.4266  2.5317  3.2602
  185POPC   H4Y21309   4.001   0.932   2.687  1.8270 -0.7708  1.9911
  185POPC   C3521310   4.022   1.032   2.887 -0.3312  0.1971  0.6139
  185POPC   H5X21311   3.938   0.973   2.930 -1.1716 -0.1292 -1.3731
  185POPC   H5Y21312   4.003   1.126   2.944 -0.4971 -1.0219  2.6792
  185POPC   C3621313   4.152   0.973   2.930 -0.0595  0.2287  0.0669
  185POPC   H6X21314   4.238   1.033   2.893 -0.5903  1.1894  0.3550
  185POPC   H6Y21315   4.164   0.876   2.877  2.1333 -0.1216  1.0798
  185POPC   C3721316   4.177   0.947   3.080 -0.1070  0.6965 -0.6331
  185POPC   H7X21317   4.192   1.048   3.123  0.5368  0.7252 -0.9092
  185POPC   H7Y21318   4.275   0.895   3.093 -0.3539  0.7628  2.1303
  185POPC   C3821319   4.069   0.869   3.163  0.2500  0.5289  0.4368
  185POPC   H8X21320   3.968   0.905   3.137  1.0059  1.8248 -0.8561
  185POPC   H8Y21321   4.078   0.875   3.274  1.7089  1.3818  0.3003
  185POPC   C3921322   4.074   0.717   3.129  0.3651  0.1798  0.1096
  185POPC   H9X21323   4.180   0.682   3.120  0.0321 -0.5031 -1.3874
  185POPC   H9Y21324   4.014   0.710   3.037 -0.6050 -0.8391  0.7976
  185POPC  C31021325   4.014   0.638   3.247  0.5572  0.4382 -0.8368
  185POPC  H10X21326   3.974   0.536   3.228 -0.6257 -0.0617  3.2568
  185POPC  H10Y21327   3.924   0.687   3.290 -1.3162 -1.5113 -2.2997
  185POPC  C31121328   4.110   0.606   3.364  0.4435  0.5701 -0.2133
  185POPC  H11X21329   4.164   0.702   3.382 -1.8069  2.0170 -0.7976
  185POPC  H11Y21330   4.183   0.526   3.338 -2.1554 -1.5768 -1.3928
  185POPC  C31221331   4.055   0.551   3.494  0.5103 -0.1743 -0.2064
  185POPC  H12X21332   3.986   0.466   3.473 -1.2624  1.2195 -0.3248
  185POPC  H12Y21333   3.996   0.629   3.547  1.8443  0.9557 -0.3199
  185POPC  C31321334   4.162   0.519   3.601  0.2580  0.2618 -0.3348
  185POPC  H13X21335   4.234   0.603   3.606  0.9147 -0.3151  0.0906
  185POPC  H13Y21336   4.218   0.428   3.570 -0.1537 -0.6550  1.4786
  185POPC  C31421337   4.102   0.506   3.749  0.1112  0.0014 -0.1107
  185POPC  H14X21338   4.189   0.481   3.814  0.4503 -1.5002 -1.0925
  185POPC  H14Y21339   4.034   0.418   3.752  1.8567 -1.4361 -0.9940
  185POPC  C31521340   4.042   0.632   3.819 -0.3039 -0.1131 -0.2049
  185POPC  H15X21341   3.945   0.647   3.767 -1.5130 -1.3026  1.6071
  185POPC  H15Y21342   4.098   0.724   3.791 -0.4479 -0.1660 -0.6803
  185POPC  C31621343   4.034   0.617   3.972  0.5242  0.1763 -0.4957
  185POPC  H16X21344   3.982   0.705   4.016  0.6290  0.0029 -0.0260
  185POPC  H16Y21345   4.134   0.589   4.011  0.0751 -1.9691 -0.7421
  185POPC  H16Z21346   3.963   0.535   3.995 -0.0851  0.9385  0.4225
  186POPC     N21347   5.216   2.747   2.599 -0.2875 -0.0213  0.2389
  186POPC   C1221348   5.340   2.759   2.695  0.4325 -0.0794 -0.4697
  186POPC  H12A21349   5.355   2.660   2.736 -0.8618  0.1071  0.5103
  186POPC  H12B21350   5.307   2.826   2.773 -3.7270 -2.2593 -0.0725
  186POPC   C1321351   5.100   2.702   2.679 -0.4435  0.3223  0.8154
  186POPC  H13A21352   5.129   2.618   2.740 -0.7239  0.8193  1.6528
  186POPC  H13B21353   5.076   2.780   2.750  1.1555  1.1794  0.4507
  186POPC  H13C21354   5.016   2.672   2.617  0.7237  0.6223 -0.9577
  186POPC   C1421355   5.183   2.877   2.537 -0.2105 -0.2098  0.1832
  186POPC  H14A21356   5.261   2.910   2.469 -0.7312  2.2718  0.7197
  186POPC  H14B21357   5.089   2.866   2.485 -1.6445 -1.0503  2.7658
  186POPC  H14C21358   5.185   2.958   2.608 -0.3258 -1.3879  1.5816
  186POPC   C1521359   5.236   2.643   2.496  0.1574 -0.4005  0.4288
  186POPC  H15A21360   5.145   2.624   2.441 -0.5774  0.7749  1.1681
  186POPC  H15B21361   5.277   2.548   2.526  2.3798 -1.3808 -4.6792
  186POPC  H15C21362   5.306   2.677   2.421 -0.5777  0.8709  0.2876
  186POPC   C1121363   5.477   2.794   2.633 -0.0782  0.6624  0.5602
  186POPC  H11A21364   5.512   2.715   2.563 -1.8876  1.5734 -1.5133
  186POPC  H11B21365   5.556   2.779   2.709 -0.6629 -0.4272  0.9787
  186POPC     P21366   5.501   3.048   2.626 -0.1152 -0.0760  0.1064
  186POPC   O1321367   5.383   3.074   2.716 -0.6323  0.4785  0.4207
  186POPC   O1421368   5.537   3.155   2.526  0.0773 -0.7882 -0.1865
  186POPC   O1221369   5.489   2.911   2.554  0.4222  0.2158 -0.2632
  186POPC   O1121370   5.622   3.020   2.718 -0.5943 -0.2235 -0.4334
  186POPC    C121371   5.747   2.978   2.654  0.0937 -0.0298  0.2890
  186POPC    HA21372   5.785   3.064   2.593  2.1231 -0.4844  0.8280
  186POPC    HB21373   5.745   2.883   2.597  2.6269  0.1235 -0.1728
  186POPC    C221374   5.854   2.974   2.758 -0.3797 -0.0292  0.1140
  186POPC    HS21375   5.948   2.944   2.705 -0.7661  0.3363 -0.7888
  186POPC   O2121376   5.822   2.866   2.858 -0.2545 -0.4843 -0.2233
  186POPC   C2121377   5.846   2.740   2.812 -0.1672  0.3354 -0.4697
  186POPC   O2221378   5.917   2.709   2.714  0.5253 -0.3006 -0.3834
  186POPC   C2221379   5.765   2.639   2.899 -0.1295 -0.2155  0.1330
  186POPC   H2R21380   5.680   2.604   2.836  0.8740 -1.0459 -0.8067
  186POPC   H2S21381   5.704   2.687   2.978 -1.2559 -1.0187 -0.2158
  186POPC    C321382   5.879   3.102   2.831  0.3772  0.4682  0.2970
  186POPC    HX21383   5.792   3.105   2.900 -1.5605  3.9200 -1.9299
  186POPC    HY21384   5.862   3.189   2.763 -0.8314 -1.0339 -1.4061
  186POPC   O3121385   6.005   3.097   2.906 -0.0111  0.3337  0.0153
  186POPC   C3121386   6.084   3.205   2.882 -0.3235  0.1589  0.1315
  186POPC   O3221387   6.084   3.278   2.787 -0.0753 -0.8787 -0.2872
  186POPC   C3221388   6.192   3.215   2.992 -0.8841 -0.3324 -0.1247
  186POPC   H2X21389   6.276   3.269   2.945 -0.8402  1.4383  1.8072
  186POPC   H2Y21390   6.223   3.113   3.023  0.3707  1.0360  3.6462
  186POPC   C2321391   5.841   2.515   2.957 -0.2566  0.3448 -0.2093
  186POPC   H3R21392   5.906   2.476   2.876 -0.8599  0.1268 -0.5953
  186POPC   H3S21393   5.767   2.438   2.990  0.2361 -0.1240 -0.1831
  186POPC   C2421394   5.928   2.546   3.082 -0.3340  0.6362  0.0394
  186POPC   H4R21395   5.974   2.647   3.072 -1.1094  1.2152  1.8196
  186POPC   H4S21396   6.016   2.478   3.090 -1.7812 -1.1587  1.6245
  186POPC   C2521397   5.865   2.545   3.223  0.3209  0.1565  0.1207
  186POPC   H5R21398   5.829   2.440   3.230 -0.8852  0.5163 -0.3777
  186POPC   H5S21399   5.770   2.604   3.224 -1.0017 -1.8525 -1.2240
  186POPC   C2621400   5.953   2.591   3.342  0.0193  0.0002 -0.5818
  186POPC   H6R21401   5.997   2.688   3.307 -0.6890  0.8505  0.7988
  186POPC   H6S21402   6.034   2.516   3.354 -0.6919 -0.6702  0.0860
  186POPC   C2721403   5.878   2.593   3.478 -0.0573 -0.5049 -0.6920
  186POPC   H7R21404   5.832   2.492   3.482 -0.4897 -0.2853  0.1963
  186POPC   H7S21405   5.806   2.677   3.479  0.0954 -0.3155  1.7186
  186POPC   C2821406   5.972   2.615   3.599  0.7423  0.6387  0.0694
  186POPC   H8R21407   6.034   2.704   3.578  0.2028  1.2711  1.0587
  186POPC   H8S21408   6.032   2.522   3.607  0.9651  0.9383  2.9143
  186POPC   C2921409   5.883   2.631   3.726 -0.3350  0.3560 -0.2347
  186POPC   H9121410   5.822   2.722   3.728  1.7517  1.8423  2.5866
  186POPC  C21021411   5.880   2.550   3.833  0.1054 -0.0321  0.1922
  186POPC  H10121412   5.820   2.586   3.918 -0.3174  3.1127 -1.2832
  186POPC  C21121413   5.956   2.420   3.853 -0.0109  0.0853  0.3901
  186POPC  H11R21414   6.037   2.407   3.777 -2.1482 -0.5310 -1.8963
  186POPC  H11S21415   5.881   2.342   3.829  0.4273 -0.6188  1.2757
  186POPC  C21221416   6.006   2.394   3.991 -0.5682 -0.1286 -0.1531
  186POPC  H12R21417   6.048   2.292   3.995 -1.6063 -0.6274 -1.3742
  186POPC  H12S21418   5.912   2.403   4.050 -0.8658  2.3691 -0.8786
  186POPC  C21321419   6.112   2.494   4.035 -0.1853 -0.6443  0.9201
  186POPC  H13R21420   6.125   2.582   3.969 -0.6896  0.1189  1.8057
  186POPC  H13S21421   6.213   2.449   4.036  0.7074  1.2760  1.6328
  186POPC  C21421422   6.075   2.553   4.170  0.0831 -0.0749  0.2842
  186POPC  H14R21423   6.062   2.463   4.234  3.3990  0.1389  1.4449
  186POPC  H14S21424   5.973   2.595   4.157 -0.5653 -1.3627  1.0591
  186POPC  C21521425   6.180   2.652   4.219 -0.7782 -0.4544  0.2760
  186POPC  H15R21426   6.177   2.732   4.143 -0.1912 -1.2717 -0.6347
  186POPC  H15S21427   6.282   2.609   4.211  1.5074  4.5601 -0.8373
  186POPC  C21621428   6.142   2.693   4.362  0.0315  0.1850 -0.9092
  186POPC  H16R21429   6.165   2.597   4.413  4.0622  1.0650 -0.7316
  186POPC  H16S21430   6.032   2.711   4.367 -0.0187 -0.2362 -0.4023
  186POPC  C21721431   6.232   2.801   4.409  0.3496 -0.0829  0.2103
  186POPC  H17R21432   6.191   2.901   4.384  1.9828  0.7584  0.7499
  186POPC  H17S21433   6.320   2.795   4.341 -1.1952  0.3724 -1.9484
  186POPC  C21821434   6.276   2.792   4.557 -0.1145 -0.7774  0.5676
  186POPC  H18R21435   6.188   2.793   4.626 -0.3242 -0.3789  0.2986
  186POPC  H18S21436   6.343   2.706   4.574  1.5361  0.1268 -0.9989
  186POPC  H18T21437   6.333   2.886   4.576 -1.6068  0.2659  0.1399
  186POPC   C3321438   6.148   3.291   3.120 -0.6110  0.5881 -0.0802
  186POPC   H3X21439   6.059   3.248   3.170 -1.4507  2.1059 -0.2025
  186POPC   H3Y21440   6.113   3.395   3.105 -0.9068  0.8225  1.9643
  186POPC   C3421441   6.257   3.307   3.226 -0.9559  0.6489 -0.5421
  186POPC   H4X21442   6.354   3.332   3.177  0.4148 -0.8696  1.2659
  186POPC   H4Y21443   6.269   3.207   3.272  0.4827  1.4238  0.8835
  186POPC   C3521444   6.212   3.399   3.341 -0.2313 -0.1341 -0.1841
  186POPC   H5X21445   6.246   3.357   3.439 -1.7904 -0.7548  0.1320
  186POPC   H5Y21446   6.102   3.384   3.348 -0.5623  2.3084  0.8532
  186POPC   C3621447   6.242   3.553   3.343 -0.1586  0.4832  0.1545
  186POPC   H6X21448   6.183   3.599   3.262 -0.5627 -1.8780 -0.9769
  186POPC   H6Y21449   6.347   3.567   3.309 -0.3653 -1.2589 -1.3944
  186POPC   C3721450   6.216   3.621   3.479  0.6253  0.0165  0.2295
  186POPC   H7X21451   6.244   3.551   3.561  1.8237  0.0964 -0.0799
  186POPC   H7Y21452   6.107   3.640   3.482  0.3957 -0.7277 -1.8060
  186POPC   C3821453   6.298   3.753   3.492 -0.2102 -0.3088 -0.0848
  186POPC   H8X21454   6.265   3.827   3.416  0.6614  0.5098  0.3207
  186POPC   H8Y21455   6.403   3.738   3.460 -0.3883 -1.2993 -0.2377
  186POPC   C3921456   6.304   3.817   3.638  0.2330 -0.4469 -0.1257
  186POPC   H9X21457   6.205   3.864   3.656  0.1683 -0.2027 -1.0867
  186POPC   H9Y21458   6.380   3.896   3.655  1.1424 -1.2348 -0.3967
  186POPC  C31021459   6.331   3.718   3.746  0.3268 -0.1660 -0.0055
  186POPC  H10X21460   6.430   3.674   3.720 -0.7361 -2.1480 -0.8435
  186POPC  H10Y21461   6.261   3.633   3.749 -0.4667  0.2859 -2.7279
  186POPC  C31121462   6.349   3.795   3.883 -0.0474 -0.0043  0.0241
  186POPC  H11X21463   6.256   3.848   3.912 -0.0584  0.0256 -0.0644
  186POPC  H11Y21464   6.436   3.863   3.877  0.0928 -0.2949 -2.1961
  186POPC  C31221465   6.362   3.692   3.998  0.6453 -0.6744 -0.0770
  186POPC  H12X21466   6.451   3.631   3.970 -0.5906 -1.9478 -1.3928
  186POPC  H12Y21467   6.276   3.623   3.992  0.7201 -0.9456  1.4952
  186POPC  C31321468   6.379   3.739   4.139  0.1019  1.1538 -0.1967
  186POPC  H13X21469   6.449   3.825   4.145  2.3395 -0.4941 -0.9046
  186POPC  H13Y21470   6.425   3.652   4.191  1.1765  0.5845 -1.9941
  186POPC  C31421471   6.253   3.763   4.212  0.0699  0.6686 -0.4888
  186POPC  H14X21472   6.202   3.667   4.232  0.1235  1.0739  1.8548
  186POPC  H14Y21473   6.185   3.822   4.146 -0.0244  0.4643 -0.5755
  186POPC  C31521474   6.277   3.822   4.356 -0.5789  0.3173 -0.1093
  186POPC  H15X21475   6.321   3.921   4.331 -0.8224 -0.3587 -3.8278
  186POPC  H15Y21476   6.345   3.753   4.409 -0.2283  0.3141 -0.5535
  186POPC  C31621477   6.154   3.836   4.437  0.4032 -0.1685 -0.6320
  186POPC  H16X21478   6.078   3.762   4.404 -1.0873  1.4291 -0.9683
  186POPC  H16Y21479   6.112   3.938   4.420  2.1286  0.2538 -2.7375
  186POPC  H16Z21480   6.179   3.829   4.545  1.4025  1.7024 -0.6971
  187POPC     N21481   2.723   0.845   1.616  0.1608  0.2312 -0.1770
  187POPC   C1221482   2.790   0.989   1.604  0.1943  0.3800 -0.0056
  187POPC  H12A21483   2.717   1.055   1.561  0.1075 -0.3163 -0.9663
  187POPC  H12B21484   2.865   0.982   1.526 -1.5045 -1.3628 -1.5848
  187POPC   C1321485   2.814   0.747   1.682 -0.6457  0.0470  0.1306
  187POPC  H13A21486   2.792   0.645   1.656 -0.5662  0.5185 -1.9318
  187POPC  H13B21487   2.916   0.767   1.654 -0.6302  1.8602  1.2962
  187POPC  H13C21488   2.817   0.767   1.788 -0.3586 -2.1959  0.5869
  187POPC   C1421489   2.598   0.851   1.690  0.7414 -1.0047 -0.4817
  187POPC  H14A21490   2.516   0.894   1.634 -0.9648 -0.6621  2.0815
  187POPC  H14B21491   2.558   0.755   1.719 -0.3804 -0.4310 -0.0486
  187POPC  H14C21492   2.608   0.906   1.782  1.2838  1.1613 -1.7661
  187POPC   C1521493   2.685   0.797   1.476  0.4245  0.5363  0.0526
  187POPC  H15A21494   2.773   0.756   1.429 -1.1959 -0.5822 -2.1830
  187POPC  H15B21495   2.649   0.874   1.411 -1.5288 -1.7090 -1.7032
  187POPC  H15C21496   2.624   0.708   1.479  2.2517 -0.7610  0.5361
  187POPC   C1121497   2.838   1.066   1.728 -0.5664 -0.8390  0.1919
  187POPC  H11A21498   2.742   1.087   1.780  0.9809  3.0636  1.8620
  187POPC  H11B21499   2.884   1.163   1.698 -0.5200 -0.3947  1.6311
  187POPC     P21500   2.907   0.986   1.965  0.3058 -0.6665  0.1021
  187POPC   O1321501   3.036   0.945   2.027 -0.1121 -0.0663 -0.1398
  187POPC   O1421502   2.799   0.887   1.989  0.3033 -0.1099 -0.6129
  187POPC   O1221503   2.928   0.994   1.809 -0.5003 -0.2060 -0.4912
  187POPC   O1121504   2.854   1.128   2.014 -0.4787  0.3373 -0.0938
  187POPC    C121505   2.939   1.229   2.076  0.2308  0.2766 -0.0249
  187POPC    HA21506   2.924   1.333   2.040  0.6723  0.2525 -0.2853
  187POPC    HB21507   3.047   1.209   2.064  0.1109 -0.9296  0.7647
  187POPC    C221508   2.913   1.240   2.231 -0.5076 -0.1034  0.2218
  187POPC    HS21509   2.976   1.326   2.263 -1.7935  1.2626 -0.7533
  187POPC   O2121510   2.941   1.114   2.296  0.6857 -0.0456  0.6484
  187POPC   C2121511   3.067   1.080   2.305  1.2594  0.2908 -0.1442
  187POPC   O2221512   3.157   1.151   2.261  0.6262  0.5298 -0.0154
  187POPC   C2221513   3.080   0.956   2.388  0.3065 -0.1559 -1.0498
  187POPC   H2R21514   3.180   0.911   2.374  0.2978 -0.5851  0.1308
  187POPC   H2S21515   2.998   0.884   2.370 -0.2474 -0.2686  1.4584
  187POPC    C321516   2.775   1.303   2.255 -0.8911 -0.8164 -0.7648
  187POPC    HX21517   2.703   1.248   2.192  0.6030 -0.7758 -2.6063
  187POPC    HY21518   2.779   1.411   2.229  3.0506 -0.7514 -0.6134
  187POPC   O3121519   2.729   1.291   2.391 -0.0324 -0.4131  0.3539
  187POPC   C3121520   2.795   1.369   2.480 -0.4908 -0.0877 -0.3097
  187POPC   O3221521   2.871   1.456   2.452 -0.0791 -0.3716  0.0510
  187POPC   C3221522   2.762   1.322   2.613  0.0675  0.0343  0.5079
  187POPC   H2X21523   2.719   1.219   2.616 -0.2823  0.0706 -1.6132
  187POPC   H2Y21524   2.681   1.389   2.647  0.0990 -0.2242  1.1094
  187POPC   C2321525   3.074   0.987   2.536  0.4155  0.4020 -0.1126
  187POPC   H3R21526   3.053   0.889   2.584 -1.1760  0.4429 -0.7028
  187POPC   H3S21527   2.984   1.044   2.567  0.4617 -0.1751  1.1519
  187POPC   C2421528   3.200   1.057   2.592  0.1719  0.6618 -0.8111
  187POPC   H4R21529   3.227   1.148   2.534  0.9412  0.7718 -0.2987
  187POPC   H4S21530   3.287   0.991   2.571  0.6547  1.1740 -0.4784
  187POPC   C2521531   3.199   1.095   2.745  0.7239  0.1580 -0.1596
  187POPC   H5R21532   3.177   1.002   2.801 -0.5303 -0.2308 -1.2592
  187POPC   H5S21533   3.115   1.162   2.776 -0.1861 -0.0004 -2.1304
  187POPC   C2621534   3.327   1.172   2.785  0.1736  0.1630  0.4195
  187POPC   H6R21535   3.337   1.270   2.733  1.0754 -0.4934 -0.6987
  187POPC   H6S21536   3.403   1.101   2.744 -1.4588 -0.8482 -0.9940
  187POPC   C2721537   3.345   1.194   2.935 -0.3131 -0.0630  0.5856
  187POPC   H7R21538   3.308   1.106   2.991 -1.6103  0.1001  0.0182
  187POPC   H7S21539   3.290   1.284   2.970  1.1933 -0.1150  3.3824
  187POPC   C2821540   3.495   1.220   2.974  0.2450  0.5930  0.3679
  187POPC   H8R21541   3.550   1.127   2.949 -0.0594  0.9213 -1.7218
  187POPC   H8S21542   3.489   1.223   3.084  2.1109  1.0262  0.4812
  187POPC   C2921543   3.568   1.342   2.922  0.4949 -0.2941 -0.0104
  187POPC   H9121544   3.605   1.316   2.822  0.0074 -2.2151  0.2686
  187POPC  C21021545   3.568   1.466   2.973 -0.5373  0.5862 -0.0430
  187POPC  H10121546   3.626   1.544   2.922  0.4613  0.9932  1.6417
  187POPC  C21121547   3.502   1.503   3.096  0.2477  0.0721  0.1676
  187POPC  H11R21548   3.451   1.418   3.145 -0.2047  0.6156  0.6557
  187POPC  H11S21549   3.418   1.571   3.070  0.7312  0.6023 -0.0306
  187POPC  C21221550   3.598   1.576   3.193 -1.0120  0.6096 -0.3335
  187POPC  H12R21551   3.626   1.673   3.146 -1.6268  2.0162  2.0697
  187POPC  H12S21552   3.694   1.522   3.210 -1.0360  0.3721 -0.9195
  187POPC  C21321553   3.534   1.594   3.325  0.0009  0.6957  0.0466
  187POPC  H13R21554   3.606   1.608   3.409  0.2012  1.9829 -0.3343
  187POPC  H13S21555   3.484   1.500   3.359  2.3058 -0.2321  1.0635
  187POPC  C21421556   3.441   1.712   3.311 -0.1067  0.7875  0.0363
  187POPC  H14R21557   3.359   1.688   3.241 -0.9542  0.9583  0.9477
  187POPC  H14S21558   3.492   1.801   3.269 -1.2713  1.4481 -0.0310
  187POPC  C21521559   3.377   1.734   3.450  0.7697  0.3172 -1.0823
  187POPC  H15R21560   3.340   1.839   3.449  0.7704  0.3650  0.6205
  187POPC  H15S21561   3.457   1.752   3.525  1.1355  2.0817 -1.8352
  187POPC  C21621562   3.266   1.642   3.497 -0.4571 -0.3211 -0.2704
  187POPC  H16R21563   3.309   1.542   3.520 -1.9040 -0.7269  0.8877
  187POPC  H16S21564   3.197   1.620   3.412 -1.0578  0.1748  0.0772
  187POPC  C21721565   3.190   1.695   3.621  0.9072  0.1761  0.6745
  187POPC  H17R21566   3.099   1.632   3.630  0.2085  0.9793 -0.5254
  187POPC  H17S21567   3.148   1.793   3.591  0.5878  0.2142  1.2525
  187POPC  C21821568   3.273   1.698   3.753 -0.3885 -0.4993  0.1608
  187POPC  H18R21569   3.340   1.786   3.742 -1.4153  0.4946  1.4756
  187POPC  H18S21570   3.328   1.602   3.762 -0.3237 -0.3995  0.8282
  187POPC  H18T21571   3.219   1.736   3.842  0.2287  1.5626 -0.2831
  187POPC   C3321572   2.873   1.320   2.717 -0.0870 -0.1057 -0.2715
  187POPC   H3X21573   2.905   1.425   2.736  0.3171 -0.0634 -1.1519
  187POPC   H3Y21574   2.961   1.260   2.687 -1.8420 -3.2088  0.3821
  187POPC   C3421575   2.826   1.269   2.855  0.3044  0.3679  0.2295
  187POPC   H4X21576   2.801   1.161   2.860  3.2831 -0.3590  1.7608
  187POPC   H4Y21577   2.742   1.335   2.885  0.4498 -0.1462  1.8675
  187POPC   C3521578   2.935   1.303   2.953 -0.7502 -0.0791 -0.9825
  187POPC   H5X21579   2.960   1.410   2.938  2.2472 -0.3678  1.0203
  187POPC   H5Y21580   3.025   1.242   2.930 -0.0893  1.3714 -2.3907
  187POPC   C3621581   2.877   1.270   3.093 -0.4410 -0.2605  0.3736
  187POPC   H6X21582   2.851   1.162   3.104  1.1024 -1.0763 -2.7409
  187POPC   H6Y21583   2.794   1.340   3.115  0.6433  0.4844  2.3808
  187POPC   C3721584   2.976   1.310   3.205 -0.0913 -0.3321  0.5107
  187POPC   H7X21585   3.016   1.411   3.179 -0.4195  0.0387  1.4323
  187POPC   H7Y21586   3.064   1.243   3.192 -0.6498 -0.8506 -0.7106
  187POPC   C3821587   2.922   1.306   3.351 -0.4769  0.4740  0.5074
  187POPC   H8X21588   2.880   1.206   3.375  0.8121 -0.2646 -0.2053
  187POPC   H8Y21589   2.842   1.382   3.360 -0.1032  0.8066  1.0852
  187POPC   C3921590   3.031   1.335   3.459 -0.2394 -0.2122  0.3721
  187POPC   H9X21591   2.978   1.368   3.551 -0.2105  2.6922 -0.5430
  187POPC   H9Y21592   3.089   1.423   3.423  1.6894 -2.1188 -1.4484
  187POPC  C31021593   3.130   1.221   3.498  0.5953  0.1611 -0.9244
  187POPC  H10X21594   3.190   1.213   3.405 -2.3697 -1.0227 -2.9092
  187POPC  H10Y21595   3.088   1.119   3.508 -0.3904  0.2407 -3.4136
  187POPC  C31121596   3.204   1.261   3.620 -0.3435  0.2157 -0.5546
  187POPC  H11X21597   3.129   1.239   3.700  2.0358  0.0590  1.7822
  187POPC  H11Y21598   3.210   1.372   3.625  2.8328  0.1103  0.0542
  187POPC  C31221599   3.343   1.193   3.647  0.0063  0.1809  1.1310
  187POPC  H12X21600   3.405   1.185   3.555  1.4335 -0.9412  2.1503
  187POPC  H12Y21601   3.328   1.095   3.698  0.5401 -0.6951 -0.3340
  187POPC  C31321602   3.435   1.299   3.721  0.5493  0.1133  0.7312
  187POPC  H13X21603   3.417   1.286   3.830  2.5234 -2.3408  0.8638
  187POPC  H13Y21604   3.409   1.397   3.675  0.7046 -0.1154  0.1450
  187POPC  C31421605   3.585   1.268   3.692  0.0168 -0.8340  0.2469
  187POPC  H14X21606   3.598   1.275   3.581  0.7386  0.9117  0.4050
  187POPC  H14Y21607   3.611   1.164   3.718  0.0904 -0.9333 -0.2066
  187POPC  C31521608   3.684   1.355   3.765  0.2727 -0.6414 -0.2322
  187POPC  H15X21609   3.654   1.369   3.872  0.3959  0.7151 -0.3591
  187POPC  H15Y21610   3.681   1.457   3.723 -1.1409  0.1393  1.6089
  187POPC  C31621611   3.824   1.301   3.757  1.4189 -0.0741  0.6920
  187POPC  H16X21612   3.894   1.368   3.810  0.9789  0.1460  1.0040
  187POPC  H16Y21613   3.866   1.297   3.654 -0.5495  1.4391 -0.2409
  187POPC  H16Z21614   3.823   1.195   3.789  0.4441 -0.6812 -1.1585
  188POPC     N21615   3.523   5.164   2.153 -0.4096 -0.7022 -0.1454
  188POPC   C1221616   3.384   5.175   2.214 -0.2214 -0.1007  0.0240
  188POPC  H12A21617   3.397   5.125   2.309  3.6547  0.0484 -0.2495
  188POPC  H12B21618   3.311   5.124   2.153  0.4275  1.0663 -1.8144
  188POPC   C1321619   3.638   5.201   2.254  0.4111 -0.2149  0.4200
  188POPC  H13A21620   3.738   5.182   2.218  0.0664 -1.9289  0.2623
  188POPC  H13B21621   3.634   5.305   2.281 -0.9137  0.4686 -2.0594
  188POPC  H13C21622   3.627   5.141   2.343 -0.2364  1.8273  1.7750
  188POPC   C1421623   3.556   5.032   2.099 -0.3253 -0.4101  0.4803
  188POPC  H14A21624   3.505   4.997   2.010  0.7146 -0.1330 -0.2569
  188POPC  H14B21625   3.663   5.035   2.078 -0.1803  3.5116  1.0376
  188POPC  H14C21626   3.537   4.955   2.171 -3.6857  0.0072  0.1683
  188POPC   C1521627   3.538   5.264   2.042  0.1867  0.0235  0.2195
  188POPC  H15A21628   3.642   5.280   2.017  0.1029  2.6961  1.2844
  188POPC  H15B21629   3.484   5.349   2.080  0.8840  0.3616  0.4586
  188POPC  H15C21630   3.487   5.230   1.953 -2.4957 -1.2803  2.1025
  188POPC   C1121631   3.340   5.316   2.244 -0.0076 -0.9194 -0.6244
  188POPC  H11A21632   3.421   5.363   2.305 -1.9360 -0.4914  1.7482
  188POPC  H11B21633   3.250   5.302   2.307  0.2811 -1.6759 -0.3645
  188POPC     P21634   3.169   5.381   2.051  0.2242 -0.2550  0.1063
  188POPC   O1321635   3.168   5.246   1.987  0.0695 -0.1399  0.3556
  188POPC   O1421636   3.143   5.497   1.969 -0.2258 -0.5614  0.0884
  188POPC   O1221637   3.303   5.390   2.127  0.6414  0.5155 -0.1918
  188POPC   O1121638   3.061   5.373   2.171  0.2294 -0.1366 -0.1727
  188POPC    C121639   3.011   5.487   2.235  0.9060 -1.4473  0.4031
  188POPC    HA21640   2.905   5.467   2.258  0.4141 -1.2880 -1.5709
  188POPC    HB21641   2.988   5.566   2.160 -0.5467 -0.6527  1.6370
  188POPC    C221642   3.086   5.550   2.350 -0.5548 -0.0606 -0.7160
  188POPC    HS21643   3.172   5.596   2.296  2.1762 -0.7309  2.6598
  188POPC   O2121644   3.120   5.452   2.452  0.3042 -0.3418 -0.0020
  188POPC   C2121645   3.228   5.492   2.515 -0.3704 -0.0530 -0.1990
  188POPC   O2221646   3.318   5.565   2.477  0.5554 -0.5565 -0.3480
  188POPC   C2221647   3.231   5.423   2.649 -0.0917  0.0316 -0.0781
  188POPC   H2R21648   3.165   5.334   2.636 -0.2828  0.1844 -0.1568
  188POPC   H2S21649   3.192   5.500   2.719  1.2873  0.2794  0.4461
  188POPC    C321650   3.002   5.667   2.412  0.4385  0.3272  0.4336
  188POPC    HX21651   2.904   5.631   2.450 -1.5300  1.7141 -2.9315
  188POPC    HY21652   2.971   5.741   2.335  0.6965  1.8306  1.7159
  188POPC   O3121653   3.077   5.739   2.513 -0.5490  0.0748 -0.5158
  188POPC   C3121654   3.010   5.845   2.559  0.4923  0.1147 -0.3653
  188POPC   O3221655   2.901   5.874   2.520 -0.2307  0.2388  0.5739
  188POPC   C3221656   3.087   5.909   2.675 -0.3089 -0.2996 -0.1974
  188POPC   H2X21657   3.062   6.018   2.678  2.8959  0.5414 -0.6643
  188POPC   H2Y21658   3.196   5.907   2.656  0.0917 -0.2820  1.8703
  188POPC   C2321659   3.378   5.383   2.685  0.2720 -0.6447  0.0408
  188POPC   H3R21660   3.434   5.478   2.702 -2.6979  1.6425 -1.9005
  188POPC   H3S21661   3.432   5.325   2.607  0.1125 -0.4609 -0.2067
  188POPC   C2421662   3.387   5.302   2.816 -0.7885  0.7733 -0.1067
  188POPC   H4R21663   3.488   5.259   2.836 -0.8420 -0.1401 -1.5960
  188POPC   H4S21664   3.318   5.214   2.818  1.8738 -1.4725  2.2891
  188POPC   C2521665   3.330   5.367   2.940 -0.0045  0.2787  0.2503
  188POPC   H5R21666   3.220   5.353   2.937 -0.0035  0.4061 -0.5409
  188POPC   H5S21667   3.366   5.472   2.947  0.4968  0.0823  0.6480
  188POPC   C2621668   3.369   5.298   3.073  0.4321  0.3381 -0.2232
  188POPC   H6R21669   3.335   5.358   3.159 -1.4816  0.0444 -0.7359
  188POPC   H6S21670   3.479   5.284   3.081  0.3648 -0.3486 -0.3862
  188POPC   C2721671   3.324   5.149   3.080  0.0595 -0.2657  0.4612
  188POPC   H7R21672   3.393   5.078   3.031 -0.2099 -1.5144  1.8068
  188POPC   H7S21673   3.231   5.145   3.019  0.6486 -0.8124 -0.4108
  188POPC   C2821674   3.296   5.100   3.226 -0.0942  0.2254  0.1553
  188POPC   H8R21675   3.382   5.126   3.292  1.2394 -0.0715 -1.3994
  188POPC   H8S21676   3.276   4.991   3.233 -0.6655  0.3868  1.2012
  188POPC   C2921677   3.176   5.172   3.279 -0.0441 -0.1258 -0.2951
  188POPC   H9121678   3.120   5.231   3.205  0.8490  3.8137  1.9035
  188POPC  C21021679   3.138   5.182   3.408 -0.6075 -0.1809  0.1049
  188POPC  H10121680   3.060   5.255   3.434  1.1986  1.3386  1.6145
  188POPC  C21121681   3.206   5.107   3.526  0.2571  0.2915  0.0181
  188POPC  H11R21682   3.273   5.171   3.589 -0.7527  1.8420 -0.4153
  188POPC  H11S21683   3.266   5.019   3.495  1.7592  1.1694  0.2685
  188POPC  C21221684   3.082   5.079   3.613  0.0786  0.0125 -0.4819
  188POPC  H12R21685   3.005   5.017   3.562  0.1312  0.6885 -1.3946
  188POPC  H12S21686   3.031   5.174   3.639  0.9401  0.2025  0.6032
  188POPC  C21321687   3.109   5.009   3.749  0.1483  0.6382  0.7162
  188POPC  H13R21688   3.160   5.070   3.827  1.8789 -0.2806  0.3479
  188POPC  H13S21689   3.197   4.945   3.727  0.9840  1.7340  0.7536
  188POPC  C21421690   2.987   4.949   3.816 -0.8376 -0.5653  0.0635
  188POPC  H14R21691   3.021   4.894   3.907  0.8532 -0.2855 -0.3640
  188POPC  H14S21692   2.950   4.873   3.744 -0.1792  0.3309 -1.2696
  188POPC  C21521693   2.879   5.054   3.862 -0.0936  0.1331 -0.8337
  188POPC  H15R21694   2.778   5.011   3.879 -0.3777  0.8182 -0.7955
  188POPC  H15S21695   2.878   5.139   3.791 -0.7470  0.2556 -0.6768
  188POPC  C21621696   2.925   5.110   3.993  0.2806  0.5872  0.2402
  188POPC  H16R21697   3.026   5.157   3.999  0.4604  0.2005  0.2339
  188POPC  H16S21698   2.923   5.026   4.065  0.9967 -0.1489 -0.5671
  188POPC  C21721699   2.819   5.203   4.053 -0.3303 -0.5236 -0.1435
  188POPC  H17R21700   2.731   5.136   4.064  3.0147 -5.3579  0.5127
  188POPC  H17S21701   2.799   5.292   3.990  0.7077  2.3219  3.2468
  188POPC  C21821702   2.860   5.246   4.200  0.2710  0.2059  0.5546
  188POPC  H18R21703   2.777   5.300   4.252 -0.1016  0.4487 -0.2745
  188POPC  H18S21704   2.945   5.317   4.197 -1.7241  2.7099 -0.4887
  188POPC  H18T21705   2.884   5.154   4.257 -1.4421 -0.0522  0.9237
  188POPC   C3321706   3.056   5.837   2.807 -0.1491 -0.2695  0.1232
  188POPC   H3X21707   3.127   5.866   2.887 -0.6721 -1.4677  1.0652
  188POPC   H3Y21708   3.073   5.727   2.799  1.8420 -0.2707  2.7859
  188POPC   C3421709   2.907   5.845   2.855 -0.2612 -0.2360 -0.0233
  188POPC   H4X21710   2.841   5.786   2.788 -0.3504 -2.1275  1.6315
  188POPC   H4Y21711   2.878   5.952   2.852  2.4287  0.6324  1.2444
  188POPC   C3521712   2.884   5.797   3.002  0.2248  0.8733 -0.6486
  188POPC   H5X21713   2.776   5.798   3.030  0.6971  1.7741  1.3585
  188POPC   H5Y21714   2.941   5.865   3.069 -0.9773  1.1888  0.0859
  188POPC   C3621715   2.942   5.658   3.035  0.5783  0.5613  0.0720
  188POPC   H6X21716   3.048   5.649   3.004  0.8769 -0.5056  1.3242
  188POPC   H6Y21717   2.882   5.578   2.987 -1.7791  2.0506  0.3277
  188POPC   C3721718   2.934   5.638   3.193 -0.2428 -0.1776  0.5978
  188POPC   H7X21719   2.842   5.688   3.232  0.6702  1.3069  0.9550
  188POPC   H7Y21720   3.018   5.690   3.244 -1.0826  2.4137 -0.4914
  188POPC   C3821721   2.927   5.497   3.259  0.4748  0.3621  0.1584
  188POPC   H8X21722   2.917   5.508   3.369 -1.3259  2.6978 -0.1753
  188POPC   H8Y21723   3.018   5.437   3.237 -0.5318 -1.2291  0.1298
  188POPC   C3921724   2.808   5.410   3.204 -0.0487 -0.5719  0.5373
  188POPC   H9X21725   2.848   5.360   3.113  0.9950 -0.2836  0.8128
  188POPC   H9Y21726   2.732   5.481   3.168  1.2443  1.8683  2.3205
  188POPC  C31021727   2.766   5.292   3.295 -0.4196 -0.0547  0.4501
  188POPC  H10X21728   2.713   5.335   3.382 -0.9916 -1.7547  0.9884
  188POPC  H10Y21729   2.849   5.225   3.326  1.0632  1.0979 -0.8759
  188POPC  C31121730   2.656   5.203   3.220  0.8604 -0.0967  0.0456
  188POPC  H11X21731   2.707   5.157   3.132  1.7521  0.1713  0.4099
  188POPC  H11Y21732   2.575   5.267   3.180  1.3442 -0.9719 -2.5558
  188POPC  C31221733   2.604   5.102   3.317 -0.2252  0.2073 -0.0946
  188POPC  H12X21734   2.694   5.089   3.382  1.0927  0.8735 -1.7051
  188POPC  H12Y21735   2.573   5.006   3.270 -0.0755 -0.5137  1.2356
  188POPC  C31321736   2.490   5.153   3.413  0.2374 -0.1411  0.6153
  188POPC  H13X21737   2.397   5.110   3.371  1.4851 -1.9376 -0.4302
  188POPC  H13Y21738   2.476   5.263   3.413  1.9846  0.1615  2.6851
  188POPC  C31421739   2.507   5.092   3.559  0.1381  0.3619 -0.7403
  188POPC  H14X21740   2.410   5.117   3.608  0.1771 -2.3126  0.9372
  188POPC  H14Y21741   2.585   5.144   3.620 -0.2338  2.2930 -1.8162
  188POPC  C31521742   2.525   4.945   3.571  0.0737  0.0029  0.2273
  188POPC  H15X21743   2.629   4.918   3.542 -0.6027 -2.0176 -0.4772
  188POPC  H15Y21744   2.455   4.896   3.500  0.3251  1.5760 -1.1626
  188POPC  C31621745   2.491   4.897   3.713 -0.3453  0.0488 -0.1973
  188POPC  H16X21746   2.565   4.954   3.773  1.7800 -0.6252 -2.0247
  188POPC  H16Y21747   2.508   4.788   3.726  0.4964  0.1027 -0.7563
  188POPC  H16Z21748   2.386   4.923   3.740 -0.4090 -1.4614  1.1416
  189SAPI   C1221749   3.405   5.135   6.660  0.0546  0.7563  1.2443
  189SAPI    H221750   3.382   5.078   6.567 -1.2780  1.7507  0.9309
  189SAPI    O221751   3.458   5.037   6.747 -0.0027  0.2203  0.3317
  189SAPI   HO221752   3.415   4.957   6.717  0.3773 -0.0125  0.4001
  189SAPI   C1321753   3.513   5.236   6.623  0.2984 -0.0897 -0.1174
  189SAPI    H321754   3.462   5.307   6.554 -0.1874 -0.3763 -0.0567
  189SAPI    O321755   3.619   5.181   6.543  0.3726  0.3051 -0.3678
  189SAPI   HO321756   3.649   5.097   6.579  0.9590  1.0415  0.9637
  189SAPI   C1421757   3.563   5.310   6.746  0.6613  0.3192  0.1320
  189SAPI    H421758   3.614   5.231   6.805  1.2045  0.1306 -0.5880
  189SAPI    O421759   3.652   5.418   6.718 -0.1394 -0.2749 -0.0157
  189SAPI   HO421760   3.616   5.495   6.674  1.2119  0.3943 -0.0109
  189SAPI   C1521761   3.442   5.361   6.832 -0.4333 -0.8343 -0.2917
  189SAPI    H521762   3.415   5.460   6.791 -1.7901 -1.1696 -0.2508
  189SAPI    O521763   3.484   5.387   6.966 -0.2887 -0.2279 -0.1491
  189SAPI   HO521764   3.527   5.472   6.968 -0.7971  0.0479 -0.6044
  189SAPI   C1621765   3.313   5.285   6.828 -0.3775  0.1378  0.5811
  189SAPI    H621766   3.317   5.212   6.912 -0.5137 -0.0754  0.4055
  189SAPI    O621767   3.206   5.377   6.863 -0.1432  0.5947  0.1405
  189SAPI   HO621768   3.141   5.331   6.917 -1.4091  1.5464 -0.5295
  189SAPI   C1121769   3.281   5.203   6.710  0.7742  0.6782  0.0952
  189SAPI    H121770   3.256   5.276   6.629  0.9930  0.3035 -0.3119
  189SAPI     P21771   3.071   5.056   6.642 -0.3323  0.0260 -0.2489
  189SAPI   O1321772   2.996   5.174   6.593  0.2210 -0.2625 -0.7860
  189SAPI   O1421773   2.997   4.958   6.720  0.2256  0.7450 -0.0236
  189SAPI   O1221774   3.177   5.115   6.744 -0.1330 -0.4034 -0.1665
  189SAPI   O1121775   3.157   4.987   6.527 -0.3138 -0.5129  0.5249
  189SAPI    C121776   3.168   4.850   6.513 -0.1498  0.6491 -0.1504
  189SAPI    HA21777   3.271   4.828   6.549 -0.5663  0.1487  0.7679
  189SAPI    HB21778   3.100   4.790   6.578 -0.9353 -0.1000 -1.6027
  189SAPI    C221779   3.164   4.806   6.364  0.0907 -0.2864  0.2908
  189SAPI    HS21780   3.169   4.695   6.358 -0.4859 -0.2628 -0.9345
  189SAPI   O2121781   3.260   4.870   6.282 -0.0189  0.7227 -0.2780
  189SAPI   C2121782   3.382   4.821   6.292  0.0242 -0.9848  0.1055
  189SAPI   O2221783   3.405   4.725   6.365 -0.8798  0.1063  0.4420
  189SAPI   C2221784   3.481   4.887   6.200 -0.1316  0.1303 -0.2517
  189SAPI   H2R21785   3.468   4.852   6.095 -0.1519 -1.2929  0.1996
  189SAPI   H2S21786   3.470   4.998   6.202 -0.5359  0.0934 -0.3137
  189SAPI    C321787   3.023   4.854   6.314 -0.0813 -0.3853  0.1477
  189SAPI    HX21788   3.016   4.959   6.350  2.2713 -0.0018 -0.3705
  189SAPI    HY21789   2.956   4.783   6.366  0.0904 -0.5940  0.0842
  189SAPI   O3121790   3.015   4.836   6.171 -0.5174 -0.9236 -0.1074
  189SAPI   C3121791   2.932   4.904   6.097 -0.8756  0.0717  0.3134
  189SAPI   O3221792   2.861   4.994   6.141 -0.3008  0.1989  0.0442
  189SAPI   C3221793   2.944   4.866   5.949 -0.2448  0.3041 -0.1545
  189SAPI   H2X21794   2.908   4.762   5.936  1.8869 -0.5266  0.2066
  189SAPI   H2Y21795   3.052   4.876   5.926 -0.2656  2.4915  0.4490
  189SAPI   C2321796   3.630   4.848   6.233 -0.2393  0.7278 -0.3837
  189SAPI   H3R21797   3.653   4.743   6.205  1.9047  1.3122 -0.9329
  189SAPI   H3S21798   3.657   4.869   6.339 -1.8998 -2.4135  0.8058
  189SAPI   C2421799   3.716   4.934   6.145  0.4035  0.1323  0.1628
  189SAPI   H4R21800   3.701   5.038   6.180  1.3147  0.7933 -1.3212
  189SAPI   H4S21801   3.672   4.936   6.043  0.8992 -0.0396 -0.0618
  189SAPI   C2521802   3.865   4.893   6.149  0.1250  0.4579  0.1253
  189SAPI   H5R21803   3.933   4.953   6.212 -0.3474  2.0723 -0.8441
  189SAPI   C2621804   3.917   4.810   6.055  0.1262 -0.3051  0.2855
  189SAPI   H6R21805   4.021   4.781   6.076  0.0293 -2.0158 -1.3781
  189SAPI   C2721806   3.839   4.739   5.945  0.3224  0.3602 -0.2033
  189SAPI   H7R21807   3.778   4.809   5.884 -1.2286 -0.6211  0.1589
  189SAPI   H7S21808   3.767   4.669   5.993  1.1786 -0.5063 -0.1667
  189SAPI   C2821809   3.918   4.648   5.861 -0.3726  0.7717 -0.0295
  189SAPI   H8R21810   3.992   4.590   5.917 -2.2991 -2.0556 -0.1940
  189SAPI   C2921811   3.930   4.632   5.729 -0.4295  0.3340 -0.6315
  189SAPI   H9R21812   3.994   4.551   5.691  0.3921  1.6196 -2.1649
  189SAPI  C21021813   3.838   4.702   5.627  0.1352  0.1278  0.1113
  189SAPI  H10R21814   3.879   4.695   5.524  0.3074  0.6496  0.1445
  189SAPI  H10S21815   3.819   4.809   5.647  2.0033  0.7023 -0.9958
  189SAPI  C21121816   3.697   4.650   5.638 -0.3816  0.1017 -0.6213
  189SAPI  H11R21817   3.626   4.732   5.658 -0.1260  0.7645 -2.2294
  189SAPI  C21221818   3.650   4.534   5.610  0.2713  0.1433  0.0271
  189SAPI  H12R21819   3.540   4.534   5.613  0.2873  1.1481  1.2952
  189SAPI  C21321820   3.732   4.410   5.563  0.4782 -0.0146 -0.4816
  189SAPI  H13R21821   3.808   4.385   5.640 -1.3476  0.9195  1.7543
  189SAPI  H13S21822   3.779   4.427   5.463 -0.9821 -0.8801 -1.3477
  189SAPI  C21421823   3.645   4.288   5.569 -0.1786  0.3134 -0.2414
  189SAPI  H14R21824   3.605   4.261   5.667  0.0833 -2.0584 -0.7382
  189SAPI  C21521825   3.598   4.221   5.464 -0.0209 -0.2730 -1.1291
  189SAPI  H15R21826   3.536   4.132   5.481 -1.3986  0.8843  0.2422
  189SAPI  C21621827   3.631   4.242   5.315 -0.2359  0.2982  0.5631
  189SAPI  H16R21828   3.732   4.202   5.291 -0.4042  0.5820 -0.7134
  189SAPI  H16S21829   3.627   4.351   5.292  0.4818  0.1321 -0.4046
  189SAPI  C21721830   3.529   4.179   5.217  0.6190  0.3636  0.0047
  189SAPI  H17R21831   3.432   4.232   5.227  0.7532  0.5087  0.5639
  189SAPI  H17S21832   3.513   4.075   5.251 -3.4169  0.9332  0.3182
  189SAPI  C21821833   3.560   4.194   5.065 -0.0176 -0.4326 -0.2751
  189SAPI  H18R21834   3.636   4.117   5.039  2.1779  1.1009  1.1865
  189SAPI  H18S21835   3.607   4.294   5.048 -0.9866 -0.1721 -1.5897
  189SAPI  C21921836   3.437   4.172   4.976 -0.2808  0.2211 -0.8652
  189SAPI  H19R21837   3.359   4.243   5.011  1.1982  1.7538 -0.5779
  189SAPI  H19S21838   3.393   4.073   5.000 -0.2898 -0.0873 -2.0725
  189SAPI  C22021839   3.457   4.191   4.828 -0.5162  0.1573  0.3233
  189SAPI  H20R21840   3.496   4.293   4.807 -1.2327  0.8639  2.1674
  189SAPI  H20S21841   3.366   4.170   4.768 -1.3679  0.2374  1.5440
  189SAPI  H20T21842   3.539   4.128   4.787 -2.1546 -0.3118 -2.5274
  189SAPI   C3321843   2.865   4.958   5.852  0.3445  0.1746 -0.5291
  189SAPI   H3X21844   2.900   5.063   5.862 -1.3254  0.8064 -1.0342
  189SAPI   H3Y21845   2.759   4.958   5.885  0.3400  0.9702 -0.5419
  189SAPI   C3421846   2.874   4.929   5.698  0.2988  0.3768  0.0731
  189SAPI   H4X21847   2.973   4.923   5.647  0.4604  1.6038  0.2075
  189SAPI   H4Y21848   2.819   5.013   5.651 -1.7105 -0.2426  1.2215
  189SAPI   C3521849   2.801   4.796   5.663 -0.4287  0.5347  0.6079
  189SAPI   H5X21850   2.696   4.796   5.701 -1.6365 -2.1893 -2.2253
  189SAPI   H5Y21851   2.845   4.700   5.696  2.2377  1.0912 -1.0642
  189SAPI   C3621852   2.782   4.779   5.510 -1.0131  0.1013 -0.8523
  189SAPI   H6X21853   2.867   4.839   5.473  1.0291 -1.1666  1.4834
  189SAPI   H6Y21854   2.680   4.818   5.487 -2.1018 -1.4271  0.9595
  189SAPI   C3721855   2.810   4.644   5.454  1.2471  0.9174 -0.5895
  189SAPI   H7X21856   2.712   4.592   5.451  1.0772  1.1427  0.6660
  189SAPI   H7Y21857   2.876   4.576   5.512 -1.3894  0.2966  1.9150
  189SAPI   C3821858   2.873   4.651   5.315 -0.2392 -0.0473 -0.0082
  189SAPI   H8X21859   2.976   4.693   5.324 -0.8235  1.4065  0.1175
  189SAPI   H8Y21860   2.812   4.726   5.261 -0.6918 -0.2904  0.1561
  189SAPI   C3921861   2.872   4.509   5.248  0.0277  0.3895 -0.0055
  189SAPI   H9X21862   2.770   4.474   5.223  0.7264 -1.5482 -0.3292
  189SAPI   H9Y21863   2.924   4.434   5.312 -0.6851 -0.4795 -0.4090
  189SAPI  C31021864   2.958   4.527   5.116  0.3878  0.7582 -1.0746
  189SAPI  H10X21865   3.062   4.563   5.133 -0.0728  1.4680  0.5034
  189SAPI  H10Y21866   2.915   4.595   5.040 -2.6122 -0.1003 -0.3180
  189SAPI  C31121867   2.977   4.395   5.047 -0.8994 -0.2503 -0.4346
  189SAPI  H11X21868   2.882   4.351   5.009 -2.2051 -0.6277  2.9544
  189SAPI  H11Y21869   3.028   4.328   5.119 -3.2503 -0.0458  1.5486
  189SAPI  C31221870   3.072   4.413   4.924 -0.4008 -0.5525  0.5346
  189SAPI  H12X21871   3.132   4.320   4.913 -1.0054 -0.9187  0.2655
  189SAPI  H12Y21872   3.145   4.496   4.936 -2.7711  2.3355 -2.8705
  189SAPI  C31321873   2.999   4.449   4.794  0.3333 -0.0076  0.5850
  189SAPI  H13X21874   2.949   4.548   4.804  0.8984  0.2998  0.4105
  189SAPI  H13Y21875   2.921   4.371   4.780  0.4757  0.1869 -1.6796
  189SAPI  C31421876   3.080   4.437   4.655  0.1020  0.1039  0.1734
  189SAPI  H14X21877   3.143   4.345   4.652 -1.0600 -0.7305  0.5175
  189SAPI  H14Y21878   3.130   4.536   4.653 -0.7117  0.5209  0.2490
  189SAPI  C31521879   2.992   4.427   4.525 -0.4005 -0.9623 -0.7553
  189SAPI  H15X21880   3.049   4.439   4.430 -0.2862 -0.7708 -0.6632
  189SAPI  H15Y21881   2.922   4.512   4.516 -0.8012 -1.2651 -0.5242
  189SAPI  C31621882   2.914   4.297   4.517 -0.4907  0.1026 -0.4613
  189SAPI  H16X21883   2.821   4.301   4.578 -1.3456  1.6772 -1.8162
  189SAPI  H16Y21884   2.973   4.205   4.540  2.4543  1.3778 -2.2965
  189SAPI  C31721885   2.860   4.285   4.374 -0.4365 -0.5066  0.0243
  189SAPI  H17X21886   2.942   4.260   4.302 -0.4721 -0.3976 -0.0547
  189SAPI  H17Y21887   2.822   4.384   4.341 -0.5002 -0.2149  0.9420
  189SAPI  C31821888   2.747   4.181   4.355 -0.6043  0.0079  0.9207
  189SAPI  H18X21889   2.670   4.187   4.435 -0.5329  0.3842  0.9629
  189SAPI  H18Y21890   2.785   4.079   4.330 -0.3731  0.3890 -0.3498
  189SAPI  H18Z21891   2.692   4.204   4.262 -0.3883  0.3802  0.8852
  190SAPI   C1221892   3.304   4.044   6.989  0.1967  0.1660 -0.2804
  190SAPI    H221893   3.199   4.007   6.983  0.3110 -0.2236  0.0792
  190SAPI    O221894   3.304   4.186   6.991 -0.0343 -0.2173  0.2477
  190SAPI   HO221895   3.262   4.210   6.909  1.3157 -1.3974 -0.8641
  190SAPI   C1321896   3.372   3.995   7.114  0.3016 -0.1182  0.0984
  190SAPI    H321897   3.379   3.885   7.109  4.0911 -0.0956  1.7824
  190SAPI    O321898   3.284   4.031   7.228 -0.1026 -0.4923  0.4775
  190SAPI   HO321899   3.252   4.119   7.208 -1.9539 -1.6210 -1.9873
  190SAPI   C1421900   3.509   4.054   7.132  0.1427 -0.1170 -0.0735
  190SAPI    H421901   3.477   4.157   7.155 -1.7849 -0.5652 -0.5538
  190SAPI    O421902   3.576   3.995   7.243  0.2802  0.3315 -0.1383
  190SAPI   HO421903   3.643   4.057   7.273 -0.0561  0.3937  0.5210
  190SAPI   C1521904   3.591   4.044   7.006 -0.0720  0.1727  0.3183
  190SAPI    H521905   3.622   3.938   7.006 -0.9889 -0.1067 -0.2956
  190SAPI    O521906   3.709   4.122   7.015  0.3080 -0.2922  0.5548
  190SAPI   HO521907   3.780   4.075   7.058  1.0128  0.6670  0.4782
  190SAPI   C1621908   3.530   4.062   6.862  0.9277  0.0841 -0.2187
  190SAPI    H621909   3.538   4.173   6.854  3.1019 -0.1182 -2.2443
  190SAPI    O621910   3.610   4.004   6.763 -0.1927  0.8368  1.2155
  190SAPI   HO621911   3.606   3.908   6.767 -0.7066  0.6621 -1.5775
  190SAPI   C1121912   3.387   4.008   6.857  0.0965 -0.3555 -0.2599
  190SAPI    H121913   3.398   3.898   6.846 -1.5099 -0.5530 -0.1112
  190SAPI     P21914   3.191   3.991   6.671 -0.7402 -0.2738 -0.1848
  190SAPI   O1321915   3.130   4.092   6.578 -0.2290 -0.0745  0.6612
  190SAPI   O1421916   3.101   3.942   6.777 -0.0920  0.1301  0.5493
  190SAPI   O1221917   3.321   4.066   6.743 -0.3491  0.1792  0.0132
  190SAPI   O1121918   3.249   3.871   6.588  0.2651  0.3994  0.1321
  190SAPI    C121919   3.370   3.888   6.516 -0.8762 -0.2519  0.4499
  190SAPI    HA21920   3.386   3.995   6.495 -1.3229 -0.6937 -2.5971
  190SAPI    HB21921   3.459   3.845   6.568  1.9344  2.4292 -1.7674
  190SAPI    C221922   3.361   3.806   6.380 -0.3107 -0.0624 -0.3649
  190SAPI    HS21923   3.367   3.698   6.406  0.5249 -0.6832 -2.9134
  190SAPI   O2121924   3.466   3.851   6.291  0.0424 -0.2236  0.3643
  190SAPI   C2121925   3.528   3.753   6.218 -0.3317 -0.6303  0.3364
  190SAPI   O2221926   3.526   3.638   6.251  0.1167 -0.5090 -0.3353
  190SAPI   C2221927   3.622   3.811   6.108 -0.2903 -0.3173 -0.0516
  190SAPI   H2R21928   3.552   3.844   6.029  2.4218  1.9112 -1.7497
  190SAPI   H2S21929   3.691   3.889   6.148  0.2051 -1.7021  1.9020
  190SAPI    C321930   3.231   3.834   6.311  0.4875  0.3132 -0.1737
  190SAPI    HX21931   3.236   3.941   6.281 -1.2083  0.2502 -0.7988
  190SAPI    HY21932   3.145   3.824   6.381  2.0686 -0.2123  1.7798
  190SAPI   O3121933   3.212   3.763   6.192  0.0830  0.3309  0.5502
  190SAPI   C3121934   3.182   3.635   6.207  0.9417 -0.0636 -0.5061
  190SAPI   O3221935   3.155   3.578   6.311  0.1206 -0.0256  0.6792
  190SAPI   C3221936   3.173   3.573   6.064 -0.1795  0.0945 -0.4179
  190SAPI   H2X21937   3.104   3.486   6.066 -1.3732  1.0052 -0.6264
  190SAPI   H2Y21938   3.277   3.536   6.054  0.1456  0.8868 -0.0198
  190SAPI   C2321939   3.713   3.703   6.033  0.2361 -0.0668 -0.1687
  190SAPI   H3R21940   3.658   3.632   5.968 -0.0056 -1.6441  1.6887
  190SAPI   H3S21941   3.765   3.650   6.116 -0.0950 -0.6714 -0.3451
  190SAPI   C2421942   3.817   3.776   5.947  0.1647  0.1856 -0.2934
  190SAPI   H4R21943   3.853   3.867   6.000  1.3484 -0.0286 -0.6946
  190SAPI   H4S21944   3.766   3.822   5.860  2.6408  0.7784 -1.5248
  190SAPI   C2521945   3.938   3.696   5.898  0.5193 -0.0461 -0.6722
  190SAPI   H5R21946   4.016   3.684   5.974 -0.7601 -1.9297  0.4600
  190SAPI   C2621947   3.931   3.614   5.792 -0.2612 -0.9551  0.3329
  190SAPI   H6R21948   4.017   3.556   5.756  2.0324  2.2251  0.2246
  190SAPI   C2721949   3.811   3.605   5.710  0.3663 -0.4584  0.2066
  190SAPI   H7R21950   3.852   3.582   5.610 -0.1762 -0.0056 -0.1304
  190SAPI   H7S21951   3.742   3.693   5.708  0.2595 -0.5445 -1.2930
  190SAPI   C2821952   3.727   3.480   5.752  0.0222 -0.7960  0.3048
  190SAPI   H8R21953   3.776   3.422   5.832 -1.9668 -0.5300  1.8069
  190SAPI   C2921954   3.610   3.437   5.697  0.0150 -0.0110 -0.3066
  190SAPI   H9R21955   3.563   3.351   5.747 -0.1749 -1.0582 -2.1907
  190SAPI  C21021956   3.545   3.495   5.575  0.1389 -0.2466 -0.8035
  190SAPI  H10R21957   3.617   3.567   5.531  0.1264 -0.4221 -1.1093
  190SAPI  H10S21958   3.456   3.550   5.613  0.9614  0.6554 -0.1597
  190SAPI  C21121959   3.502   3.380   5.480 -0.0874 -1.0685 -0.1292
  190SAPI  H11R21960   3.444   3.300   5.528 -1.2506 -0.5662 -0.6492
  190SAPI  C21221961   3.528   3.374   5.348 -0.6764  0.1631  0.0508
  190SAPI  H12R21962   3.481   3.293   5.291 -2.2627 -0.0760  1.6014
  190SAPI  C21321963   3.621   3.464   5.270  0.0606  0.0189 -0.3053
  190SAPI  H13R21964   3.659   3.556   5.318  0.3557  0.6749 -1.7463
  190SAPI  H13S21965   3.561   3.489   5.180 -0.1441 -0.4634 -0.3057
  190SAPI  C21421966   3.738   3.381   5.221  0.3562  0.4047  0.3906
  190SAPI  H14R21967   3.810   3.350   5.297  0.3449  0.0693  0.2648
  190SAPI  C21521968   3.749   3.321   5.102  0.3532 -0.8353 -0.4625
  190SAPI  H15R21969   3.844   3.273   5.070 -0.0366 -0.7037 -1.8829
  190SAPI  C21621970   3.649   3.337   4.987  1.0580  0.0365 -0.4408
  190SAPI  H16R21971   3.585   3.425   5.006  1.9682  0.3844  1.2018
  190SAPI  H16S21972   3.576   3.253   4.983 -0.3015  1.1158  0.6466
  190SAPI  C21721973   3.717   3.354   4.854 -0.4826 -0.4124  0.2772
  190SAPI  H17R21974   3.795   3.433   4.850  0.3297 -1.1835  0.4286
  190SAPI  H17S21975   3.643   3.385   4.778 -0.6358 -1.2459  0.0753
  190SAPI  C21821976   3.783   3.235   4.796 -0.3847  0.1831 -0.2034
  190SAPI  H18R21977   3.871   3.205   4.857 -0.0107  2.1767  0.3031
  190SAPI  H18S21978   3.815   3.257   4.692 -0.5990 -1.1433 -0.5654
  190SAPI  C21921979   3.693   3.111   4.789  0.3856 -0.2807 -0.2772
  190SAPI  H19R21980   3.589   3.142   4.766 -1.4026 -2.0306  4.3024
  190SAPI  H19S21981   3.672   3.052   4.880 -0.7608  0.4391 -0.0638
  190SAPI  C22021982   3.756   3.012   4.697  0.2394 -0.1440 -0.0192
  190SAPI  H20R21983   3.786   3.062   4.602  0.9744 -0.4421  0.0480
  190SAPI  H20S21984   3.677   2.938   4.675 -0.9940  0.8455  0.9382
  190SAPI  H20T21985   3.849   2.969   4.740  0.6311 -0.8935 -1.5199
  190SAPI   C3321986   3.125   3.666   5.950 -0.3837  0.4815  1.0540
  190SAPI   H3X21987   3.185   3.759   5.960  1.6366 -0.1399 -3.0604
  190SAPI   H3Y21988   3.018   3.685   5.974 -0.0117  1.1160  2.3150
  190SAPI   C3421989   3.155   3.611   5.805 -0.6091  0.3680 -0.7324
  190SAPI   H4X21990   3.264   3.596   5.792 -0.1044  1.7941  1.3522
  190SAPI   H4Y21991   3.125   3.695   5.739 -1.7779 -0.3004 -1.0819
  190SAPI   C3521992   3.076   3.483   5.778  0.4903 -0.5214 -0.0160
  190SAPI   H5X21993   2.968   3.510   5.776  0.0084 -2.2731 -2.3711
  190SAPI   H5Y21994   3.088   3.412   5.863  0.5413 -1.0757 -0.4818
  190SAPI   C3621995   3.111   3.408   5.649 -0.4233  0.4843  0.2703
  190SAPI   H6X21996   3.222   3.401   5.653 -0.1165  2.4260 -2.3319
  190SAPI   H6Y21997   3.076   3.469   5.563 -1.3404  1.2600  1.1593
  190SAPI   C3721998   3.043   3.273   5.642  0.9150 -0.2042  0.3820
  190SAPI   H7X21999   2.933   3.275   5.631  1.0319  1.4774 -0.9806
  190SAPI   H7Y22000   3.065   3.218   5.736 -0.3643  1.4532  1.7155
  190SAPI   C3822001   3.103   3.198   5.529  0.3636  0.0206  0.2442
  190SAPI   H8X22002   3.044   3.111   5.494  1.6051 -0.5316 -0.5834
  190SAPI   H8Y22003   3.203   3.157   5.555  0.5683  0.2275 -0.1949
  190SAPI   C3922004   3.130   3.282   5.399 -0.6366  0.2086 -0.2994
  190SAPI   H9X22005   3.210   3.357   5.418  0.7379 -0.9498 -1.1970
  190SAPI   H9Y22006   3.040   3.331   5.358 -1.1510  0.1056  0.6887
  190SAPI  C31022007   3.197   3.199   5.293  0.1482  0.3356 -0.0942
  190SAPI  H10X22008   3.117   3.123   5.278 -2.2293  2.2517  2.0119
  190SAPI  H10Y22009   3.287   3.148   5.332 -1.1105 -2.3096 -0.4400
  190SAPI  C31122010   3.244   3.285   5.177  0.3339 -0.0834 -0.3624
  190SAPI  H11X22011   3.320   3.239   5.110 -1.0004 -0.7108 -1.5199
  190SAPI  H11Y22012   3.297   3.376   5.212  0.6045 -0.3177 -0.1683
  190SAPI  C31222013   3.129   3.342   5.088  0.2640  0.2726 -0.1011
  190SAPI  H12X22014   3.062   3.397   5.158  2.9705  4.2452 -0.2389
  190SAPI  H12Y22015   3.082   3.253   5.042 -0.8953  1.3548 -1.0999
  190SAPI  C31322016   3.173   3.452   4.987  0.5647 -0.3275 -0.0128
  190SAPI  H13X22017   3.253   3.404   4.927  0.0185 -0.5374 -0.5916
  190SAPI  H13Y22018   3.218   3.540   5.038 -0.8558 -0.5406  1.7083
  190SAPI  C31422019   3.059   3.506   4.894  0.0802  0.3504  0.2689
  190SAPI  H14X22020   3.004   3.417   4.857  0.1109  0.6994 -0.6390
  190SAPI  H14Y22021   3.115   3.547   4.807  1.6440 -1.7962  0.1829
  190SAPI  C31522022   2.962   3.602   4.960 -0.2316 -0.4427 -0.4618
  190SAPI  H15X22023   2.917   3.553   5.049 -0.0595  0.1817 -0.0143
  190SAPI  H15Y22024   2.886   3.624   4.882 -0.2578 -2.3306 -1.0071
  190SAPI  C31622025   3.023   3.740   5.001  0.6284  0.2490 -0.4168
  190SAPI  H16X22026   3.108   3.737   5.072  0.4298 -0.5558 -0.2036
  190SAPI  H16Y22027   2.944   3.795   5.056  0.2068 -0.0347 -0.7324
  190SAPI  C31722028   3.069   3.836   4.894  0.6368 -1.0997  0.1557
  190SAPI  H17X22029   2.987   3.849   4.821  1.4803 -0.3479 -0.6900
  190SAPI  H17Y22030   3.153   3.790   4.838 -1.3463 -1.4076 -2.8184
  190SAPI  C31822031   3.104   3.974   4.936 -0.0017  0.5735  0.6370
  190SAPI  H18X22032   3.149   4.032   4.853  0.2336 -0.7154 -0.1658
  190SAPI  H18Y22033   3.186   3.967   5.011  0.4163  0.3511  0.1605
  190SAPI  H18Z22034   3.012   4.022   4.977 -1.0319  0.8000 -1.7617
  191SAPI   C1222035   2.236   2.117   1.971 -0.2659 -0.4298 -0.1072
  191SAPI    H222036   2.311   2.161   2.040 -0.6471  0.9237 -0.5276
  191SAPI    O222037   2.184   2.217   1.873 -0.1136 -0.1326 -0.3008
  191SAPI   HO222038   2.125   2.277   1.920 -0.3771 -1.2451  0.8505
  191SAPI   C1322039   2.310   2.007   1.901 -0.0276  1.0160 -0.1765
  191SAPI    H322040   2.343   1.937   1.981 -1.5536 -0.4270 -0.7405
  191SAPI    O322041   2.425   2.060   1.832 -0.2670 -0.0287  0.0540
  191SAPI   HO322042   2.496   2.075   1.894 -0.7821  1.4766  0.3388
  191SAPI   C1422043   2.221   1.929   1.804 -0.1257  0.7392 -0.0477
  191SAPI    H422044   2.204   2.002   1.722  2.4662 -0.3132 -1.6396
  191SAPI    O422045   2.287   1.808   1.760 -0.1566 -0.2222 -0.0177
  191SAPI   HO422046   2.377   1.819   1.793 -0.8343  0.5951  1.6780
  191SAPI   C1522047   2.086   1.897   1.858 -0.2843  0.0754  0.7109
  191SAPI    H522048   2.104   1.796   1.903  2.0364  1.2942  2.7750
  191SAPI    O522049   1.995   1.876   1.752  0.3071  0.0370 -0.6903
  191SAPI   HO522050   1.976   1.783   1.746 -0.8672  0.1514  0.7963
  191SAPI   C1622051   2.024   1.971   1.979 -0.6872 -0.2485 -0.6882
  191SAPI    H622052   1.946   2.041   1.941 -0.5509  0.9139  1.0896
  191SAPI    O622053   1.959   1.884   2.066  0.7503  0.1150 -0.1824
  191SAPI   HO622054   1.906   1.919   2.138  1.4628  0.7720  0.0350
  191SAPI   C1122055   2.125   2.063   2.059  0.2653  0.5785  1.0722
  191SAPI    H122056   2.178   2.011   2.142 -0.7318 -1.6201  0.3963
  191SAPI     P22057   1.943   2.162   2.243 -0.2182  0.2213  0.7444
  191SAPI   O1322058   1.838   2.057   2.210 -0.3508 -0.0465  0.4976
  191SAPI   O1422059   1.894   2.299   2.263 -0.1370 -0.4900  0.5828
  191SAPI   O1222060   2.063   2.177   2.122  0.0557 -0.0741  0.8199
  191SAPI   O1122061   2.030   2.110   2.370  0.0294 -0.2177  0.5939
  191SAPI    C122062   2.113   2.203   2.441 -0.5889  0.2661 -0.3086
  191SAPI    HA22063   2.199   2.243   2.382 -0.4046  0.1212 -0.1388
  191SAPI    HB22064   2.052   2.288   2.477  1.5994  0.5424  3.2149
  191SAPI    C222065   2.162   2.127   2.576  0.3658 -0.8956  0.6815
  191SAPI    HS22066   2.237   2.050   2.546  0.0024 -0.7192 -0.7423
  191SAPI   O2122067   2.045   2.063   2.643 -0.7456 -0.5967 -0.3793
  191SAPI   C2122068   2.052   1.941   2.680  0.0691  0.3465  0.2814
  191SAPI   O2222069   2.149   1.869   2.659 -0.5239  0.0750 -0.4521
  191SAPI   C2222070   1.927   1.910   2.747 -0.1267  0.0431 -0.0377
  191SAPI   H2R22071   1.833   1.956   2.708  0.6262  2.3356  0.6681
  191SAPI   H2S22072   1.908   1.801   2.742  2.5353 -0.5008  0.3635
  191SAPI    C322073   2.234   2.231   2.665 -0.2203 -0.1910 -0.5267
  191SAPI    HX22074   2.160   2.312   2.685 -1.6147 -1.6664  0.5575
  191SAPI    HY22075   2.320   2.274   2.609  0.6050 -0.8600  0.1937
  191SAPI   O3122076   2.279   2.167   2.784 -0.0189 -0.2234  0.3231
  191SAPI   C3122077   2.341   2.259   2.867  0.7451  0.3792 -0.0280
  191SAPI   O3222078   2.364   2.372   2.835 -0.0577 -0.4100 -0.3813
  191SAPI   C3222079   2.352   2.189   3.002 -0.5411  0.1753  0.1748
  191SAPI   H2X22080   2.400   2.090   2.987 -1.1742 -0.6445  3.0534
  191SAPI   H2Y22081   2.251   2.160   3.036 -0.1219 -2.7548 -0.8131
  191SAPI   C2322082   1.929   1.939   2.899  0.3130 -0.3439 -0.0972
  191SAPI   H3R22083   1.820   1.954   2.915  0.2435 -3.6815  4.3685
  191SAPI   H3S22084   1.959   2.044   2.922 -0.4900 -0.1638  0.1746
  191SAPI   C2422085   1.996   1.834   2.983  0.2483 -0.0168 -0.8972
  191SAPI   H4R22086   1.985   1.726   2.956 -1.6970 -0.1231  0.1094
  191SAPI   H4S22087   1.947   1.855   3.081  0.4141  0.4708 -0.9180
  191SAPI   C2522088   2.143   1.857   2.993 -0.0966 -0.6373  0.4330
  191SAPI   H5R22089   2.193   1.844   2.896  0.6020 -0.9320  0.8306
  191SAPI   C2622090   2.208   1.861   3.109 -0.7305 -0.2874 -0.2958
  191SAPI   H6R22091   2.318   1.870   3.105 -0.8483  3.2012  0.7014
  191SAPI   C2722092   2.145   1.868   3.249  0.0491  0.9015 -0.0056
  191SAPI   H7R22093   2.047   1.921   3.239 -0.3207 -0.1438 -2.9553
  191SAPI   H7S22094   2.215   1.928   3.310  0.8699 -0.8626  0.8408
  191SAPI   C2822095   2.131   1.730   3.313 -0.4289 -0.5809  0.0868
  191SAPI   H8R22096   2.079   1.655   3.251  0.2202 -1.8894  1.0849
  191SAPI   C2922097   2.169   1.692   3.434 -0.3366  0.1100 -1.2494
  191SAPI   H9R22098   2.179   1.590   3.474  3.9446  1.4617  1.8868
  191SAPI  C21022099   2.219   1.782   3.547  0.0403  0.5819  0.6897
  191SAPI  H10R22100   2.164   1.739   3.633 -0.4777 -0.7573 -0.2948
  191SAPI  H10S22101   2.181   1.883   3.518 -2.7862 -1.0921 -2.0415
  191SAPI  C21122102   2.368   1.802   3.581  0.8902 -0.5440  0.0517
  191SAPI  H11R22103   2.418   1.838   3.489  1.6725 -0.0565  0.6575
  191SAPI  C21222104   2.432   1.777   3.696  0.3431  1.0618  0.3677
  191SAPI  H12R22105   2.538   1.803   3.707  0.6784 -0.3698  0.6912
  191SAPI  C21322106   2.372   1.716   3.822 -0.1404 -0.1833  0.0531
  191SAPI  H13R22107   2.276   1.670   3.789 -0.8174  2.9172 -2.8769
  191SAPI  H13S22108   2.344   1.803   3.885  1.8057 -0.2232  1.0467
  191SAPI  C21422109   2.460   1.619   3.893  0.1779 -0.0841  1.4564
  191SAPI  H14R22110   2.535   1.571   3.828 -0.3636  2.9910 -1.6993
  191SAPI  C21522111   2.460   1.594   4.026  0.3700  0.1442  0.2716
  191SAPI  H15R22112   2.538   1.527   4.064  1.8573  1.0436 -1.0399
  191SAPI  C21622113   2.365   1.647   4.126 -0.6391 -0.0224 -0.0504
  191SAPI  H16R22114   2.317   1.737   4.081 -2.1542 -0.4239  0.6924
  191SAPI  H16S22115   2.425   1.685   4.212 -1.0876 -1.2097  0.8160
  191SAPI  C21722116   2.259   1.554   4.177 -0.3729 -0.3466 -0.7644
  191SAPI  H17R22117   2.207   1.503   4.093  0.6166  0.6586 -2.0322
  191SAPI  H17S22118   2.185   1.615   4.234 -0.4595 -0.3890 -0.8311
  191SAPI  C21822119   2.314   1.448   4.282  0.6795 -0.7896  1.1483
  191SAPI  H18R22120   2.389   1.506   4.340 -0.1270 -0.5004  1.9301
  191SAPI  H18S22121   2.358   1.362   4.227  1.3876  1.5744 -2.2485
  191SAPI  C21922122   2.205   1.397   4.375 -0.4230  0.7030 -0.1771
  191SAPI  H19R22123   2.142   1.333   4.310  0.3582 -0.7197  0.4144
  191SAPI  H19S22124   2.145   1.478   4.420  0.4201  0.6116  1.1693
  191SAPI  C22022125   2.273   1.312   4.486 -0.2169 -0.9691  0.9134
  191SAPI  H20R22126   2.320   1.384   4.557 -2.5051  0.8788  0.6625
  191SAPI  H20S22127   2.348   1.245   4.440  1.5283  0.5397  1.4532
  191SAPI  H20T22128   2.195   1.264   4.550 -2.9758  1.4194 -0.4103
  191SAPI   C3322129   2.432   2.270   3.101  0.2735 -0.5019 -0.1351
  191SAPI   H3X22130   2.380   2.364   3.129  1.7229  0.7229 -1.3895
  191SAPI   H3Y22131   2.534   2.302   3.070 -0.6902  2.7594 -0.2582
  191SAPI   C3422132   2.452   2.190   3.232 -0.0954  0.3198 -0.8374
  191SAPI   H4X22133   2.510   2.098   3.212 -0.3501  0.1676 -0.8870
  191SAPI   H4Y22134   2.352   2.168   3.275  0.7309 -1.4125  0.3042
  191SAPI   C3522135   2.528   2.261   3.340  0.2079  0.2968  0.5645
  191SAPI   H5X22136   2.474   2.358   3.351 -0.9292 -0.3549  0.9149
  191SAPI   H5Y22137   2.631   2.271   3.301  0.1384 -0.8490  0.0427
  191SAPI   C3622138   2.528   2.185   3.472 -0.1217  0.5817  0.3270
  191SAPI   H6X22139   2.584   2.092   3.448 -1.2187 -0.6744  2.3309
  191SAPI   H6Y22140   2.422   2.162   3.496  0.3032 -2.3129 -0.2050
  191SAPI   C3722141   2.593   2.256   3.584  0.5333 -0.1917  0.0775
  191SAPI   H7X22142   2.555   2.361   3.588  1.5738  0.2134 -0.3960
  191SAPI   H7Y22143   2.702   2.278   3.581  0.5216 -0.1623 -0.1055
  191SAPI   C3822144   2.568   2.188   3.717 -0.2088  0.2925  0.2979
  191SAPI   H8X22145   2.582   2.078   3.706  0.2781  0.2743  1.0485
  191SAPI   H8Y22146   2.462   2.191   3.749  0.1196 -2.2604  1.8985
  191SAPI   C3922147   2.656   2.239   3.830 -0.4926  0.0751 -0.3128
  191SAPI   H9X22148   2.655   2.350   3.826 -2.5207  0.1057 -0.1352
  191SAPI   H9Y22149   2.759   2.199   3.828 -0.4049  0.2185  0.9172
  191SAPI  C31022150   2.598   2.210   3.966  0.3271 -0.2536 -0.1947
  191SAPI  H10X22151   2.497   2.253   3.983  0.0240 -1.0112 -0.0355
  191SAPI  H10Y22152   2.676   2.243   4.038 -0.4437  1.5537 -0.1312
  191SAPI  C31122153   2.578   2.057   3.995 -1.2701 -0.4897 -0.4063
  191SAPI  H11X22154   2.669   1.998   3.968 -1.8627 -1.4737 -0.2883
  191SAPI  H11Y22155   2.495   2.011   3.938 -1.8449  1.5397 -1.3042
  191SAPI  C31222156   2.565   2.022   4.148 -0.5359 -0.4008 -0.0225
  191SAPI  H12X22157   2.655   2.053   4.205  0.0285 -1.5375 -0.2872
  191SAPI  H12Y22158   2.551   1.912   4.156 -2.0009 -0.1852  0.8095
  191SAPI  C31322159   2.451   2.089   4.221  0.1671 -0.3986  0.7063
  191SAPI  H13X22160   2.354   2.067   4.173  0.9965 -3.3080  0.1748
  191SAPI  H13Y22161   2.451   2.199   4.212 -0.2196 -0.5379 -1.6267
  191SAPI  C31422162   2.435   2.043   4.366  0.2818  0.8815 -0.1865
  191SAPI  H14X22163   2.359   2.111   4.410 -0.8299 -0.8664  0.6936
  191SAPI  H14Y22164   2.529   2.052   4.424 -0.2962  2.9326  0.5466
  191SAPI  C31522165   2.379   1.901   4.387  0.1333  0.1274  0.0486
  191SAPI  H15X22166   2.465   1.831   4.377  0.5846  0.9180 -2.3551
  191SAPI  H15Y22167   2.301   1.879   4.311 -0.7453 -0.8135  1.2071
  191SAPI  C31622168   2.327   1.875   4.531 -0.3992  0.1058  0.2593
  191SAPI  H16X22169   2.407   1.907   4.602 -0.7951  0.5496  0.5043
  191SAPI  H16Y22170   2.305   1.766   4.534 -1.8424  0.3618 -0.3755
  191SAPI  C31722171   2.198   1.942   4.560  0.5220 -0.0848 -0.2959
  191SAPI  H17X22172   2.133   1.920   4.473 -1.0574  2.5377  0.1369
  191SAPI  H17Y22173   2.212   2.052   4.558 -2.2904  0.3421 -3.0718
  191SAPI  C31822174   2.134   1.882   4.684 -0.2397 -0.0924  0.4974
  191SAPI  H18X22175   2.108   1.777   4.661  1.4873 -0.8822  1.9250
  191SAPI  H18Y22176   2.034   1.924   4.710 -0.0401  1.0629 -0.4594
  191SAPI  H18Z22177   2.197   1.883   4.775 -1.3496  3.0588  1.3811
  192SAPI   C1222178   4.132   2.802   2.130  0.2691  0.1961  0.8886
  192SAPI    H222179   4.195   2.766   2.213  0.1561  0.1191  0.9408
  192SAPI    O222180   4.035   2.895   2.182  0.0067  0.4785 -0.2852
  192SAPI   HO222181   4.076   2.952   2.246 -0.9259  0.6615  0.1581
  192SAPI   C1322182   4.214   2.867   2.024 -0.6235  0.1688 -0.1254
  192SAPI    H322183   4.277   2.782   1.989 -1.6891  0.1437 -2.1039
  192SAPI    O322184   4.284   2.978   2.090  0.3733 -0.1170  0.1278
  192SAPI   HO322185   4.328   2.945   2.169 -0.3655 -2.3658 -0.3405
  192SAPI   C1422186   4.137   2.918   1.906  0.1055  0.1899  0.4221
  192SAPI    H422187   4.104   3.019   1.936 -1.1885  0.3147 -1.2990
  192SAPI    O422188   4.228   2.945   1.801  0.1142 -0.6962 -0.0195
  192SAPI   HO422189   4.186   3.006   1.740 -0.3181 -0.8082  0.1558
  192SAPI   C1522190   4.020   2.835   1.857  0.1805  0.2164 -0.4966
  192SAPI    H522191   4.057   2.777   1.770 -1.7045 -0.2967 -0.9941
  192SAPI    O522192   3.916   2.921   1.809  0.1932 -0.4417  0.3289
  192SAPI   HO522193   3.956   2.963   1.733  0.5779 -1.5306 -0.0908
  192SAPI   C1622194   3.965   2.724   1.956 -0.4576 -0.0390  0.0570
  192SAPI    H622195   3.880   2.780   2.000  0.4968  2.3437 -0.9432
  192SAPI    O622196   3.903   2.620   1.881 -0.4464  0.7172 -0.1582
  192SAPI   HO622197   3.812   2.645   1.861 -0.2746  0.7786 -0.8535
  192SAPI   C1122198   4.059   2.681   2.062  0.3538 -0.1207 -0.6172
  192SAPI    H122199   4.126   2.607   2.015 -1.4716 -2.7950  0.6940
  192SAPI     P22200   4.056   2.486   2.250 -0.2482  0.3770 -0.2161
  192SAPI   O1322201   4.169   2.433   2.163 -0.2474  0.0675 -0.4097
  192SAPI   O1422202   3.951   2.391   2.289 -0.5565  0.1757  0.4472
  192SAPI   O1222203   3.985   2.609   2.168  0.4348  0.0307  0.3398
  192SAPI   O1122204   4.110   2.560   2.379 -1.0178  0.0974 -0.0342
  192SAPI    C122205   4.015   2.624   2.460 -0.5604 -0.0004  0.1983
  192SAPI    HA22206   4.023   2.731   2.433  2.4428 -0.5001 -1.2507
  192SAPI    HB22207   3.910   2.600   2.432  0.5038 -2.3496 -2.2894
  192SAPI    C222208   4.039   2.611   2.617 -0.3135  0.3595  0.5726
  192SAPI    HS22209   3.955   2.663   2.668 -2.4809 -1.4955 -0.8702
  192SAPI   O2122210   4.171   2.665   2.653  0.0360  0.1242  0.4455
  192SAPI   C2122211   4.166   2.794   2.682  0.1763 -0.5302 -0.5627
  192SAPI   O2222212   4.070   2.871   2.678 -0.2964  0.3321 -0.4425
  192SAPI   C2222213   4.303   2.842   2.733 -0.6056 -0.6035  0.0616
  192SAPI   H2R22214   4.384   2.798   2.669 -0.1776  0.3354 -0.0605
  192SAPI   H2S22215   4.302   2.952   2.721 -0.2887 -0.6702 -0.6622
  192SAPI    C322216   4.032   2.462   2.656 -0.1956  0.0033  0.3157
  192SAPI    HX22217   4.116   2.409   2.607 -0.1955 -0.2123  0.5465
  192SAPI    HY22218   3.950   2.405   2.607 -1.3049 -0.5539  2.6515
  192SAPI   O3122219   4.035   2.431   2.795  0.1523 -0.3895 -0.4133
  192SAPI   C3122220   3.913   2.440   2.858  0.3805  0.7038 -0.0457
  192SAPI   O3222221   3.815   2.484   2.807 -0.1549  0.0179 -0.2016
  192SAPI   C3222222   3.936   2.384   3.001 -0.4542 -0.2806 -0.0835
  192SAPI   H2X22223   3.991   2.460   3.060  0.5461 -0.1881 -1.1073
  192SAPI   H2Y22224   4.007   2.298   3.001  0.5033  0.4650  1.4425
  192SAPI   C2322225   4.340   2.800   2.875 -0.1756 -0.4350 -0.0224
  192SAPI   H3R22226   4.447   2.830   2.883 -0.3260 -0.0337  0.4939
  192SAPI   H3S22227   4.339   2.690   2.894 -1.2884 -0.3566  0.4493
  192SAPI   C2422228   4.259   2.866   2.990  0.3921  0.7114  0.4767
  192SAPI   H4R22229   4.308   2.832   3.083  0.7841  1.1320  0.4282
  192SAPI   H4S22230   4.160   2.819   2.972  0.4523 -0.8993  3.7226
  192SAPI   C2522231   4.251   3.014   2.979  0.1092  0.1294 -0.2877
  192SAPI   H5R22232   4.223   3.046   2.877  0.7473  0.0402 -0.4964
  192SAPI   C2622233   4.272   3.100   3.073 -0.0889 -0.5308  0.0541
  192SAPI   H6R22234   4.263   3.206   3.044 -1.0351 -1.3414 -3.0737
  192SAPI   C2722235   4.310   3.077   3.224 -0.6883  0.2314  0.9429
  192SAPI   H7R22236   4.317   2.970   3.252  0.6523 -0.0542 -0.3782
  192SAPI   H7S22237   4.224   3.124   3.278  2.2211  4.4866  2.4384
  192SAPI   C2822238   4.432   3.160   3.256 -0.3848  0.1099  0.4976
  192SAPI   H8R22239   4.505   3.175   3.174  0.7473  0.0953  1.4767
  192SAPI   C2922240   4.477   3.205   3.374  0.0438 -0.6127  0.7045
  192SAPI   H9R22241   4.561   3.276   3.382 -1.8559  2.4582 -3.3869
  192SAPI  C21022242   4.417   3.161   3.500 -0.7941  0.1760 -0.4478
  192SAPI  H10R22243   4.333   3.089   3.487  0.0719 -1.3223  1.6794
  192SAPI  H10S22244   4.370   3.251   3.544 -1.1091 -0.0763 -0.2606
  192SAPI  C21122245   4.516   3.090   3.593  0.0412  0.0519 -0.4033
  192SAPI  H11R22246   4.581   3.019   3.541 -0.5970 -0.7083 -0.1924
  192SAPI  C21222247   4.524   3.109   3.727 -0.2048 -0.3677 -0.5367
  192SAPI  H12R22248   4.607   3.063   3.784  0.9844 -0.4360 -2.2287
  192SAPI  C21322249   4.437   3.209   3.802  1.1406  0.0083 -0.1616
  192SAPI  H13R22250   4.405   3.297   3.743  0.1629 -0.6479 -0.6390
  192SAPI  H13S22251   4.493   3.254   3.887 -0.4613 -2.3345  2.2785
  192SAPI  C21422252   4.318   3.139   3.864 -0.2770 -0.1347 -0.2920
  192SAPI  H14R22253   4.241   3.151   3.786 -0.2408  0.7770 -0.1911
  192SAPI  C21522254   4.307   3.075   3.983  0.9256  0.0445 -0.0068
  192SAPI  H15R22255   4.212   3.026   4.007  1.2498 -0.9420 -0.6679
  192SAPI  C21622256   4.414   3.074   4.089  0.2128  0.1542 -0.1469
  192SAPI  H16R22257   4.513   3.086   4.041 -0.2576  0.4879 -1.0677
  192SAPI  H16S22258   4.415   2.974   4.136  0.1227 -0.2138 -0.9202
  192SAPI  C21722259   4.384   3.186   4.188 -0.0418 -0.0303  0.0231
  192SAPI  H17R22260   4.285   3.182   4.238  0.3150  0.6731  0.8106
  192SAPI  H17S22261   4.385   3.280   4.129 -3.1456 -0.0006 -0.1637
  192SAPI  C21822262   4.477   3.191   4.307  0.4748 -0.0249  0.4519
  192SAPI  H18R22263   4.566   3.127   4.288 -0.1419 -0.6165 -0.5567
  192SAPI  H18S22264   4.426   3.151   4.397  0.6724  1.2283  1.1500
  192SAPI  C21922265   4.521   3.338   4.320 -0.3589 -0.1880 -0.3983
  192SAPI  H19R22266   4.435   3.407   4.329  0.7281  0.8552  4.2567
  192SAPI  H19S22267   4.585   3.366   4.234 -0.4860 -1.0455 -0.7911
  192SAPI  C22022268   4.607   3.335   4.443 -1.3301 -0.5333 -0.9105
  192SAPI  H20R22269   4.659   3.431   4.462  0.7285 -1.3217 -2.2369
  192SAPI  H20S22270   4.682   3.253   4.439  0.0724  0.6439  0.3111
  192SAPI  H20T22271   4.549   3.301   4.532 -0.6673 -0.3350 -0.3925
  192SAPI   C3322272   3.810   2.329   3.076 -0.0064  0.6615  0.5540
  192SAPI   H3X22273   3.759   2.248   3.019  0.2134 -0.0697  1.3723
  192SAPI   H3Y22274   3.737   2.413   3.077 -0.8646 -0.0406 -0.7558
  192SAPI   C3422275   3.850   2.274   3.219  0.0996  0.6959  0.0604
  192SAPI   H4X22276   3.948   2.222   3.211 -0.4581 -0.8166  2.3061
  192SAPI   H4Y22277   3.788   2.187   3.249 -0.3135  1.2409  0.8399
  192SAPI   C3522278   3.871   2.377   3.330 -0.1164 -0.5719 -0.6206
  192SAPI   H5X22279   3.770   2.410   3.362  0.3192  0.1251  0.0308
  192SAPI   H5Y22280   3.929   2.461   3.288  0.7940 -1.5971 -1.4834
  192SAPI   C3622281   3.947   2.313   3.450  0.0818 -0.2195  1.3037
  192SAPI   H6X22282   4.053   2.299   3.422  0.1576  0.0657  1.4419
  192SAPI   H6Y22283   3.917   2.206   3.457 -2.7525  0.3784 -0.1685
  192SAPI   C3722284   3.948   2.381   3.590 -0.4730  0.5159  0.7420
  192SAPI   H7X22285   3.845   2.392   3.631 -0.5399 -0.4829  0.8546
  192SAPI   H7Y22286   3.988   2.485   3.583  0.9448  0.0815  1.8869
  192SAPI   C3822287   4.029   2.312   3.700 -0.2567  0.4248  0.1290
  192SAPI   H8X22288   4.133   2.303   3.663 -0.7080 -1.5667 -0.7942
  192SAPI   H8Y22289   3.994   2.206   3.704 -0.8185  0.6282  1.4120
  192SAPI   C3922290   4.047   2.374   3.838  0.0838 -0.3029  1.0205
  192SAPI   H9X22291   3.943   2.397   3.866 -0.1735  2.9512 -1.8873
  192SAPI   H9Y22292   4.099   2.472   3.826 -1.9879  0.6387 -1.1391
  192SAPI  C31022293   4.122   2.290   3.936 -1.0587 -0.6013 -0.4436
  192SAPI  H10X22294   4.139   2.355   4.025 -1.4865  1.7751 -1.9974
  192SAPI  H10Y22295   4.202   2.225   3.896 -0.5875 -0.9450  1.0083
  192SAPI  C31122296   4.027   2.192   4.009 -0.0279  0.7787  0.6531
  192SAPI  H11X22297   3.985   2.125   3.931 -0.0516  1.8557 -0.2929
  192SAPI  H11Y22298   3.937   2.248   4.042  0.6222  2.7781 -0.7418
  192SAPI  C31222299   4.092   2.114   4.126 -0.9210  0.1346  0.1137
  192SAPI  H12X22300   4.113   2.193   4.201 -1.7725  1.3869 -0.9207
  192SAPI  H12Y22301   4.181   2.058   4.091 -2.7653 -1.7033 -1.9163
  192SAPI  C31322302   3.995   2.011   4.192 -0.2841 -0.3979  0.0855
  192SAPI  H13X22303   3.951   1.949   4.111 -1.7783 -1.5905  1.7269
  192SAPI  H13Y22304   3.922   2.074   4.247 -0.1559 -0.2263  0.0591
  192SAPI  C31422305   4.070   1.931   4.300 -0.8425  0.6061 -0.0654
  192SAPI  H14X22306   4.097   2.002   4.381 -0.7071 -0.8636  1.2262
  192SAPI  H14Y22307   4.168   1.890   4.268 -0.9223  0.7982 -0.5773
  192SAPI  C31522308   3.985   1.816   4.341 -0.1753 -0.5052  0.0098
  192SAPI  H15X22309   3.974   1.761   4.245  0.3660 -0.6257  0.0125
  192SAPI  H15Y22310   3.889   1.845   4.389  1.1492  2.9721  0.9016
  192SAPI  C31622311   4.056   1.729   4.448  0.3216  0.3092 -0.1617
  192SAPI  H16X22312   3.987   1.655   4.495  0.5270 -1.9620 -3.1578
  192SAPI  H16Y22313   4.092   1.791   4.533 -1.2435 -0.9173  1.4849
  192SAPI  C31722314   4.183   1.661   4.389  0.7651  0.2737  0.5057
  192SAPI  H17X22315   4.261   1.739   4.374  0.1030  0.8530 -0.0210
  192SAPI  H17Y22316   4.155   1.629   4.286 -0.4271 -0.1250  0.9443
  192SAPI  C31822317   4.228   1.546   4.480 -0.3076  0.2676  0.9879
  192SAPI  H18X22318   4.235   1.567   4.588  0.7677 -2.3893  1.5178
  192SAPI  H18Y22319   4.323   1.502   4.443 -1.4142 -0.3840 -1.3203
  192SAPI  H18Z22320   4.155   1.464   4.461  0.2407  0.0013 -0.0860
  193SOD    SOD22321   4.259   2.606   6.549  0.4682  0.5841  0.1420
  194SOD    SOD22322   2.146   0.455   0.311 -0.2744 -0.2555  0.3676
  195SOD    SOD22323   2.983   0.213   6.468 -0.2536  0.2853 -0.2793
  196SOD    SOD22324   4.510   3.450   8.699  0.0053 -0.1425 -0.1778
  197SOD    SOD22325   4.127   2.062   0.862  0.5589  0.0290 -0.1835
  198SOD    SOD22326   3.212   0.543   8.875 -0.0285 -0.1200 -0.2309
  199SOD    SOD22327   2.365   2.572   2.728  0.1975 -0.2779  0.0491
  200SOD    SOD22328   1.475   3.525   0.530  0.0205 -0.0790  0.0658
  201SOD    SOD22329   6.713   5.252   6.719  0.0104 -0.1035 -0.0488
  202SOD    SOD22330   6.701   0.150   8.759  0.3012 -0.3850  0.2891
  203SOD    SOD22331   0.262   0.081   0.108  0.1602  0.3186  0.0268
  204SOD    SOD22332   0.370   6.252   1.906  0.8764  0.0404  0.4538
  205SOD    SOD22333   5.078   4.047   1.627 -0.2930  0.2861  0.0473
  206SOD    SOD22334   5.651   3.973   2.325  0.2573  0.2058  0.0222
  207SOD    SOD22335   0.444   1.143   0.965 -0.0274 -0.3794 -0.0697
  208SOD    SOD22336   0.043   4.762   2.141  0.1995 -0.4957 -0.3814
  209SOD    SOD22337   0.593   0.599   7.406 -0.2780  0.6813  0.0040
  210SOD    SOD22338   3.386   0.720   7.325  0.2822  0.1242 -0.2035
  211SOD    SOD22339   2.488   1.888   6.584 -0.1609  0.0723 -0.1077
  212SOD    SOD22340   1.427   5.409   2.489  0.6947  0.2757 -0.1349
  213SOD    SOD22341   4.332   0.027   1.683 -0.2181 -0.1197 -0.3414
  214SOD    SOD22342   3.150   4.505   1.592 -0.3407  0.0680  0.1149
  215SOD    SOD22343   5.803   0.479   1.576  0.5363  0.2806  0.0720
  216SOD    SOD22344   3.014   2.202   0.433 -0.2283 -0.0911 -0.3764
  217SOD    SOD22345   6.752   3.094   2.294 -0.0138  0.6415 -0.0983
  218SOD    SOD22346   6.368   1.482   7.502 -0.5831 -0.1153 -0.0349
  219SOD    SOD22347   5.134   1.219   6.815 -0.1382  0.2783  0.5146
  220SOD    SOD22348   2.519   5.811   7.361  0.2102 -0.5837 -0.3893
  221SOD    SOD22349   5.135   2.700   0.476 -0.2094 -0.1774  0.1777
  222SOD    SOD22350   3.986   3.762   1.487  0.0150  0.4450  0.3002
  223SOD    SOD22351   4.198   1.352   2.140  0.0466 -0.1296  0.1605
  224SOD    SOD22352   1.639   4.586   6.481 -0.3210 -0.3703  0.1732
  225SOD    SOD22353   4.824   5.332   0.195  0.2033 -0.2618 -0.2587
  226SOD    SOD22354   4.009   3.226   8.897  0.3639  0.1269  0.0166
  227SOD    SOD22355   5.752   5.551   6.582  0.7089 -0.4057  0.0906
  228SOD    SOD22356   3.452   5.639   1.307  0.4239 -0.6333  0.3072
  229SOD    SOD22357   4.266   2.605   7.902  0.3591 -0.8857 -0.2212
  230CLA    CLA22358   3.752   1.064   0.684  0.0071  0.4414  0.1673
  231CLA    CLA22359   1.747   0.318   0.591 -0.2956 -0.0106 -0.0749
  232CLA    CLA22360   5.239   2.923   8.903 -0.3555 -0.0321  0.2914
  233CLA    CLA22361   2.609   1.145   8.315  0.1410  0.4891 -0.0114
  234CLA    CLA22362   3.775   1.124   7.725  0.2375 -0.4256 -0.0570
  235CLA    CLA22363   6.332   6.256   1.719  0.1548 -0.1763 -0.6333
  236CLA    CLA22364   4.433   6.498   0.012 -0.2193  0.1367  0.2952
  237CLA    CLA22365   2.856   0.099   8.286 -0.0900  0.0283  0.1296
  238CLA    CLA22366   1.636   4.021   0.365  0.2487 -0.1004  0.1141
  239CLA    CLA22367   2.371   3.372   1.289  0.1950 -0.1102 -0.0607
  240CLA    CLA22368   4.643   5.717   0.220 -0.1856  0.1360 -0.0442
  241CLA    CLA22369   4.289   2.067   1.095  0.2033  0.3771  0.3391
  242CLA    CLA22370   3.652   3.554   1.164 -0.0555 -0.2422 -0.0302
  243CLA    CLA22371   1.660   1.934   1.227 -0.1867  0.9034  0.2798
  244CLA    CLA22372   5.375   5.395   7.041  0.4396  0.3477 -0.3050
  245CLA    CLA22373   4.059   3.091   1.590 -0.0398 -0.1690 -0.4010
  246CLA    CLA22374   6.676   3.044   1.595 -0.3248  0.5279 -0.2817
  247TIP3   OH222375   1.081   0.089   0.805  0.5361  0.4301 -0.1739
  247TIP3    H122376   1.151   0.125   0.750  0.1524 -0.7321 -1.4970
  247TIP3    H222377   1.001   0.127   0.770  0.3536  0.2549  0.0558
  248TIP3   OH222378   0.898   2.901   2.565  0.2196  0.5960 -0.5922
  248TIP3    H122379   0.860   2.947   2.640  1.4956 -1.1669  1.2260
  248TIP3    H222380   0.823   2.858   2.523 -0.1913 -1.1265  1.6946
  249TIP3   OH222381   5.154   4.696   1.484 -0.5999  0.3042 -0.4756
  249TIP3    H122382   5.116   4.783   1.468 -0.6560  0.6198  1.1971
  249TIP3    H222383   5.235   4.714   1.533 -1.2893 -0.6306  1.0576
  250TIP3   OH222384   0.417   2.673   8.890 -0.4287  0.1406 -0.2281
  250TIP3    H122385   0.388   2.749   8.841  0.2421 -0.1972 -1.1697
  250TIP3    H222386   0.391   2.598   8.836 -0.9054 -0.2980  0.5898
  251TIP3   OH222387   4.418   6.608   7.127 -0.0255  0.2742  0.6173
  251TIP3    H122388   4.373   6.678   7.079 -0.1895  0.1224  0.5477
  251TIP3    H222389   4.476   6.568   7.062  1.7667  1.7874  1.1969
  252TIP3   OH222390   2.962   4.425   1.454  0.4510 -0.0896 -0.2892
  252TIP3    H122391   2.958   4.497   1.390 -1.8004  1.0222  0.9729
  252TIP3    H222392   2.928   4.349   1.408  0.3996  0.2956 -0.8907
  253TIP3   OH222393   2.324   1.900   1.474  0.3330  0.0378  0.0264
  253TIP3    H122394   2.270   1.854   1.538  0.5830 -0.3708 -0.0515
  253TIP3    H222395   2.343   1.835   1.407 -0.5943  0.6826 -0.8860
  254TIP3   OH222396   4.766   6.724   1.501 -0.0327 -0.0380 -0.2828
  254TIP3    H122397   4.776   6.633   1.531 -0.9995 -0.2522 -0.5727
  254TIP3    H222398   4.799   6.777   1.574 -2.0578 -0.5565  1.0974
  255TIP3   OH222399   2.060   3.199   0.696  0.0591 -0.2684 -0.1067
  255TIP3    H122400   2.107   3.133   0.747 -0.9532 -1.5475 -0.7739
  255TIP3    H222401   1.998   3.237   0.759 -0.1815 -0.8091 -0.0111
  256TIP3   OH222402   2.397   2.376   8.463 -0.0296  0.0872  0.0244
  256TIP3    H122403   2.425   2.388   8.372  1.6781 -3.5922 -0.0928
  256TIP3    H222404   2.478   2.359   8.511 -1.1000  0.0746  1.8917
  257TIP3   OH222405   6.401   2.394   6.849  0.0259 -0.0651 -0.0743
  257TIP3    H122406   6.419   2.364   6.938 -0.6984  1.2869  0.5598
  257TIP3    H222407   6.467   2.461   6.832 -0.9924  1.0307  0.1910
  258TIP3   OH222408   3.085   1.175   8.634  0.0083  0.2818 -0.0526
  258TIP3    H122409   3.038   1.139   8.559 -0.1247  0.1900  0.0737
  258TIP3    H222410   3.016   1.204   8.694  0.0970  1.6933 -0.5917
  259TIP3   OH222411   2.866   6.019   7.998  0.3093 -0.1915  0.0282
  259TIP3    H122412   2.818   6.095   8.030  1.2347  1.2384 -1.7688
  259TIP3    H222413   2.941   6.056   7.951 -0.7474 -2.0071 -3.4585
  260TIP3   OH222414   2.459   5.717   1.579  0.0304  0.0914  0.2879
  260TIP3    H122415   2.396   5.782   1.548  0.8908  0.4417 -0.8064
  260TIP3    H222416   2.507   5.762   1.649  0.5684  0.6212 -0.4111
  261TIP3   OH222417   2.947   3.796   1.519  0.9251  0.5750 -0.3950
  261TIP3    H122418   2.969   3.737   1.592  0.4770  1.7606  0.7413
  261TIP3    H222419   3.019   3.785   1.457  2.2205  0.7916  1.0095
  262TIP3   OH222420   1.559   3.978   7.872  0.4342 -0.5822  0.0175
  262TIP3    H122421   1.579   4.044   7.938  0.0100  1.4108 -1.7106
  262TIP3    H222422   1.631   3.985   7.809  0.5291 -2.0166 -0.0715
  263TIP3   OH222423   1.454   5.887   1.646  0.4883 -0.2777 -0.7335
  263TIP3    H122424   1.375   5.834   1.644 -0.0020  0.4357 -0.5388
  263TIP3    H222425   1.483   5.891   1.555 -1.3002  1.7890 -1.2959
  264TIP3   OH222426   6.162   5.561   0.355  0.0257 -0.6770 -0.2949
  264TIP3    H122427   6.234   5.600   0.404 -0.2957 -0.2595 -0.1469
  264TIP3    H222428   6.137   5.484   0.405  0.0686 -0.5674 -0.1058
  265TIP3   OH222429   6.383   3.711   1.742  0.0568  0.3177  0.4603
  265TIP3    H122430   6.305   3.717   1.686 -0.8827  0.2850  1.7100
  265TIP3    H222431   6.440   3.781   1.712 -0.9588  1.0801  0.2580
  266TIP3   OH222432   0.462   3.605   0.107  0.3867  0.1104 -0.3517
  266TIP3    H122433   0.530   3.652   0.156 -2.7220  1.4464  3.1783
  266TIP3    H222434   0.452   3.522   0.154 -1.3200  0.5493  0.1282
  267TIP3   OH222435   2.632   0.472   1.371  0.4195  0.1415  0.2050
  267TIP3    H122436   2.541   0.500   1.380  0.5750  0.3904  1.0229
  267TIP3    H222437   2.671   0.487   1.457  1.0400 -0.6623  0.0765
  268TIP3   OH222438   3.040   4.666   8.515  0.4895  0.5960 -0.0587
  268TIP3    H122439   3.073   4.751   8.488  0.6103  0.6183  0.1539
  268TIP3    H222440   3.114   4.606   8.503  0.8843  0.7960  1.2043
  269TIP3   OH222441   1.865   5.524   8.254  0.4394  0.6373  0.0360
  269TIP3    H122442   1.933   5.467   8.290  0.9560  0.9241 -0.4688
  269TIP3    H222443   1.824   5.563   8.331  1.3089  0.9951  0.3309
  270TIP3   OH222444   3.434   0.143   0.575  0.4037 -0.2492 -0.1326
  270TIP3    H122445   3.392   0.229   0.570 -0.5685 -0.6817  0.2469
  270TIP3    H222446   3.519   0.160   0.614 -0.2131  0.4211  0.9926
  271TIP3   OH222447   5.451   3.907   7.837  0.1558 -0.1376 -0.5079
  271TIP3    H122448   5.480   3.967   7.906  2.3737  1.0761 -2.3780
  271TIP3    H222449   5.473   3.820   7.870  0.3547  0.3436  0.6812
  272TIP3   OH222450   5.800   0.226   8.444  0.4782  0.3907  0.2172
  272TIP3    H122451   5.830   0.210   8.354  1.3793 -0.1712  0.6048
  272TIP3    H222452   5.874   0.269   8.487  1.0817 -1.6425  1.3870
  273TIP3   OH222453   6.103   2.982   2.163 -0.2800 -0.1943  0.1063
  273TIP3    H122454   6.044   2.958   2.234 -0.7892  0.2788 -0.1414
  273TIP3    H222455   6.057   3.053   2.117  1.3526  1.5801  1.0905
  274TIP3   OH222456   1.436   1.600   2.066  0.0647 -0.2832 -0.3793
  274TIP3    H122457   1.479   1.514   2.065 -0.2550 -0.4448 -0.5199
  274TIP3    H222458   1.343   1.580   2.078  0.2534  0.1624  2.4337
  275TIP3   OH222459   3.940   0.352   0.919  1.0539 -0.4456  0.0833
  275TIP3    H122460   3.855   0.369   0.960  1.0509 -1.5687  0.5766
  275TIP3    H222461   3.941   0.258   0.905  2.4272 -0.5209  0.5592
  276TIP3   OH222462   4.812   3.420   1.026 -0.5141 -0.2570  0.0162
  276TIP3    H122463   4.731   3.409   1.075 -0.5290  0.6397  0.2010
  276TIP3    H222464   4.879   3.437   1.092  0.1900 -2.6539  0.0281
  277TIP3   OH222465   5.794   5.272   2.219  0.5338  0.1249  0.3312
  277TIP3    H122466   5.842   5.336   2.271  1.7831 -0.2437 -0.3368
  277TIP3    H222467   5.721   5.322   2.181  1.3248  1.0823  0.0400
  278TIP3   OH222468   0.373   4.385   6.953  0.0867  0.6395  0.1332
  278TIP3    H122469   0.435   4.352   6.888  0.1268  1.6192 -0.3419
  278TIP3    H222470   0.300   4.323   6.949  1.2309 -0.8569  1.0999
  279TIP3   OH222471   3.695   3.573   0.331  0.2965 -0.8945  0.3197
  279TIP3    H122472   3.630   3.643   0.321 -0.5581 -1.4003  2.0396
  279TIP3    H222473   3.755   3.605   0.399  0.3186 -1.5379  0.6085
  280TIP3   OH222474   1.941   6.539   1.806  0.3912 -1.4712  0.1035
  280TIP3    H122475   1.985   6.558   1.889  0.2791 -1.0971  0.0783
  280TIP3    H222476   1.935   6.443   1.804  1.5855 -1.5620 -0.0985
  281TIP3   OH222477   2.253   3.291   8.787 -0.2515 -0.1870 -0.6730
  281TIP3    H122478   2.312   3.367   8.786  1.7634 -1.6495  0.6981
  281TIP3    H222479   2.181   3.319   8.844  1.8854 -0.1793  2.2741
  282TIP3   OH222480   4.168   2.980   6.876 -0.5655  0.0985  0.0172
  282TIP3    H122481   4.260   2.967   6.855 -1.1734 -1.5334 -1.9274
  282TIP3    H222482   4.148   2.910   6.939 -0.8196 -0.4802 -0.7019
  283TIP3   OH222483   2.562   4.687   8.738  0.0020 -0.1526 -0.2279
  283TIP3    H122484   2.649   4.690   8.699 -0.4137 -0.9068 -1.2420
  283TIP3    H222485   2.525   4.604   8.710 -1.3010  0.4424 -0.3686
  284TIP3   OH222486   4.645   6.553   8.267 -0.0414  0.3867 -0.2759
  284TIP3    H122487   4.559   6.513   8.276 -0.0068  0.3422 -0.1274
  284TIP3    H222488   4.677   6.522   8.183  0.4092 -0.7449  0.2841
  285TIP3   OH222489   6.635   0.268   1.418  0.0863  0.6999 -0.5600
  285TIP3    H122490   6.603   0.187   1.458  0.5717 -0.1458 -1.8243
  285TIP3    H222491   6.726   0.250   1.395 -0.6788  0.3555 -3.8666
  286TIP3   OH222492   5.473   5.011   7.973 -0.1090  0.2442  0.0250
  286TIP3    H122493   5.461   4.921   7.943  2.1927  0.3751 -1.5605
  286TIP3    H222494   5.496   5.003   8.065 -1.1797 -0.6507  0.2422
  287TIP3   OH222495   4.939   2.279   8.414  0.3807  0.2215  0.2739
  287TIP3    H122496   4.963   2.312   8.327 -0.2913  0.9891  0.3700
  287TIP3    H222497   5.004   2.318   8.473 -0.1060  0.9982  0.3177
  288TIP3   OH222498   1.327   3.538   6.949  0.4656  0.2163 -0.1302
  288TIP3    H122499   1.324   3.631   6.930 -0.4050  0.0896 -0.6680
  288TIP3    H222500   1.359   3.497   6.869 -3.2129 -0.3159 -1.5330
  289TIP3   OH222501   3.874   0.206   7.771 -0.2728  0.0077 -0.6605
  289TIP3    H122502   3.863   0.274   7.838  1.5094  0.7537 -1.0497
  289TIP3    H222503   3.861   0.253   7.688 -0.4738 -0.4600 -0.8963
  290TIP3   OH222504   2.878   6.314   1.584 -0.1737 -0.3589  0.0856
  290TIP3    H122505   2.819   6.264   1.641 -0.0622 -0.6737 -0.0759
  290TIP3    H222506   2.820   6.367   1.530 -0.2751  0.1733  0.6986
  291TIP3   OH222507   6.239   6.480   0.329  0.3514 -0.4697 -0.2219
  291TIP3    H122508   6.197   6.503   0.412 -1.3326 -1.8864 -0.6243
  291TIP3    H222509   6.301   6.551   0.314 -0.9504  1.0460  1.0999
  292TIP3   OH222510   2.208   4.658   8.600  0.0651  0.2171 -0.2994
  292TIP3    H122511   2.195   4.708   8.681  0.6230 -0.9227  0.5389
  292TIP3    H222512   2.194   4.721   8.530 -0.8213  1.1583  0.6745
  293TIP3   OH222513   6.046   1.921   8.785 -0.4283  0.3176  0.3388
  293TIP3    H122514   6.023   1.982   8.715 -0.5890 -0.0835  0.0376
  293TIP3    H222515   6.031   1.970   8.866 -0.6679  0.6367  0.1010
  294TIP3   OH222516   2.827   1.340   6.610 -0.1059 -0.1924  0.6177
  294TIP3    H122517   2.756   1.378   6.663 -1.5377  0.7458 -1.8104
  294TIP3    H222518   2.823   1.246   6.627 -0.3256  0.0856  2.3130
  295TIP3   OH222519   3.921   3.024   2.524  0.0830 -0.0036  0.4868
  295TIP3    H122520   3.975   2.969   2.580  0.5575  0.8523  0.8797
  295TIP3    H222521   3.983   3.081   2.479 -0.1294 -1.5224 -1.9459
  296TIP3   OH222522   1.954   5.033   7.030 -0.0396 -0.7795  0.1183
  296TIP3    H122523   1.870   5.000   7.001 -0.1628 -1.1346  0.8665
  296TIP3    H222524   1.965   4.999   7.119  1.4234 -1.7410 -0.3810
  297TIP3   OH222525   6.638   1.386   0.831  0.0751 -0.3702 -0.1057
  297TIP3    H122526   6.639   1.481   0.815 -2.7362 -0.3125 -0.3885
  297TIP3    H222527   6.548   1.367   0.855  0.3280 -3.1630 -1.0729
  298TIP3   OH222528   3.103   0.669   1.589 -0.0376 -0.2768  0.4246
  298TIP3    H122529   3.140   0.634   1.670  0.1664  0.1164  0.5070
  298TIP3    H222530   3.142   0.617   1.520 -0.9402 -1.2458  0.6261
  299TIP3   OH222531   4.549   3.862   1.783  0.0559  0.4126 -0.7452
  299TIP3    H122532   4.482   3.817   1.834  0.8367 -0.7354 -0.7023
  299TIP3    H222533   4.562   3.945   1.829  0.9567 -0.7066  1.1310
  300TIP3   OH222534   3.086   6.306   1.760 -0.0242 -0.1328 -0.3680
  300TIP3    H122535   3.007   6.321   1.708 -1.3973 -3.2173  0.5452
  300TIP3    H222536   3.077   6.365   1.835 -0.0361  1.5091 -1.6324
  301TIP3   OH222537   0.004   3.988   8.757 -0.3357  0.1464  0.2476
  301TIP3    H122538  -0.084   4.001   8.794  0.2388  0.2190  1.6525
  301TIP3    H222539   0.053   4.065   8.787  0.9441 -1.2263  1.8778
  302TIP3   OH222540   4.805   4.392   0.713  0.3211  0.3724 -0.3638
  302TIP3    H122541   4.863   4.343   0.654 -0.2371  0.3073 -0.8632
  302TIP3    H222542   4.717   4.373   0.681  0.0505  0.8933  0.0669
  303TIP3   OH222543   2.536   4.717   1.880  0.2946  0.0731 -0.3962
  303TIP3    H122544   2.510   4.643   1.935 -2.0908 -0.6406 -2.2659
  303TIP3    H222545   2.490   4.792   1.917 -1.4107 -0.4285 -1.3663
  304TIP3   OH222546   0.662   4.222   8.365 -0.1427 -0.1371 -0.1945
  304TIP3    H122547   0.735   4.175   8.406 -0.3854 -0.5942 -0.2890
  304TIP3    H222548   0.704   4.285   8.307  0.1739 -0.8405 -0.7415
  305TIP3   OH222549   0.912   5.985   0.768 -0.0304  0.3936  0.2947
  305TIP3    H122550   0.870   5.914   0.719  1.1480  0.8552 -1.4732
  305TIP3    H222551   0.839   6.033   0.807 -0.8929 -1.2614  0.8275
  306TIP3   OH222552   0.448   6.646   7.403  0.5136 -0.3412  0.1153
  306TIP3    H122553   0.394   6.726   7.398  0.4432 -0.3838  0.1858
  306TIP3    H222554   0.484   6.637   7.315  0.2677 -0.4062  0.0196
  307TIP3   OH222555   1.121   0.491   1.925 -0.3216  0.0312 -0.3120
  307TIP3    H122556   1.160   0.407   1.951  0.9803  1.2381  1.9872
  307TIP3    H222557   1.035   0.468   1.892 -0.1671 -2.1859  0.6393
  308TIP3   OH222558   3.602   0.619   7.321  0.3429  0.6038 -0.0063
  308TIP3    H122559   3.649   0.699   7.297  0.5071  0.7409  0.7292
  308TIP3    H222560   3.664   0.549   7.304 -0.1543  0.5131 -1.6322
  309TIP3   OH222561   0.388   5.735   8.876 -0.5180  0.2995  0.0138
  309TIP3    H122562   0.372   5.751   8.969 -3.0167 -0.3834 -0.2358
  309TIP3    H222563   0.451   5.803   8.851 -1.5711  1.9829  1.6878
  310TIP3   OH222564   4.636   5.381   1.507 -0.4402  0.2089  0.1480
  310TIP3    H122565   4.674   5.389   1.419  0.5055 -0.2559  0.5020
  310TIP3    H222566   4.541   5.386   1.492 -0.2698  1.4729 -0.7515
  311TIP3   OH222567   0.935   6.761   7.390 -0.3173 -0.2895  0.3480
  311TIP3    H122568   0.852   6.719   7.414 -0.8410  1.0716  1.0540
  311TIP3    H222569   0.909   6.849   7.360  0.7112 -0.4931 -1.2914
  312TIP3   OH222570   0.441   5.650   1.561  0.1420 -0.6992  0.0694
  312TIP3    H122571   0.388   5.596   1.502 -2.3161  1.8958 -0.3087
  312TIP3    H222572   0.383   5.721   1.588  2.9165  1.3763  1.1108
  313TIP3   OH222573   4.379   2.586   7.117 -0.4798 -0.5834  0.3641
  313TIP3    H122574   4.414   2.664   7.160  0.4470 -1.4183  1.1619
  313TIP3    H222575   4.285   2.589   7.136 -0.4753  0.4085  0.2667
  314TIP3   OH222576   4.628   0.468   2.081 -0.2746 -0.4875 -0.1211
  314TIP3    H122577   4.694   0.412   2.122  0.4111  1.0512  0.9716
  314TIP3    H222578   4.584   0.410   2.018  0.0332 -2.3777  1.3052
  315TIP3   OH222579   0.191   4.545   1.428 -0.1123 -0.0703  0.1136
  315TIP3    H122580   0.228   4.481   1.488 -0.5056 -0.0232  0.4144
  315TIP3    H222581   0.117   4.499   1.387 -0.4499  0.2166  0.3950
  316TIP3   OH222582   5.172   2.863   7.127  0.7421  0.0065  0.0362
  316TIP3    H122583   5.258   2.833   7.096 -0.0612 -0.8928 -1.4475
  316TIP3    H222584   5.114   2.851   7.052 -0.5624  1.2313  0.7981
  317TIP3   OH222585   1.825   1.480   8.184  0.3692 -0.1143  0.3482
  317TIP3    H122586   1.827   1.556   8.242  0.0565 -0.6988  1.1342
  317TIP3    H222587   1.897   1.425   8.215  0.2535 -0.3943  0.1185
  318TIP3   OH222588   3.382   6.637   0.232  0.0926 -0.0853 -0.1189
  318TIP3    H122589   3.434   6.587   0.295  0.6464  0.5508 -0.0552
  318TIP3    H222590   3.297   6.649   0.274  0.4574  0.3295  0.5177
  319TIP3   OH222591   3.158   2.401   8.005  0.4427  0.3870  0.5803
  319TIP3    H122592   3.098   2.355   8.063  2.4880 -2.4285  0.6907
  319TIP3    H222593   3.152   2.355   7.922 -0.8036  2.9781 -0.9189
  320TIP3   OH222594   1.055   0.933   2.250 -0.3659  0.1911 -0.2065
  320TIP3    H122595   1.101   0.871   2.193 -3.1076 -0.6933 -1.6159
  320TIP3    H222596   1.030   0.881   2.326  0.8338  0.6440  0.5107
  321TIP3   OH222597   2.711   1.322   7.215  0.1582  0.2777 -0.2277
  321TIP3    H122598   2.705   1.415   7.191  0.2387  0.5032  0.6154
  321TIP3    H222599   2.659   1.277   7.148  2.2150  0.6356 -2.1894
  322TIP3   OH222600   5.191   3.846   7.204 -0.1865  0.4406  0.5652
  322TIP3    H122601   5.253   3.873   7.272  0.0625  2.9917 -0.5594
  322TIP3    H222602   5.108   3.887   7.230 -0.1297  1.3076 -0.5323
  323TIP3   OH222603   4.263   4.718   7.532  0.2116  0.2191 -0.8212
  323TIP3    H122604   4.187   4.668   7.502  0.7212 -1.8307  1.0761
  323TIP3    H222605   4.290   4.768   7.455 -2.8300  0.7906 -1.6326
  324TIP3   OH222606   1.657   4.790   2.081  0.3822  0.2548  0.4148
  324TIP3    H122607   1.593   4.733   2.123  0.3432  0.9417  1.3080
  324TIP3    H222608   1.741   4.746   2.094  0.0621 -0.9395 -1.2603
  325TIP3   OH222609   3.120   5.601   8.631 -0.0508  0.8984  0.5669
  325TIP3    H122610   3.198   5.631   8.679  0.1855  0.0011  0.7694
  325TIP3    H222611   3.142   5.614   8.539  1.7770 -2.4391  0.3759
  326TIP3   OH222612   6.294   3.179   8.843  0.3161 -0.9956  0.3052
  326TIP3    H122613   6.313   3.229   8.923  1.0420  0.2439 -0.6140
  326TIP3    H222614   6.292   3.088   8.873  1.5336 -0.6478  1.5862
  327TIP3   OH222615   6.743   3.635   0.127 -0.5496 -0.3112 -0.6957
  327TIP3    H122616   6.677   3.567   0.141 -0.0353 -0.7998 -0.6149
  327TIP3    H222617   6.699   3.717   0.151 -0.7538 -0.7635  0.5391
  328TIP3   OH222618   1.564   3.612   1.024  0.0556  0.4898  0.1556
  328TIP3    H122619   1.636   3.565   1.065 -0.7266  0.8202  1.9881
  328TIP3    H222620   1.602   3.695   0.996  0.5830  0.3033  0.3126
  329TIP3   OH222621   1.806   4.664   7.555  0.3365 -0.4113  0.1039
  329TIP3    H122622   1.804   4.570   7.533  1.1012 -0.8596  1.7993
  329TIP3    H222623   1.716   4.693   7.541 -0.5842 -2.0580  2.0779
  330TIP3   OH222624   4.593   2.369   1.176  0.0642 -0.2828 -0.0635
  330TIP3    H122625   4.627   2.364   1.265  1.7563  1.3676 -0.5533
  330TIP3    H222626   4.666   2.341   1.121 -0.4169  0.2744 -0.9976
  331TIP3   OH222627   1.357   2.287   6.825 -0.4751  0.1686  0.3831
  331TIP3    H122628   1.390   2.251   6.743 -0.8196 -0.3518  0.4700
  331TIP3    H222629   1.269   2.319   6.804 -1.1618 -1.3272  0.8906
  332TIP3   OH222630   4.163   0.316   0.485 -0.3311  0.1630 -0.4929
  332TIP3    H122631   4.149   0.364   0.567 -0.1432  1.2741 -1.0814
  332TIP3    H222632   4.148   0.225   0.507 -0.1605  0.4325  0.8097
  333TIP3   OH222633   0.572   0.201   8.637 -0.0200 -0.6657 -0.1937
  333TIP3    H122634   0.517   0.278   8.656 -0.5549 -1.1101  0.0922
  333TIP3    H222635   0.634   0.232   8.571  0.2698  0.2267  0.4684
  334TIP3   OH222636   6.625   1.611   7.771  0.5151  0.1878 -0.6385
  334TIP3    H122637   6.639   1.576   7.859  0.6959 -2.3051 -1.5969
  334TIP3    H222638   6.688   1.684   7.764  1.3630 -0.3550  0.8532
  335TIP3   OH222639   0.392   4.098   7.584 -0.1690 -0.1716 -0.2839
  335TIP3    H122640   0.315   4.078   7.532 -1.5097  0.0437  1.5408
  335TIP3    H222641   0.400   4.025   7.646  1.0312 -0.1353 -0.3672
  336TIP3   OH222642   6.045   4.848   7.288 -0.1200 -0.0303  0.6830
  336TIP3    H122643   6.021   4.764   7.248  1.4819 -0.1025 -0.2509
  336TIP3    H222644   6.024   4.837   7.380 -0.5070 -1.2418  0.4768
  337TIP3   OH222645   1.736   4.590   0.804  0.3931  0.0855  0.2426
  337TIP3    H122646   1.680   4.541   0.744 -2.0990  0.4793  2.0832
  337TIP3    H222647   1.824   4.554   0.790 -0.6349 -2.0165 -1.3548
  338TIP3   OH222648   5.371   5.643   1.146  0.1827 -0.0019 -0.2009
  338TIP3    H122649   5.308   5.674   1.081  0.5559  0.9052 -0.1454
  338TIP3    H222650   5.450   5.624   1.096 -0.0036 -0.7619 -0.2160
  339TIP3   OH222651   0.061   4.432   8.722 -0.3867 -0.1786  0.0552
  339TIP3    H122652   0.099   4.498   8.779 -1.8582 -0.4761  1.4329
  339TIP3    H222653   0.008   4.481   8.659  0.6611  0.0965 -0.6446
  340TIP3   OH222654   4.949   4.058   8.690  0.7713 -0.1960  0.3047
  340TIP3    H122655   5.017   4.088   8.629 -2.1251  0.2347 -3.0154
  340TIP3    H222656   4.912   4.139   8.725  1.8531 -0.4350  2.1948
  341TIP3   OH222657   3.354   2.380   8.535 -0.3698 -0.1741 -0.2160
  341TIP3    H122658   3.309   2.419   8.459 -1.1918 -1.1744 -0.2632
  341TIP3    H222659   3.445   2.409   8.526 -0.2835 -0.8439 -1.9929
  342TIP3   OH222660   4.635   2.855   7.691 -0.3302  0.2712 -0.1822
  342TIP3    H122661   4.702   2.889   7.751  1.0032  0.1961 -1.5634
  342TIP3    H222662   4.568   2.923   7.688 -0.1461  0.5217  0.9391
  343TIP3   OH222663   2.742   3.127   1.627 -0.1836  0.5993 -1.3570
  343TIP3    H122664   2.678   3.131   1.556 -0.1788 -0.9176 -1.4641
  343TIP3    H222665   2.692   3.102   1.704  0.4144 -1.9573 -1.7100
  344TIP3   OH222666   3.297   5.272   1.364 -0.3919  0.1582 -0.0891
  344TIP3    H122667   3.339   5.346   1.320 -0.5827 -0.2805 -1.0292
  344TIP3    H222668   3.368   5.208   1.376 -0.8717 -0.9020 -2.3664
  345TIP3   OH222669   1.292   4.223   7.691  0.5141  0.2755  0.2355
  345TIP3    H122670   1.220   4.238   7.752  0.5082 -0.0037  0.3009
  345TIP3    H222671   1.310   4.129   7.698  1.3581  0.4633  0.7549
  346TIP3   OH222672   1.754   5.522   8.864  0.2644  0.3543 -0.2409
  346TIP3    H122673   1.728   5.517   8.956  0.5296 -0.9351 -0.2184
  346TIP3    H222674   1.679   5.486   8.816  0.8284 -0.6609 -0.3855
  347TIP3   OH222675   2.512   2.447   2.570 -0.0217  0.5068  0.4387
  347TIP3    H122676   2.531   2.481   2.482 -2.7887  2.2119  0.4130
  347TIP3    H222677   2.570   2.371   2.578 -0.3919 -0.4031 -3.2982
  348TIP3   OH222678   6.068   5.093   1.251 -0.1898 -0.4813 -0.3285
  348TIP3    H122679   6.119   5.169   1.281 -0.0566 -0.9568  0.6932
  348TIP3    H222680   6.030   5.057   1.331  0.0167 -1.6923 -0.7528
  349TIP3   OH222681   4.006   4.037   7.822 -0.1693 -0.3058  0.0006
  349TIP3    H122682   4.069   3.994   7.880 -0.3434 -0.4149  0.1104
  349TIP3    H222683   4.052   4.114   7.789 -0.0082 -0.3399  0.1475
  350TIP3   OH222684   2.275   2.706   0.923 -0.3947 -1.4354  0.3237
  350TIP3    H122685   2.311   2.750   0.999 -0.9880 -2.2029  1.0618
  350TIP3    H222686   2.181   2.700   0.941 -0.5602 -1.5268 -0.5227
  351TIP3   OH222687   0.465   3.189   0.027 -0.6336  0.5945  0.4241
  351TIP3    H122688   0.489   3.116   0.085  1.5553 -0.0318 -1.1528
  351TIP3    H222689   0.473   3.267   0.082 -1.2856 -0.1690  1.6639
  352TIP3   OH222690   1.834   5.307   7.143 -0.3545 -0.0368 -0.0212
  352TIP3    H122691   1.863   5.216   7.138 -1.2342 -0.2859 -1.4430
  352TIP3    H222692   1.777   5.310   7.220 -0.0243 -0.6031  0.2496
  353TIP3   OH222693   0.725   5.000   6.633 -0.2229  0.3390  0.1694
  353TIP3    H122694   0.663   5.010   6.560 -0.8260  0.5192  0.6997
  353TIP3    H222695   0.783   5.076   6.627  0.8239 -0.5161 -1.1445
  354TIP3   OH222696   6.645   0.056   1.763  0.1841 -0.1012  0.1140
  354TIP3    H122697   6.616   0.029   1.676 -0.5538  1.4050 -0.1347
  354TIP3    H222698   6.564   0.063   1.814  0.4970  0.1576  0.5821
  355TIP3   OH222699   5.969   2.698   0.988  0.5666  0.4201 -0.3325
  355TIP3    H122700   6.001   2.782   0.954 -0.5501  0.7170 -0.7029
  355TIP3    H222701   5.874   2.710   0.995  0.4044 -0.7763 -0.2656
  356TIP3   OH222702   5.683   0.732   0.444  0.5043  0.2735 -0.0905
  356TIP3    H122703   5.670   0.826   0.431 -0.5434  0.3730  1.2979
  356TIP3    H222704   5.674   0.720   0.539  0.8406 -1.1979 -0.2189
  357TIP3   OH222705   0.003   0.840   0.728  0.1619  0.1967  0.0248
  357TIP3    H122706  -0.023   0.931   0.713 -1.4410 -0.3337 -0.6350
  357TIP3    H222707  -0.038   0.791   0.656  1.7956 -0.9430 -0.2046
  358TIP3   OH222708   1.669   0.130   8.562 -0.2690  0.1147  0.0981
  358TIP3    H122709   1.683   0.128   8.657  0.6305  0.3732 -0.0166
  358TIP3    H222710   1.758   0.128   8.525 -0.6402 -0.8779 -0.7570
  359TIP3   OH222711   2.979   1.888   7.650  0.0529 -0.1293  0.0837
  359TIP3    H122712   3.017   1.855   7.569 -0.0783  0.2899 -0.1495
  359TIP3    H222713   3.030   1.967   7.670  0.6103 -0.6646  0.8374
  360TIP3   OH222714   3.753   5.110   2.544  0.2539 -0.7625  0.0632
  360TIP3    H122715   3.698   5.086   2.619  0.0336 -0.3270  0.0417
  360TIP3    H222716   3.832   5.057   2.555  0.4737 -0.2714  0.9337
  361TIP3   OH222717   3.230   4.312   1.512 -0.1175  0.3101  0.0693
  361TIP3    H122718   3.280   4.269   1.582  1.7058 -0.4019 -1.5620
  361TIP3    H222719   3.182   4.240   1.470  0.1660  0.4282 -0.4693
  362TIP3   OH222720   4.904   1.186   7.456  0.0458 -0.2135  0.1866
  362TIP3    H122721   4.937   1.163   7.369 -0.6385 -0.5384  0.0072
  362TIP3    H222722   4.809   1.173   7.450  0.0633 -0.9251  1.1808
  363TIP3   OH222723   2.205   6.749   7.507  0.3165  0.5449 -0.2940
  363TIP3    H122724   2.236   6.837   7.484  0.0039  0.9199  0.6444
  363TIP3    H222725   2.248   6.729   7.590 -2.1744  1.2800  1.2985
  364TIP3   OH222726   4.291   3.694   0.585  0.2524 -0.4374 -0.4798
  364TIP3    H122727   4.267   3.619   0.532 -0.0749  0.2899 -1.3971
  364TIP3    H222728   4.291   3.768   0.524  0.4360  0.3325  0.4152
  365TIP3   OH222729   0.104   4.185   1.495 -0.0570  0.2691 -0.3698
  365TIP3    H122730   0.063   4.213   1.413 -1.6440 -1.9759 -0.4222
  365TIP3    H222731   0.038   4.200   1.562  1.4163  2.5826  0.6751
  366TIP3   OH222732   2.663   1.631   0.551  0.2412  0.3593  0.0654
  366TIP3    H122733   2.675   1.679   0.633 -1.1764 -0.8569  1.0222
  366TIP3    H222734   2.569   1.620   0.543  0.4905 -2.0936 -0.1812
  367TIP3   OH222735   6.023   0.613   8.353  0.7290  0.4048  0.6855
  367TIP3    H122736   6.076   0.617   8.274 -1.5875 -0.4978 -1.0249
  367TIP3    H222737   5.936   0.589   8.323  0.2107 -2.2175  3.7404
  368TIP3   OH222738   3.446   6.702   0.866 -0.2853  0.1978  0.0642
  368TIP3    H122739   3.369   6.708   0.922 -0.8529 -0.4837 -0.6162
  368TIP3    H222740   3.500   6.777   0.889 -1.7885  1.4567 -0.4042
  369TIP3   OH222741   3.782   3.728   7.209  0.1407 -0.5221 -0.3778
  369TIP3    H122742   3.867   3.700   7.175  0.6303  0.2247  0.2173
  369TIP3    H222743   3.800   3.807   7.259 -0.6706 -1.2030  1.0554
  370TIP3   OH222744   0.908   2.484   1.743 -0.2724 -0.2144 -0.6709
  370TIP3    H122745   0.868   2.511   1.661  1.7730 -1.1035 -2.0553
  370TIP3    H222746   0.942   2.396   1.725  3.1422  0.8046 -0.0383
  371TIP3   OH222747   2.291   6.319   0.327  0.0076 -0.1965 -0.1152
  371TIP3    H122748   2.259   6.279   0.247  1.0446  0.8776 -1.1143
  371TIP3    H222749   2.347   6.252   0.367 -1.3226 -1.1032  0.2671
  372TIP3   OH222750   2.486   6.536   8.731  0.6435 -0.6665  0.4098
  372TIP3    H122751   2.494   6.517   8.637  0.2086 -1.4574  0.5323
  372TIP3    H222752   2.443   6.622   8.734  2.2275  0.2034 -0.1357
  373TIP3   OH222753   6.110   4.900   6.640  0.4326 -0.2938  0.4731
  373TIP3    H122754   6.023   4.894   6.602  0.0574  1.5115  0.9351
  373TIP3    H222755   6.096   4.894   6.735  0.7142  0.6116  0.5844
  374TIP3   OH222756   0.293   3.721   0.797  0.1904  0.7861  0.4699
  374TIP3    H122757   0.330   3.676   0.873  1.5749  1.2000  0.0627
  374TIP3    H222758   0.326   3.672   0.722 -0.7222  0.7141  0.1020
  375TIP3   OH222759   5.407   1.888   1.568 -0.2046 -0.4048  0.6627
  375TIP3    H122760   5.343   1.819   1.583  0.1036 -1.3807 -1.9597
  375TIP3    H222761   5.363   1.968   1.596 -1.9154 -1.2520  0.5105
  376TIP3   OH222762   2.519   1.104   8.019 -0.2303 -0.1956  0.0309
  376TIP3    H122763   2.538   1.130   8.109 -1.4193  0.2658  0.1692
  376TIP3    H222764   2.466   1.024   8.027 -0.0937 -0.3179 -0.2669
  377TIP3   OH222765   6.111   0.102   1.807 -0.1459  0.0096 -0.1008
  377TIP3    H122766   6.131   0.009   1.802  1.7020  0.3878 -0.4558
  377TIP3    H222767   6.016   0.106   1.817 -0.1175 -1.9355  1.3791
  378TIP3   OH222768   5.216   2.632   8.037 -0.1795 -0.5715  0.3119
  378TIP3    H122769   5.216   2.578   7.958  1.2123  1.2010 -0.9853
  378TIP3    H222770   5.298   2.681   8.032  0.7944 -1.5562  3.7340
  379TIP3   OH222771   5.105   3.299   7.181 -0.7256  0.2690 -0.6579
  379TIP3    H122772   5.181   3.352   7.157 -1.2794  1.6171  0.4009
  379TIP3    H222773   5.095   3.237   7.109  2.3315 -1.0827 -0.0643
  380TIP3   OH222774   6.133   0.645   8.099 -0.4730  0.2735 -0.1682
  380TIP3    H122775   6.180   0.613   8.021  0.4089  2.5062 -0.6294
  380TIP3    H222776   6.095   0.728   8.071 -1.6956  0.2332  1.2847
  381TIP3   OH222777   3.051   1.644   8.538 -0.1438 -0.0644  0.2846
  381TIP3    H122778   2.996   1.632   8.615 -0.9961  1.3510 -0.0713
  381TIP3    H222779   3.088   1.732   8.548 -0.2837  0.1527 -0.9131
  382TIP3   OH222780   6.671   5.093   1.181  0.0180 -0.4908 -0.0776
  382TIP3    H122781   6.656   5.090   1.275 -0.0943 -0.9653 -0.1105
  382TIP3    H222782   6.584   5.083   1.142  0.0406 -0.1109 -0.2309
  383TIP3   OH222783   4.201   2.942   1.342 -0.0083 -1.1523  0.1981
  383TIP3    H122784   4.177   3.019   1.394 -0.9585 -0.7534 -0.7762
  383TIP3    H222785   4.216   2.873   1.406 -1.1163 -0.6752  1.0058
  384TIP3   OH222786   0.785   3.872   8.669 -0.0617 -0.2764 -0.1227
  384TIP3    H122787   0.702   3.832   8.644  0.3631 -2.3506  1.4885
  384TIP3    H222788   0.772   3.899   8.760  0.1724  2.0126 -0.7106
  385TIP3   OH222789   2.442   3.463   8.790 -0.1105 -0.2283 -0.4332
  385TIP3    H122790   2.449   3.416   8.874  0.4016 -1.6693 -1.2512
  385TIP3    H222791   2.532   3.474   8.762 -0.1975  1.6395 -0.0918
  386TIP3   OH222792   4.633   0.495   1.260 -0.3338  0.0336 -0.4276
  386TIP3    H122793   4.604   0.552   1.331  1.3813  1.5295 -0.8439
  386TIP3    H222794   4.620   0.406   1.294  1.2988  0.6693  2.2201
  387TIP3   OH222795   0.021   4.049   1.178 -0.5854 -0.6878 -0.0156
  387TIP3    H122796   0.067   4.039   1.095 -0.8897 -1.0076 -0.1474
  387TIP3    H222797   0.086   4.087   1.237  0.3456 -2.5772  0.2563
  388TIP3   OH222798   4.208   5.622   6.726  0.2104 -0.1346 -0.7929
  388TIP3    H122799   4.181   5.709   6.697  1.5810  0.2859 -0.8505
  388TIP3    H222800   4.286   5.602   6.674 -0.6613 -1.8554 -1.5281
  389TIP3   OH222801   3.522   2.989   7.291  0.1809  0.0474 -0.3147
  389TIP3    H122802   3.558   3.077   7.279 -1.4458  0.7879 -0.0947
  389TIP3    H222803   3.446   2.986   7.232  0.2581 -1.2503 -0.3857
  390TIP3   OH222804   5.119   2.538   0.290  0.2112 -0.0769  0.2391
  390TIP3    H122805   5.058   2.467   0.268  2.6250 -2.1981 -0.1161
  390TIP3    H222806   5.153   2.567   0.205 -0.0906  0.9031  0.4450
  391TIP3   OH222807   5.310   3.706   2.264  0.1365  0.0791  0.0230
  391TIP3    H122808   5.261   3.662   2.334  0.8817 -1.0128 -0.1227
  391TIP3    H222809   5.354   3.636   2.218  2.2644  1.0483  0.4615
  392TIP3   OH222810   1.470   3.481   2.246  0.4071  0.3319 -0.1901
  392TIP3    H122811   1.497   3.392   2.223  0.7918 -0.0543  1.6175
  392TIP3    H222812   1.503   3.494   2.335 -0.3473  1.9962 -0.1173
  393TIP3   OH222813   4.478   2.823   7.270  0.0383  0.0112  0.0053
  393TIP3    H122814   4.536   2.819   7.346  0.6163  1.0592 -0.3624
  393TIP3    H222815   4.410   2.885   7.295 -0.4370 -0.5509  0.1083
  394TIP3   OH222816   4.578   1.891   8.306 -0.0438 -0.4798 -0.1601
  394TIP3    H122817   4.666   1.925   8.324  0.7576 -1.6868 -1.6189
  394TIP3    H222818   4.548   1.859   8.391  0.9364 -0.0915  0.3603
  395TIP3   OH222819   0.608   0.876   8.591  0.0626  0.3477  0.0368
  395TIP3    H122820   0.518   0.871   8.560  0.1860 -0.3944 -0.2133
  395TIP3    H222821   0.646   0.791   8.570  0.8600  0.6922  0.0241
  396TIP3   OH222822   0.027   5.602   8.549  0.5689  0.3516 -0.2715
  396TIP3    H122823   0.055   5.669   8.486  1.8747  1.6972  1.6413
  396TIP3    H222824   0.087   5.612   8.623  2.0837 -4.1684 -0.5614
  397TIP3   OH222825   4.058   1.787   2.210 -0.4829 -0.0955  0.1355
  397TIP3    H122826   3.996   1.757   2.144  0.8777 -0.5985 -0.9682
  397TIP3    H222827   4.142   1.751   2.182  0.0736 -0.8069  2.4530
  398TIP3   OH222828   2.308   2.036   0.301 -0.4940 -0.1117  0.4863
  398TIP3    H122829   2.281   1.944   0.297  0.3837 -0.3274 -1.7657
  398TIP3    H222830   2.227   2.084   0.314 -1.2365 -1.0802 -0.4135
  399TIP3   OH222831   0.454   2.386   8.023  0.4185 -0.0321  0.4339
  399TIP3    H122832   0.499   2.344   8.096 -1.0419 -2.5193 -0.0068
  399TIP3    H222833   0.483   2.339   7.945 -0.2486  0.6618 -0.2612
  400TIP3   OH222834   2.507   3.325   0.675 -0.1104 -0.6915 -0.7659
  400TIP3    H122835   2.581   3.315   0.735  1.2499  1.6317 -1.9131
  400TIP3    H222836   2.440   3.369   0.726  0.6954  0.4440 -0.6525
  401TIP3   OH222837   2.024   0.274   0.325  0.0939  0.8338 -0.7802
  401TIP3    H122838   1.951   0.255   0.384  0.9865  1.2797  0.5166
  401TIP3    H222839   2.002   0.229   0.244 -0.6366 -0.7631  0.2631
  402TIP3   OH222840   1.419   2.903   1.922 -0.4335 -0.1620  0.0277
  402TIP3    H122841   1.386   2.852   1.849 -0.4169 -0.6395  0.3539
  402TIP3    H222842   1.477   2.843   1.970  0.3092  0.4246 -0.1018
  403TIP3   OH222843   4.281   4.419   1.977 -0.1942  0.0100  0.0370
  403TIP3    H122844   4.292   4.402   1.883 -0.4641  0.9249 -0.1739
  403TIP3    H222845   4.339   4.356   2.020 -0.2331 -0.5657 -0.7347
  404TIP3   OH222846   1.720   1.340   0.643  0.7389  0.8508  0.0598
  404TIP3    H122847   1.723   1.391   0.723 -0.1993  1.1300 -0.0766
  404TIP3    H222848   1.634   1.359   0.605  1.8639  2.2251 -1.9867
  405TIP3   OH222849   3.335   1.531   1.438  0.1104 -0.1570 -0.2065
  405TIP3    H122850   3.363   1.478   1.513  3.3690  0.5336 -0.7854
  405TIP3    H222851   3.342   1.472   1.363 -1.0095 -0.2227 -0.2771
  406TIP3   OH222852   1.018   3.854   0.729  0.4129  0.2281 -0.3440
  406TIP3    H122853   1.107   3.860   0.763  0.2845 -1.0376  0.2921
  406TIP3    H222854   0.962   3.872   0.804  0.1264  0.5859 -0.6407
  407TIP3   OH222855   1.778   0.630   0.625 -0.2373 -0.0289 -0.3707
  407TIP3    H122856   1.733   0.545   0.623 -1.3414  0.5038  0.6202
  407TIP3    H222857   1.727   0.686   0.567 -0.5471  0.4260  0.3269
  408TIP3   OH222858   4.085   1.785   0.385  0.4132 -0.1621  0.4619
  408TIP3    H122859   4.086   1.767   0.291 -1.2504 -0.0170  0.3962
  408TIP3    H222860   4.001   1.827   0.400  0.2589 -1.0259  2.1880
  409TIP3   OH222861   2.537   3.784   8.105  0.3004  0.4495  0.0060
  409TIP3    H122862   2.539   3.688   8.103 -3.1897  0.2725 -0.7808
  409TIP3    H222863   2.565   3.810   8.017 -0.6868  0.0231 -0.4491
  410TIP3   OH222864   0.340   1.830   0.953  0.4010 -0.3035 -0.3200
  410TIP3    H122865   0.302   1.865   0.872  1.0772  1.4035  0.0630
  410TIP3    H222866   0.265   1.805   1.007 -0.0601 -1.4305 -1.4235
  411TIP3   OH222867   0.153   5.342   8.120 -0.3756 -0.2715  0.3109
  411TIP3    H122868   0.192   5.299   8.044 -0.3864  0.5909 -0.2026
  411TIP3    H222869   0.092   5.278   8.156  0.6713 -1.2190  0.4455
  412TIP3   OH222870   5.028   3.960   1.158  0.0545 -0.0148  0.2993
  412TIP3    H122871   5.099   3.975   1.096  2.0684  1.2334  2.6847
  412TIP3    H222872   5.012   3.866   1.155  0.6273 -0.0867 -1.4745
  413TIP3   OH222873   2.378   0.419   8.384 -0.1865  0.3997  0.6386
  413TIP3    H122874   2.420   0.333   8.384 -0.7872  0.0657 -1.0633
  413TIP3    H222875   2.306   0.410   8.321  0.3926  2.4301 -0.3974
  414TIP3   OH222876   1.470   3.728   1.725  0.1794 -0.3961  1.0824
  414TIP3    H122877   1.422   3.746   1.644  0.6571  2.5556  1.3388
  414TIP3    H222878   1.512   3.644   1.710 -1.9471 -1.2355 -0.6470
  415TIP3   OH222879   2.387   1.225   0.934 -0.7567 -0.1719  0.3496
  415TIP3    H122880   2.437   1.169   0.874  0.1373  1.0944 -0.1250
  415TIP3    H222881   2.385   1.310   0.891  1.3102  1.2489  2.8129
  416TIP3   OH222882   2.616   5.500   1.733  0.2487 -0.3094  0.1891
  416TIP3    H122883   2.551   5.560   1.697  0.2861 -0.9439 -0.9847
  416TIP3    H222884   2.688   5.557   1.763  0.0747  0.2614 -0.4579
  417TIP3   OH222885   6.196   2.016   8.078 -1.2720 -0.2899  0.0771
  417TIP3    H122886   6.166   2.032   8.168 -0.7400 -0.6345  0.3229
  417TIP3    H222887   6.253   1.939   8.086 -2.5372 -1.3616 -0.8167
  418TIP3   OH222888   5.213   5.544   0.209 -0.1344 -0.0151 -0.3871
  418TIP3    H122889   5.121   5.532   0.232 -0.3067  0.7648 -0.6209
  418TIP3    H222890   5.219   5.636   0.182  1.1531  0.5502  1.6345
  419TIP3   OH222891   1.406   1.965   1.741  0.0034  0.1134 -0.2792
  419TIP3    H122892   1.481   1.925   1.786  0.2228  0.4345 -0.3536
  419TIP3    H222893   1.428   1.961   1.648  0.6700  1.6451 -0.2188
  420TIP3   OH222894   5.820   1.000   0.677  0.0410  0.3595 -0.0590
  420TIP3    H122895   5.908   1.037   0.667  0.3284 -0.2010  0.3300
  420TIP3    H222896   5.777   1.060   0.738  0.0992  0.7153 -0.3587
  421TIP3   OH222897   2.027   4.560   1.866  0.5440 -0.0309 -0.0912
  421TIP3    H122898   1.933   4.549   1.882  1.0737 -1.5363  2.4964
  421TIP3    H222899   2.060   4.600   1.946  1.9725  1.8308 -1.5166
  422TIP3   OH222900   3.015   2.655   0.025 -0.5491 -0.0981  0.0121
  422TIP3    H122901   2.948   2.636   0.091  1.0355 -3.0680  0.9838
  422TIP3    H222902   3.044   2.744   0.044 -1.8302 -0.0023  1.7472
  423TIP3   OH222903   0.840   1.364   8.102  0.3721  0.5478  0.1055
  423TIP3    H122904   0.892   1.423   8.156 -1.7654  2.1966  0.4568
  423TIP3    H222905   0.892   1.352   8.022  0.8133  3.0555 -0.0376
  424TIP3   OH222906   5.572   2.553   1.021  0.0866  0.0414 -0.0809
  424TIP3    H122907   5.504   2.496   1.058  0.2765 -0.0588  0.1165
  424TIP3    H222908   5.644   2.493   1.001 -0.2332  0.0036 -1.1581
  425TIP3   OH222909   1.978   4.570   0.367  0.0187  0.0209  0.2471
  425TIP3    H122910   2.070   4.596   0.361  0.0872  0.1074  1.4627
  425TIP3    H222911   1.980   4.476   0.385 -0.0799  0.2482  1.5363
  426TIP3   OH222912   4.502   6.493   7.371 -0.4583  0.1822 -0.4963
  426TIP3    H122913   4.408   6.476   7.369 -0.0946 -2.2983 -2.3053
  426TIP3    H222914   4.517   6.555   7.299 -0.5281 -1.2040 -1.7689
  427TIP3   OH222915   5.389   2.610   1.972 -0.1268 -0.3634  0.4262
  427TIP3    H122916   5.325   2.539   1.974 -0.5645 -0.0339 -0.7336
  427TIP3    H222917   5.349   2.676   1.914  0.1235  0.9595  1.7039
  428TIP3   OH222918   6.291   3.238   0.953  0.2982 -0.2829 -0.6565
  428TIP3    H122919   6.247   3.213   0.872  0.3853 -0.1844 -0.7344
  428TIP3    H222920   6.383   3.250   0.927  0.6702 -1.8936 -0.2236
  429TIP3   OH222921   6.154   4.488   0.616 -0.3366 -0.2214  0.3850
  429TIP3    H122922   6.167   4.394   0.615  2.3241 -0.0771 -3.8371
  429TIP3    H222923   6.237   4.524   0.648  0.4102  0.5709 -2.1690
  430TIP3   OH222924   2.379   3.800   1.853 -0.2726  0.0128 -0.2733
  430TIP3    H122925   2.330   3.720   1.870  0.6732  0.0498  3.4389
  430TIP3    H222926   2.469   3.770   1.837 -0.1135  0.2755  0.1176
  431TIP3   OH222927   1.589   4.618   8.371  0.8904 -0.7144  0.1437
  431TIP3    H122928   1.505   4.577   8.392  0.2992  0.6251  0.5379
  431TIP3    H222929   1.618   4.574   8.290 -1.7940  0.9188 -1.8768
  432TIP3   OH222930   4.910   4.357   8.168 -0.1718 -0.1823 -0.2873
  432TIP3    H122931   4.911   4.413   8.090 -1.2280  1.2488  0.6783
  432TIP3    H222932   4.952   4.276   8.140 -1.7033 -0.2272 -2.7276
  433TIP3   OH222933   4.890   1.820   7.299  0.5500 -0.1328  0.1405
  433TIP3    H122934   4.934   1.796   7.217  0.5891 -1.1426  0.4465
  433TIP3    H222935   4.820   1.756   7.308 -1.0463  1.4479 -0.3358
  434TIP3   OH222936   4.358   3.283   8.731 -0.2562  0.1344 -0.0431
  434TIP3    H122937   4.391   3.234   8.806  1.9000 -0.0621 -1.0483
  434TIP3    H222938   4.283   3.233   8.700  0.0481 -0.8526  0.7877
  435TIP3   OH222939   5.809   6.681   0.952 -0.2525  0.0366  0.1866
  435TIP3    H122940   5.762   6.669   0.869 -0.4118 -0.4894  0.3503
  435TIP3    H222941   5.895   6.642   0.937 -0.0469  0.5218  0.0633
  436TIP3   OH222942   4.451   3.480   8.107  0.0976  0.0825 -0.4522
  436TIP3    H122943   4.430   3.387   8.097 -0.1403  0.2661 -1.9302
  436TIP3    H222944   4.375   3.517   8.150  1.3798 -0.8618  2.9871
  437TIP3   OH222945   2.520   2.911   2.264  0.3528  0.1416 -0.0364
  437TIP3    H122946   2.530   2.840   2.328  1.2326 -0.0217 -0.3530
  437TIP3    H222947   2.547   2.990   2.310 -0.0834  0.1955  0.1362
  438TIP3   OH222948   6.328   3.926   0.669  0.4091 -0.3089 -0.0857
  438TIP3    H122949   6.395   3.983   0.631  0.0608 -0.5834 -1.1632
  438TIP3    H222950   6.313   3.860   0.602 -2.7162  1.1421 -1.0167
  439TIP3   OH222951   2.573   6.049   6.623  0.2861 -0.0617  0.2947
  439TIP3    H122952   2.610   6.038   6.536  0.3628 -0.2990  0.3546
  439TIP3    H222953   2.480   6.065   6.608  0.1741 -0.7645  0.1900
  440TIP3   OH222954   5.491   3.216   7.803  0.0062  0.2222 -0.2093
  440TIP3    H122955   5.436   3.241   7.877 -0.4084 -2.4392  0.4879
  440TIP3    H222956   5.576   3.256   7.822 -0.4063  0.5384  1.1034
  441TIP3   OH222957   0.586   6.233   1.788  0.0271 -0.1100  0.1274
  441TIP3    H122958   0.665   6.191   1.754  0.4437  1.7943 -1.3951
  441TIP3    H222959   0.612   6.324   1.804 -1.1392 -0.0753  2.2907
  442TIP3   OH222960   2.887   0.068   6.619  0.1506 -0.2619  0.2043
  442TIP3    H122961   2.885  -0.015   6.572 -0.5961 -0.7718  1.1086
  442TIP3    H222962   2.817   0.061   6.684 -1.1492  1.7700 -0.8597
  443TIP3   OH222963   0.839   6.462   1.643 -0.4967 -0.1452 -0.1864
  443TIP3    H122964   0.809   6.476   1.553 -2.6960 -1.1150  0.3130
  443TIP3    H222965   0.908   6.526   1.656 -0.0305 -0.0593 -2.5987
  444TIP3   OH222966   1.095   3.277   8.786 -0.1305  0.0266 -0.3271
  444TIP3    H122967   1.151   3.270   8.864  0.8018 -1.7627 -1.0905
  444TIP3    H222968   1.009   3.247   8.815  0.3619 -1.2281 -0.1012
  445TIP3   OH222969   6.483   3.834   7.703 -0.1323 -0.4307  0.1381
  445TIP3    H122970   6.398   3.808   7.666  0.1851  0.3995 -1.2091
  445TIP3    H222971   6.463   3.913   7.753 -0.6837 -1.8929  2.4329
  446TIP3   OH222972   1.870   5.155   7.565  0.0499 -0.5553 -0.2347
  446TIP3    H122973   1.828   5.080   7.609  0.1151 -0.2357  0.3920
  446TIP3    H222974   1.926   5.193   7.633  0.9619 -0.6707 -0.9155
  447TIP3   OH222975   2.865   1.754   6.714  0.6726  0.3520  0.3313
  447TIP3    H122976   2.921   1.742   6.790 -0.3049  0.2938  1.0692
  447TIP3    H222977   2.907   1.824   6.664  2.3232 -0.8574 -0.0607
  448TIP3   OH222978   1.333   3.406   1.046 -0.4495 -0.0988  0.0998
  448TIP3    H122979   1.373   3.355   0.975 -0.3481 -1.5544  1.1538
  448TIP3    H222980   1.391   3.393   1.120 -0.5361  1.4445  0.4559
  449TIP3   OH222981   4.744   3.996   0.333 -0.4910 -0.1241  0.8243
  449TIP3    H122982   4.834   3.973   0.313  0.1246  0.5119  2.7035
  449TIP3    H222983   4.729   3.963   0.421 -2.3367 -0.8202  0.3071
  450TIP3   OH222984   3.820   0.379   7.565  0.1734 -0.0483  0.3853
  450TIP3    H122985   3.813   0.461   7.615  0.8438  1.3108 -1.6316
  450TIP3    H222986   3.776   0.397   7.482  0.0157 -1.8746  0.0324
  451TIP3   OH222987   1.151   1.720   0.240 -0.0880 -1.1967  0.2836
  451TIP3    H122988   1.064   1.749   0.212  1.0522  0.9726 -1.3140
  451TIP3    H222989   1.154   1.740   0.334 -1.1058 -0.7479  0.2380
  452TIP3   OH222990   5.927   1.382   1.135 -0.5751 -0.3172  0.1554
  452TIP3    H122991   5.953   1.308   1.080 -1.2956  1.3026 -2.5624
  452TIP3    H222992   5.843   1.355   1.172 -1.4814 -0.4286 -1.8514
  453TIP3   OH222993   4.334   4.142   8.545  0.2326 -0.5149  0.1929
  453TIP3    H122994   4.421   4.175   8.567 -0.4029  0.7401  0.9471
  453TIP3    H222995   4.277   4.181   8.611 -0.7876 -2.0434  0.2607
  454TIP3   OH222996   4.465   0.999   1.635  0.0881 -0.4151 -0.1113
  454TIP3    H122997   4.507   0.997   1.721  0.5847  1.5810 -0.2520
  454TIP3    H222998   4.443   1.092   1.621  0.3320 -0.6234 -2.2629
  455TIP3   OH222999   0.967   5.702   8.366 -0.5909 -0.3699  0.1021
  455TIP3    H123000   0.902   5.707   8.436 -1.0004  0.6553 -0.3326
  455TIP3    H223001   1.016   5.622   8.385 -1.0640 -0.4157  1.2324
  456TIP3   OH223002   4.244   6.093   8.589 -0.1726 -0.7204 -0.0805
  456TIP3    H123003   4.330   6.101   8.547  0.0078  1.4044  0.5677
  456TIP3    H223004   4.189   6.049   8.524  1.2941 -1.8085 -0.6416
  457TIP3   OH223005   3.994   0.912   7.835 -0.0644  0.7568  0.1115
  457TIP3    H123006   3.933   0.983   7.817  0.5023  1.6054  1.4414
  457TIP3    H223007   3.968   0.879   7.921  1.7396  1.5829  1.0194
  458TIP3   OH223008   0.748   1.267   0.398  0.4943 -0.1678  0.2992
  458TIP3    H123009   0.843   1.259   0.390  0.6165  0.8607  0.5334
  458TIP3    H223010   0.713   1.192   0.352  1.3799  0.4425 -1.4436
  459TIP3   OH223011   4.000   2.287   0.950 -0.4196  0.4828  0.4909
  459TIP3    H123012   3.981   2.343   0.875 -1.6221 -0.3182  0.1635
  459TIP3    H223013   3.915   2.275   0.992  0.2553  1.0742  2.1101
  460TIP3   OH223014   0.461   4.262   0.001  0.3386  0.0774  0.4185
  460TIP3    H123015   0.441   4.174   0.030  1.4880 -0.5509 -0.5938
  460TIP3    H223016   0.420   4.319   0.066 -0.0577 -1.1957  1.3174
  461TIP3   OH223017   2.028   0.020   1.430 -0.2696  0.0118 -0.1560
  461TIP3    H123018   2.021   0.059   1.343 -1.9749 -0.5887 -0.3305
  461TIP3    H223019   2.026   0.095   1.491 -0.2866  0.3569 -0.5787
  462TIP3   OH223020   0.754   1.988   7.467  0.4202 -0.7074 -0.1619
  462TIP3    H123021   0.717   2.021   7.385  0.7018  1.2443  0.4465
  462TIP3    H223022   0.844   2.019   7.467  0.7416 -1.5986  0.4244
  463TIP3   OH223023   1.038   0.043   0.281  0.5208  0.4097 -0.2103
  463TIP3    H123024   0.987   0.070   0.358  0.2289 -1.0709  0.1494
  463TIP3    H223025   1.111   0.104   0.278 -0.0220  1.1274  0.6404
  464TIP3   OH223026   4.293   3.234   1.933  0.6293 -0.0944  1.1097
  464TIP3    H123027   4.271   3.145   1.960 -1.4380  0.0246 -0.0027
  464TIP3    H223028   4.355   3.222   1.861  0.9749 -0.5916  1.4807
  465TIP3   OH223029   2.842   1.534   0.822  0.3947 -0.0746 -0.0208
  465TIP3    H123030   2.836   1.630   0.820  1.9843  0.0425 -1.5369
  465TIP3    H223031   2.843   1.513   0.916 -0.3897  1.3404  0.3436
  466TIP3   OH223032   6.173   6.751   7.322  0.0982 -0.0228 -0.1454
  466TIP3    H123033   6.112   6.724   7.390  2.6123 -0.3392  2.1485
  466TIP3    H223034   6.146   6.839   7.298 -1.7080 -0.4551  0.2095
  467TIP3   OH223035   4.329   6.730   0.602  0.4490 -0.0260  0.0785
  467TIP3    H123036   4.358   6.819   0.620  1.5433 -0.1826 -0.8340
  467TIP3    H223037   4.326   6.724   0.507  0.9844 -1.1529  0.1222
  468TIP3   OH223038   0.481   5.097   8.797  0.6529  0.1874  0.1631
  468TIP3    H123039   0.439   5.098   8.883  1.1118  1.2422  0.3845
  468TIP3    H223040   0.413   5.129   8.737  1.2264  2.3145  0.5851
  469TIP3   OH223041   0.976   1.440   8.848 -0.4235 -0.2591  0.1982
  469TIP3    H123042   0.978   1.378   8.775 -2.2425  0.2778 -0.3695
  469TIP3    H223043   0.976   1.526   8.806  1.7618  0.1736  0.9612
  470TIP3   OH223044   6.371   0.149   7.813  0.2864 -0.3945 -0.3267
  470TIP3    H123045   6.343   0.168   7.723 -2.0437 -1.1355  0.1640
  470TIP3    H223046   6.389   0.055   7.812  1.8784 -0.1148 -0.3673
  471TIP3   OH223047   4.750   2.062   2.281  0.0483  0.0669 -0.4216
  471TIP3    H123048   4.736   1.992   2.218 -0.3732 -1.1952  1.0249
  471TIP3    H223049   4.701   2.035   2.358  0.1035  1.8335  0.2814
  472TIP3   OH223050   3.232   5.440   8.879 -0.2584 -0.4167 -0.1135
  472TIP3    H123051   3.326   5.438   8.865 -0.1747  1.0303  0.1077
  472TIP3    H223052   3.216   5.368   8.940  0.7413 -0.5022  0.0697
  473TIP3   OH223053   1.968   5.715   0.764  0.0553 -0.3849  0.2320
  473TIP3    H123054   2.012   5.761   0.835  1.1190 -1.0497  0.0183
  473TIP3    H223055   1.997   5.760   0.685  0.0132 -0.5642  0.1158
  474TIP3   OH223056   4.197   4.216   0.435  0.4317  0.4086  0.0362
  474TIP3    H123057   4.256   4.248   0.366  0.8906 -1.3458 -0.4411
  474TIP3    H223058   4.116   4.194   0.390  0.3958  0.1621  0.2174
  475TIP3   OH223059   1.963   3.004   6.928  0.5167 -0.2919 -0.3189
  475TIP3    H123060   2.018   3.017   6.850  0.8294  2.1527  0.2036
  475TIP3    H223061   1.874   3.012   6.896  0.6651  2.0713 -0.3173
  476TIP3   OH223062   4.090   1.208   1.628  0.4084  0.5349  0.3750
  476TIP3    H123063   4.052   1.170   1.548  0.1103  0.9573  0.3120
  476TIP3    H223064   4.029   1.182   1.697 -0.3264  1.6924  0.1905
  477TIP3   OH223065   2.057   5.263   1.493 -0.0959 -0.1975 -0.0681
  477TIP3    H123066   2.082   5.178   1.528 -0.6443  0.0198  0.8476
  477TIP3    H223067   1.999   5.243   1.420 -0.9346 -0.5884  0.7006
  478TIP3   OH223068   5.565   1.306   8.386  0.2086  0.3374  0.1449
  478TIP3    H123069   5.599   1.227   8.429 -0.9037  0.1705  0.7594
  478TIP3    H223070   5.472   1.307   8.408 -0.4268  0.2605 -2.2266
  479TIP3   OH223071   0.635   3.784   0.523 -0.3232  0.1547  0.0844
  479TIP3    H123072   0.560   3.844   0.524 -0.1179  0.4154 -0.1292
  479TIP3    H223073   0.643   3.755   0.614 -1.0146 -0.2909  0.0102
  480TIP3   OH223074   3.898   4.122   0.658  0.1689  0.3447 -0.2263
  480TIP3    H123075   3.881   4.157   0.746 -1.5425  1.9625 -1.1218
  480TIP3    H223076   3.911   4.200   0.604  2.4652 -0.6494 -1.2308
  481TIP3   OH223077   1.447   5.355   2.000 -0.6969 -0.0482  0.1553
  481TIP3    H123078   1.373   5.414   1.983 -1.7946 -1.5281 -0.3286
  481TIP3    H223079   1.467   5.316   1.915 -0.5488 -1.0012  0.6146
  482TIP3   OH223080   4.829   0.911   1.406 -0.6268  0.0304  0.1554
  482TIP3    H123081   4.762   0.879   1.345  0.0099 -1.1793  0.0694
  482TIP3    H223082   4.806   0.869   1.490 -0.1877 -0.1142  0.2051
  483TIP3   OH223083   4.597   2.718   8.178  0.6250 -0.3459  0.2487
  483TIP3    H123084   4.633   2.632   8.157 -0.8785 -0.5159 -2.0442
  483TIP3    H223085   4.517   2.699   8.228 -0.4189 -0.4059 -1.3803
  484TIP3   OH223086   4.655   3.957   1.375 -0.1327  0.2562 -0.0130
  484TIP3    H123087   4.647   4.051   1.359  0.4808  0.0785 -1.5309
  484TIP3    H223088   4.706   3.924   1.300 -0.0505 -1.2289  0.6628
  485TIP3   OH223089   5.892   0.432   7.154  0.1468  0.0691 -0.0733
  485TIP3    H123090   5.903   0.345   7.115 -0.5199 -0.0070 -0.1062
  485TIP3    H223091   5.880   0.491   7.079 -0.2169  0.0615 -0.0253
  486TIP3   OH223092   4.678   6.530   0.480 -0.2229 -0.1416  0.2222
  486TIP3    H123093   4.750   6.489   0.430 -0.8174 -1.3664  0.3295
  486TIP3    H223094   4.613   6.552   0.413  0.2278  0.9791  0.1241
  487TIP3   OH223095   5.609   2.218   8.590 -0.4687 -0.2083  0.5584
  487TIP3    H123096   5.543   2.181   8.532  1.2978 -2.3563 -0.2270
  487TIP3    H223097   5.650   2.287   8.539 -0.7663 -0.2099  0.3108
  488TIP3   OH223098   1.935   1.262   1.295  0.4258  0.1935 -0.1982
  488TIP3    H123099   1.998   1.211   1.244  0.8692  0.6664 -0.1335
  488TIP3    H223100   1.850   1.238   1.259  0.6216 -0.6534 -0.1139
  489TIP3   OH223101   1.371   3.854   0.297 -0.4916  0.1602 -0.2644
  489TIP3    H123102   1.434   3.782   0.296 -1.3021 -0.6134  1.2578
  489TIP3    H223103   1.421   3.929   0.331 -0.1748 -0.2395  0.1714
  490TIP3   OH223104   6.262   2.173   7.053 -0.4158  0.8109  0.0688
  490TIP3    H123105   6.210   2.213   6.983 -0.1520  1.7404  0.3752
  490TIP3    H223106   6.271   2.082   7.028 -2.3943  0.5593  0.1362
  491TIP3   OH223107   1.193   1.954   0.523 -0.2537  0.2429  0.1043
  491TIP3    H123108   1.187   1.865   0.558 -0.1550 -0.5465 -1.8014
  491TIP3    H223109   1.279   1.957   0.481 -0.5521  1.0111 -0.4694
  492TIP3   OH223110   3.553   5.751   8.379  0.1842  0.0899 -0.4874
  492TIP3    H123111   3.543   5.826   8.438  1.2940 -1.8015  2.3118
  492TIP3    H223112   3.647   5.737   8.374 -0.0218 -1.4056 -0.5532
  493TIP3   OH223113   5.534   0.233   0.294 -0.0648 -0.2004 -0.7357
  493TIP3    H123114   5.576   0.319   0.288 -0.8523  0.4286  1.7724
  493TIP3    H223115   5.546   0.206   0.385 -4.4998 -0.2057  0.0698
  494TIP3   OH223116   3.186   2.603   8.587 -0.8377  0.1271 -0.0449
  494TIP3    H123117   3.211   2.511   8.597  2.0067  0.9346  1.3562
  494TIP3    H223118   3.269   2.651   8.583 -2.2103  2.6308 -1.3140
  495TIP3   OH223119   0.925   4.221   8.246  0.1223  0.2131  0.3955
  495TIP3    H123120   0.899   4.132   8.272  0.5568 -0.0519 -0.0782
  495TIP3    H223121   0.913   4.223   8.151 -0.0070  0.7026  0.4213
  496TIP3   OH223122   1.306   2.967   6.641 -0.6075  0.5802 -0.1394
  496TIP3    H123123   1.362   2.959   6.718 -1.7652  0.9292  0.7675
  496TIP3    H223124   1.273   2.878   6.626 -0.3445  0.5031 -0.2738
  497TIP3   OH223125   5.124   5.683   0.907 -0.1426  0.1000 -0.7291
  497TIP3    H123126   5.040   5.707   0.867  0.4533 -1.2992 -3.0110
  497TIP3    H223127   5.135   5.590   0.885  2.6654  0.5922 -1.8564
  498TIP3   OH223128   1.472   1.424   0.904  0.3544  0.1706  0.2953
  498TIP3    H123129   1.565   1.425   0.883 -0.0965  0.8051 -1.8162
  498TIP3    H223130   1.453   1.331   0.920  1.0600 -0.1480 -0.6168
  499TIP3   OH223131   3.016   4.408   2.731  0.1955  0.0507 -0.2132
  499TIP3    H123132   3.057   4.355   2.663 -1.7706  0.8716 -2.1720
  499TIP3    H223133   3.014   4.496   2.694 -2.7394  0.1598 -0.0502
  500TIP3   OH223134   2.746   0.619   7.110  0.3774  0.1797  0.1046
  500TIP3    H123135   2.832   0.582   7.128  1.3790  2.2996  0.0043
  500TIP3    H223136   2.720   0.581   7.026  1.3428 -0.2772  0.0042
  501TIP3   OH223137   2.085   2.930   7.294 -0.4146 -0.1761 -0.0703
  501TIP3    H123138   2.087   2.850   7.345  2.2370  1.7895  3.2963
  501TIP3    H223139   2.005   2.975   7.322  0.5821  0.4899  1.8455
  502TIP3   OH223140   6.318   6.080   2.413  0.3465 -0.2100  0.0771
  502TIP3    H123141   6.253   6.126   2.361  2.3847  0.2368 -2.2790
  502TIP3    H223142   6.349   6.145   2.476  0.0530  0.2710 -0.2691
  503TIP3   OH223143   4.918   3.318   7.667 -0.0598  0.4351  0.6478
  503TIP3    H123144   4.982   3.306   7.738  0.9959 -0.1552 -0.3750
  503TIP3    H223145   4.871   3.398   7.691  0.6076  0.5213  1.7605
  504TIP3   OH223146   0.712   0.948   1.488  0.3626  0.0363  0.2387
  504TIP3    H123147   0.761   0.899   1.421  0.9757 -2.2976  2.2484
  504TIP3    H223148   0.777   1.005   1.528  0.3949  0.1503  0.0282
  505TIP3   OH223149   1.767   6.821   0.903  0.1565  0.0646  0.3440
  505TIP3    H123150   1.745   6.748   0.961  1.1151  0.0510  0.6982
  505TIP3    H223151   1.791   6.892   0.962  0.2172  0.3539 -0.0245
  506TIP3   OH223152   4.114   0.218   7.528  0.2475 -0.7056  0.3413
  506TIP3    H123153   4.095   0.128   7.503 -0.6247 -0.5113  0.2717
  506TIP3    H223154   4.100   0.221   7.622  1.6335 -0.9661  0.5776
  507TIP3   OH223155   0.046   0.104   0.203  0.6791 -0.4337  0.1777
  507TIP3    H123156   0.013   0.017   0.223 -0.5358 -0.0326 -0.0221
  507TIP3    H223157   0.024   0.157   0.279 -1.5332  0.4458 -0.9702
  508TIP3   OH223158   0.001   2.195   7.607  0.3320 -0.4003 -0.3701
  508TIP3    H123159  -0.028   2.107   7.587  2.3882 -1.2882  0.2373
  508TIP3    H223160   0.058   2.219   7.533  1.1594 -0.3056  0.2778
  509TIP3   OH223161   6.598   2.317   8.265  0.2921  0.6226 -0.8387
  509TIP3    H123162   6.516   2.342   8.309  0.3013  1.0248 -1.0422
  509TIP3    H223163   6.624   2.396   8.218  0.1987  0.1449 -1.6994
  510TIP3   OH223164   5.046   4.499   8.543  0.0654  0.0140 -0.2766
  510TIP3    H123165   4.970   4.555   8.558 -0.4690 -0.9002  0.5391
  510TIP3    H223166   5.009   4.417   8.509  0.5821 -0.7655  0.9617
  511TIP3   OH223167   2.574   3.973   0.051  0.0809 -0.7566  0.1789
  511TIP3    H123168   2.569   4.055   0.101 -1.5880 -1.1950  0.7781
  511TIP3    H223169   2.651   3.984  -0.005  2.2612 -0.3493  3.0090
  512TIP3   OH223170   4.603   3.673   8.234 -0.3702 -0.0500  0.1677
  512TIP3    H123171   4.551   3.611   8.183  0.0399 -1.4709  1.3923
  512TIP3    H223172   4.544   3.703   8.303 -0.5579  0.9310 -0.4037
  513TIP3   OH223173   2.107   4.883   1.302 -0.0004  0.4976 -0.5969
  513TIP3    H123174   2.057   4.805   1.277 -0.4901 -0.4028  2.6092
  513TIP3    H223175   2.192   4.848   1.329 -0.6245  0.7551  2.0344
  514TIP3   OH223176   6.212   4.676   7.582 -0.1839 -0.4984 -0.4912
  514TIP3    H123177   6.268   4.648   7.654 -0.8998 -2.1808 -0.5629
  514TIP3    H223178   6.271   4.681   7.507  0.0148 -1.6374 -0.4255
  515TIP3   OH223179   5.504   1.576   8.458  0.0990  0.4034  0.5494
  515TIP3    H123180   5.551   1.541   8.382  0.7897 -0.7073  1.4753
  515TIP3    H223181   5.448   1.644   8.421  0.5391 -0.0056 -0.9414
  516TIP3   OH223182   2.246   6.582   1.071 -0.1135 -0.0943 -0.4678
  516TIP3    H123183   2.209   6.602   0.985  1.4426 -1.1831 -1.4450
  516TIP3    H223184   2.338   6.564   1.054  0.3056 -0.0560  1.4920
  517TIP3   OH223185   5.603   1.251   6.895 -0.5099 -0.6298  0.8947
  517TIP3    H123186   5.549   1.261   6.974  0.4433 -1.9622  1.7545
  517TIP3    H223187   5.616   1.340   6.864 -1.4271 -0.1238  1.8770
  518TIP3   OH223188   5.454   5.512   7.326  0.1712 -0.0986  0.0147
  518TIP3    H123189   5.542   5.478   7.340  1.1006  1.5994 -1.2954
  518TIP3    H223190   5.431   5.484   7.237  0.6309  1.8835 -0.7786
  519TIP3   OH223191   2.635   4.556   7.460 -0.4197  0.5576  0.3446
  519TIP3    H123192   2.632   4.477   7.514 -1.5159 -0.1197 -0.6643
  519TIP3    H223193   2.544   4.583   7.450 -0.1922  1.0504 -0.5868
  520TIP3   OH223194   6.312   2.494   0.608 -0.4141  0.5408  0.3938
  520TIP3    H123195   6.380   2.549   0.567  2.0357 -1.3874  1.5850
  520TIP3    H223196   6.304   2.529   0.697  0.0572 -0.0431  0.6782
  521TIP3   OH223197   5.440   0.614   1.534 -0.3722 -0.8985 -0.3758
  521TIP3    H123198   5.480   0.537   1.575 -0.9550 -1.5287 -0.9657
  521TIP3    H223199   5.356   0.582   1.500 -1.0748  0.2299  0.2332
  522TIP3   OH223200   3.326   1.296   2.088 -0.1319  0.2472  0.3005
  522TIP3    H123201   3.358   1.371   2.138 -2.4414 -0.1059  2.4772
  522TIP3    H223202   3.266   1.251   2.147 -0.4495 -2.1558 -1.6738
  523TIP3   OH223203   3.998   5.515   7.968  0.3658 -0.3474  0.2944
  523TIP3    H123204   3.919   5.563   7.993 -0.1517 -0.3795 -1.2209
  523TIP3    H223205   3.991   5.431   8.014  1.8823  1.3032  4.0251
  524TIP3   OH223206   0.122   4.706   0.791  0.1561  0.1370 -0.1866
  524TIP3    H123207   0.103   4.789   0.834 -0.3212 -0.3089  0.4991
  524TIP3    H223208   0.121   4.725   0.698  0.1480  0.9149 -0.0305
  525TIP3   OH223209   6.279   0.867   8.725  0.2893 -0.1755  0.3812
  525TIP3    H123210   6.217   0.939   8.728  1.2055  0.6655 -0.2646
  525TIP3    H223211   6.229   0.792   8.693 -1.1081 -0.3221  2.6972
  526TIP3   OH223212   5.001   3.753   1.525  0.2566  0.2110  0.0174
  526TIP3    H123213   4.909   3.756   1.554  0.0587 -2.1650 -0.1874
  526TIP3    H223214   5.051   3.738   1.605  0.3983  0.5259 -0.0082
  527TIP3   OH223215   4.367   2.537   7.388 -0.4928  0.2434 -0.0105
  527TIP3    H123216   4.366   2.554   7.294 -3.3888  0.4792 -0.0294
  527TIP3    H223217   4.438   2.591   7.422 -0.7453  1.7790 -1.7908
  528TIP3   OH223218   2.966   1.718   7.867 -0.5500  0.0037 -0.5107
  528TIP3    H123219   3.014   1.638   7.841 -2.8932 -1.6760  0.0180
  528TIP3    H223220   2.957   1.767   7.785 -0.5591 -1.1252 -1.2228
  529TIP3   OH223221   4.880   3.653   0.208 -0.0579  0.2686  0.4152
  529TIP3    H123222   4.902   3.723   0.269 -0.9261  1.1772 -0.2757
  529TIP3    H223223   4.784   3.651   0.207 -0.0657 -1.3882  0.9117
  530TIP3   OH223224   0.499   5.839   8.507 -0.2486 -0.2876 -0.9097
  530TIP3    H123225   0.493   5.860   8.601  0.9423  0.0492 -0.8892
  530TIP3    H223226   0.496   5.924   8.463 -0.5593 -0.4284 -1.1590
  531TIP3   OH223227   6.767   3.844   1.319 -0.2978 -0.2887  0.4164
  531TIP3    H123228   6.809   3.906   1.260  1.3766 -1.2444  0.5435
  531TIP3    H223229   6.825   3.839   1.394 -1.2848 -0.7465  1.1824
  532TIP3   OH223230   3.831   6.100   7.575  0.0314  0.0476  0.4087
  532TIP3    H123231   3.862   6.191   7.584  1.5592 -0.4446  0.4824
  532TIP3    H223232   3.740   6.108   7.550  0.1592  1.6153  0.3341
  533TIP3   OH223233   2.652   2.065   6.628 -0.0777  0.3048 -0.0804
  533TIP3    H123234   2.612   2.148   6.602  1.1937  0.5600 -1.3370
  533TIP3    H223235   2.746   2.077   6.614  0.4049 -0.5516  2.0328
  534TIP3   OH223236   0.239   0.787   7.723 -0.5593  0.1189  1.1084
  534TIP3    H123237   0.218   0.810   7.632 -0.3152  3.2658  1.7351
  534TIP3    H223238   0.154   0.788   7.767 -0.5197  0.0347  1.1855
  535TIP3   OH223239   6.620   2.927   2.397 -0.6003 -0.2754  0.1340
  535TIP3    H123240   6.667   2.864   2.452 -0.7198 -0.5928 -0.1272
  535TIP3    H223241   6.578   2.986   2.460  1.2250  0.8463  0.3999
  536TIP3   OH223242   5.178   0.650   0.123 -0.2912 -0.0135  0.1531
  536TIP3    H123243   5.158   0.743   0.121 -0.4265  0.0579  2.3301
  536TIP3    H223244   5.094   0.607   0.141  0.0658 -0.3723  1.0714
  537TIP3   OH223245   5.529   2.941   8.303  0.1170 -0.2175  0.0979
  537TIP3    H123246   5.487   2.992   8.234  0.5246 -0.0846 -0.0543
  537TIP3    H223247   5.508   2.988   8.383  2.3557  1.5031 -0.2372
  538TIP3   OH223248   0.380   0.173   2.181 -0.1768  0.7353 -0.3750
  538TIP3    H123249   0.400   0.090   2.138  0.7275 -0.3600  2.0035
  538TIP3    H223250   0.446   0.181   2.250 -2.5565  1.4846  1.9827
  539TIP3   OH223251   4.390   3.691   0.194 -0.5292 -0.5619 -0.0007
  539TIP3    H123252   4.413   3.670   0.103  0.7496 -0.1104  0.1992
  539TIP3    H223253   4.318   3.754   0.186 -0.7044 -0.8396 -0.6928
  540TIP3   OH223254   6.545   4.581   0.993 -0.3746 -0.2582  0.1736
  540TIP3    H123255   6.596   4.506   1.023 -0.2687  1.1941  4.2999
  540TIP3    H223256   6.456   4.546   0.983  0.0218 -1.3060  0.1404
  541TIP3   OH223257   5.733   3.129   8.363  0.6115 -0.0912 -0.2906
  541TIP3    H123258   5.719   3.113   8.270  2.2139 -1.7835 -0.2951
  541TIP3    H223259   5.826   3.150   8.370  0.6292 -0.4881  0.9904
  542TIP3   OH223260   4.101   2.586   0.135 -0.2182  0.9080  0.5281
  542TIP3    H123261   4.071   2.509   0.184 -0.6056  1.7314  1.6335
  542TIP3    H223262   4.046   2.588   0.057 -0.4950  0.3000  0.7040
  543TIP3   OH223263   3.525   2.097   7.980  0.3672  0.3327 -0.1913
  543TIP3    H123264   3.590   2.041   8.023 -1.2166 -0.0302  1.9229
  543TIP3    H223265   3.539   2.184   8.018  0.5354  0.5780 -0.8055
  544TIP3   OH223266   3.179   3.395   1.698 -0.0960  0.0631 -0.0109
  544TIP3    H123267   3.214   3.460   1.759  1.6010 -0.2912 -0.5414
  544TIP3    H223268   3.190   3.435   1.612 -2.7719  0.6946 -0.1201
  545TIP3   OH223269   4.470   4.333   8.133  0.1160 -0.0404  0.1443
  545TIP3    H123270   4.411   4.287   8.073  1.2758  1.3256 -2.1728
  545TIP3    H223271   4.427   4.417   8.148  1.1062  0.7108 -1.0491
  546TIP3   OH223272   3.414   0.787   2.221  0.2249  0.2028 -0.6631
  546TIP3    H123273   3.419   0.706   2.170  0.0790 -0.2924  0.0884
  546TIP3    H223274   3.368   0.848   2.164  0.4746 -0.1950 -1.3043
  547TIP3   OH223275   3.208   6.146   7.221  0.1008  0.1796 -0.1490
  547TIP3    H123276   3.213   6.240   7.206 -1.3856  0.6494  1.9078
  547TIP3    H223277   3.114   6.128   7.228  0.3198 -1.6060 -1.1861
  548TIP3   OH223278   6.203   5.299   1.338 -0.1978 -0.1573 -0.7536
  548TIP3    H123279   6.195   5.322   1.430  0.5045 -0.3782 -0.6283
  548TIP3    H223280   6.136   5.350   1.294 -2.2923 -1.9321  0.1863
  549TIP3   OH223281   3.954   3.044   7.251 -0.0263 -0.4542  0.3466
  549TIP3    H123282   3.935   3.062   7.343 -0.1314 -1.4018  0.5133
  549TIP3    H223283   3.950   2.949   7.243  2.8641 -0.6226 -0.0129
  550TIP3   OH223284   5.409   4.018   8.278 -0.3477 -0.2742  0.1652
  550TIP3    H123285   5.385   3.925   8.277  2.0151 -0.9714  0.6937
  550TIP3    H223286   5.483   4.024   8.218  0.9185  0.8174  1.7342
  551TIP3   OH223287   3.450   6.037   1.566  0.1612 -0.1856 -0.0911
  551TIP3    H123288   3.391   6.109   1.546  0.3737  0.7484  2.3294
  551TIP3    H223289   3.402   5.959   1.537 -1.2401  0.7130 -0.3116
  552TIP3   OH223290   3.363   2.599   7.421  0.4116  0.3589 -0.8115
  552TIP3    H123291   3.360   2.693   7.441  0.4357 -0.0607  1.3503
  552TIP3    H223292   3.271   2.572   7.415  0.3844  0.2535  0.0045
  553TIP3   OH223293   3.665   2.971   7.536  0.4974  0.3874  0.1141
  553TIP3    H123294   3.611   2.937   7.608  0.9917 -1.0028 -0.1341
  553TIP3    H223295   3.603   2.986   7.465  0.3975 -1.1260 -0.1466
  554TIP3   OH223296   4.009   4.636   7.549 -0.9345 -0.8277 -0.2087
  554TIP3    H123297   4.008   4.646   7.645 -1.3273 -0.6926 -0.2263
  554TIP3    H223298   4.046   4.549   7.535 -0.5173 -0.6967  0.0559
  555TIP3   OH223299   3.560   3.739   0.697 -0.3793  0.0503 -0.6334
  555TIP3    H123300   3.481   3.771   0.739  1.3219  2.1769  1.1651
  555TIP3    H223301   3.573   3.797   0.622  0.0142  0.3765 -0.3169
  556TIP3   OH223302   6.598   4.528   1.535  0.1836 -0.0779 -0.2003
  556TIP3    H123303   6.587   4.480   1.453  1.8234 -0.4328 -0.2527
  556TIP3    H223304   6.572   4.465   1.603  2.2315 -1.0908 -0.2755
  557TIP3   OH223305   3.878   5.022   7.141 -0.1602 -0.1489  0.0126
  557TIP3    H123306   3.830   5.018   7.058 -0.3319 -1.7420  0.1724
  557TIP3    H223307   3.828   4.967   7.201  0.1379  0.7405  1.0999
  558TIP3   OH223308   4.188   1.461   2.376  0.1862 -0.0807  0.4825
  558TIP3    H123309   4.175   1.485   2.468 -1.8732 -1.2085  0.5556
  558TIP3    H223310   4.264   1.512   2.348 -0.7953  2.4379  2.0380
  559TIP3   OH223311   5.946   3.257   7.327 -0.1234 -0.1875 -0.1762
  559TIP3    H123312   5.945   3.161   7.324  1.1012 -0.2114 -0.2376
  559TIP3    H223313   6.003   3.282   7.255 -0.4261  0.5945 -0.1459
  560TIP3   OH223314   2.767   6.444   8.784  0.3970 -0.5233 -0.3679
  560TIP3    H123315   2.675   6.472   8.775  0.1790 -1.2748 -0.5380
  560TIP3    H223316   2.817   6.526   8.783 -0.4398  0.1267  2.3718
  561TIP3   OH223317   3.277   6.003   0.505  0.2268 -0.5322  0.4134
  561TIP3    H123318   3.269   6.098   0.516 -1.9276 -0.7438  1.2404
  561TIP3    H223319   3.300   5.971   0.592  0.1981 -0.8253  0.3154
  562TIP3   OH223320   2.267   2.689   6.498 -0.0699  0.0157  0.2140
  562TIP3    H123321   2.292   2.680   6.590 -0.5759 -1.8090  0.2336
  562TIP3    H223322   2.345   2.722   6.454  0.7490 -0.7354  1.0502
  563TIP3   OH223323   2.492   3.105   8.740  0.0668  0.0396  0.3643
  563TIP3    H123324   2.509   3.186   8.692 -2.2711  0.2895 -0.1912
  563TIP3    H223325   2.527   3.121   8.828  2.6485  0.3149 -0.6289
  564TIP3   OH223326   0.504   6.227   7.195  0.3746 -0.5101  0.1351
  564TIP3    H123327   0.592   6.227   7.157  0.3775  0.0395  0.1288
  564TIP3    H223328   0.515   6.271   7.280  0.2629 -1.2156  0.5204
  565TIP3   OH223329   0.649   0.727   0.265 -0.1417 -0.1799 -0.1638
  565TIP3    H123330   0.598   0.751   0.188  2.3464  2.3504 -1.2066
  565TIP3    H223331   0.585   0.692   0.327 -2.3585 -1.5473 -3.0137
  566TIP3   OH223332   3.754   3.956   8.172  0.0234  0.3223  0.2968
  566TIP3    H123333   3.668   3.950   8.214 -0.4459  2.3913 -0.2455
  566TIP3    H223334   3.735   3.992   8.085  1.4580  1.1079  0.2833
  567TIP3   OH223335   4.711   1.032   7.669  0.5395 -0.4831  0.2285
  567TIP3    H123336   4.658   1.101   7.631  1.4043 -0.2112 -0.5140
  567TIP3    H223337   4.766   1.077   7.733  0.7790 -0.5558  0.0749
  568TIP3   OH223338   4.806   6.456   1.021 -0.1545  0.2144  0.6312
  568TIP3    H123339   4.726   6.407   1.002  1.9208 -2.4755 -2.1920
  568TIP3    H223340   4.803   6.471   1.116 -3.1029 -1.3685  0.9190
  569TIP3   OH223341   0.023   2.043   0.543  0.6310  0.0012  0.0354
  569TIP3    H123342  -0.055   2.056   0.598  0.8387  0.3169  0.2643
  569TIP3    H223343   0.020   2.116   0.481 -0.0937 -0.8686 -0.9739
  570TIP3   OH223344   5.103   6.787   6.924  0.5247  0.2466  0.1952
  570TIP3    H123345   5.056   6.709   6.896 -0.7342  0.1431  2.4136
  570TIP3    H223346   5.035   6.849   6.950  1.5337  1.6407 -0.3280
  571TIP3   OH223347   1.222   1.718   8.761  0.2433 -0.5214  0.1184
  571TIP3    H123348   1.158   1.690   8.696  0.1823  0.6917 -0.3799
  571TIP3    H223349   1.252   1.638   8.802  0.0629 -1.3016 -1.2130
  572TIP3   OH223350   5.198   3.368   0.127  1.2066 -0.1987 -0.1803
  572TIP3    H123351   5.276   3.332   0.168  1.7475  2.6834  1.5986
  572TIP3    H223352   5.231   3.431   0.063  0.3075 -1.0195 -1.5114
  573TIP3   OH223353   5.014   2.657   8.710  0.5179  0.0932 -0.0260
  573TIP3    H123354   4.993   2.581   8.764  2.2297 -0.0748  0.4418
  573TIP3    H223355   4.954   2.650   8.635  1.7012 -2.6487 -0.8420
  574TIP3   OH223356   0.828   4.898   0.922 -0.2913 -0.7637  0.2506
  574TIP3    H123357   0.883   4.824   0.947 -1.2253 -0.8518  2.2477
  574TIP3    H223358   0.889   4.971   0.909  0.6670 -1.8392 -1.9475
  575TIP3   OH223359   5.517   6.440   1.825  0.1620  0.0646  0.0193
  575TIP3    H123360   5.545   6.349   1.813  0.3209  0.0988  0.1188
  575TIP3    H223361   5.599   6.488   1.839 -0.0343 -0.0306  1.6412
  576TIP3   OH223362   1.077   3.775   2.570 -0.1080 -0.2673  0.3376
  576TIP3    H123363   1.155   3.761   2.624 -0.0110  1.0579  0.5823
  576TIP3    H223364   1.007   3.730   2.617  0.3978 -1.0368  0.3829
  577TIP3   OH223365   3.507   0.006   1.950  0.0626  0.0452  0.0121
  577TIP3    H123366   3.512  -0.085   1.982  1.2846 -0.4377 -1.4183
  577TIP3    H223367   3.431   0.006   1.891 -1.0057  0.4442  1.3199
  578TIP3   OH223368   4.311   4.681   2.048 -0.0678  0.0290  0.1869
  578TIP3    H123369   4.372   4.693   2.121 -0.2723  1.5195  0.1350
  578TIP3    H223370   4.312   4.587   2.031  2.1822  0.0056  0.2049
  579TIP3   OH223371   0.443   5.037   2.298 -0.3124 -0.3437  0.5660
  579TIP3    H123372   0.517   5.025   2.238  0.2715 -2.8425  1.6491
  579TIP3    H223373   0.387   5.101   2.254  1.1153 -0.4747 -1.6185
  580TIP3   OH223374   5.244   1.193   1.685 -0.4184  0.3246  0.3668
  580TIP3    H123375   5.317   1.254   1.690 -0.9238  1.1590 -1.6828
  580TIP3    H223376   5.223   1.173   1.777  0.0847  2.8201  1.0859
  581TIP3   OH223377   6.405   0.864   1.790  0.4305  0.5099 -0.2929
  581TIP3    H123378   6.448   0.798   1.737 -0.7531 -0.1527 -0.4696
  581TIP3    H223379   6.322   0.881   1.745 -0.1310  0.6970  0.7829
  582TIP3   OH223380   1.868   4.000   2.075 -0.2448  0.0773  0.8612
  582TIP3    H123381   1.902   3.948   2.002 -0.8897 -0.4786  0.9519
  582TIP3    H223382   1.773   3.997   2.064 -0.3157  0.5853  1.3226
  583TIP3   OH223383   5.790   6.364   1.920  0.3113 -0.1147  0.4107
  583TIP3    H123384   5.874   6.364   1.873 -0.2212  0.5759 -0.5904
  583TIP3    H223385   5.743   6.288   1.885  0.3662 -0.2720  0.6788
  584TIP3   OH223386   2.947   4.080   2.108  0.2749  0.1021  0.2525
  584TIP3    H123387   3.032   4.076   2.152 -0.4667 -0.5585  1.6904
  584TIP3    H223388   2.903   4.155   2.148 -0.1316 -0.0562  0.1014
  585TIP3   OH223389   3.682   3.744   7.844 -0.0335  0.2936 -0.1851
  585TIP3    H123390   3.697   3.839   7.840  1.1072  0.1099 -0.6188
  585TIP3    H223391   3.654   3.728   7.934  1.1266  0.8623  0.2903
  586TIP3   OH223392   5.646   1.420   7.684  0.2400  0.1721 -0.5022
  586TIP3    H123393   5.562   1.466   7.687  0.0226 -0.2617  1.0641
  586TIP3    H223394   5.684   1.446   7.600 -0.8299  1.4879 -0.6252
  587TIP3   OH223395   4.460   4.010   7.134  0.1256  0.4897 -0.3060
  587TIP3    H123396   4.470   4.051   7.048 -0.2846 -0.1745 -0.6753
  587TIP3    H223397   4.381   3.957   7.127 -0.8614  1.6935  0.9960
  588TIP3   OH223398   0.199   2.623   2.514 -0.2471  0.1522 -0.2544
  588TIP3    H123399   0.268   2.681   2.484  0.0162  0.4244  0.8464
  588TIP3    H223400   0.191   2.640   2.608 -3.1661  1.5922 -0.6322
  589TIP3   OH223401   1.125   4.739   0.065 -0.3483  1.0661  0.1402
  589TIP3    H123402   1.179   4.685   0.008  0.6496  0.9086  1.1872
  589TIP3    H223403   1.145   4.829   0.039 -0.3665  0.9829 -0.1639
  590TIP3   OH223404   2.518   6.498   7.410  0.1285  0.5364 -0.1556
  590TIP3    H123405   2.519   6.591   7.386 -1.8901  0.4057 -0.9221
  590TIP3    H223406   2.440   6.487   7.463  0.2580 -0.7674 -0.2039
  591TIP3   OH223407   6.688   0.599   6.480 -0.5169  0.1150 -0.3488
  591TIP3    H123408   6.661   0.688   6.502  0.2104  0.0715  0.8108
  591TIP3    H223409   6.606   0.552   6.465 -0.9310  0.8368 -0.4084
  592TIP3   OH223410   3.670   2.543   2.600 -0.4285  0.4135  0.8218
  592TIP3    H123411   3.674   2.638   2.589  0.3430  0.3236  0.3078
  592TIP3    H223412   3.733   2.524   2.670  1.3670  0.0192 -0.8374
  593TIP3   OH223413   0.912   1.935   2.283  0.0164  0.3538 -0.4327
  593TIP3    H123414   0.908   2.029   2.298  0.5327  0.3064  0.0332
  593TIP3    H223415   0.976   1.903   2.346 -0.2778 -0.3362 -0.4713
  594TIP3   OH223416   1.335   0.256   7.030  0.5057 -0.1777 -0.3459
  594TIP3    H123417   1.362   0.316   6.961 -0.3188 -1.2048 -1.6148
  594TIP3    H223418   1.415   0.208   7.053  1.0761  1.0894  0.3898
  595TIP3   OH223419   1.444   2.413   2.019 -0.3894 -0.5369 -0.3389
  595TIP3    H123420   1.405   2.488   2.066 -0.4479 -0.4250 -0.5642
  595TIP3    H223421   1.531   2.403   2.059  0.1053  0.4206 -1.1144
  596TIP3   OH223422   0.502   4.042   7.306 -0.6590  0.1929 -0.2469
  596TIP3    H123423   0.545   4.054   7.391 -1.4508 -0.7267  0.3052
  596TIP3    H223424   0.497   4.130   7.269  1.0574  0.4237 -0.0323
  597TIP3   OH223425   0.811   2.452   6.801 -0.0189  0.2384 -0.3878
  597TIP3    H123426   0.797   2.362   6.771 -0.8407 -0.1526  1.0470
  597TIP3    H223427   0.823   2.503   6.721  0.7070 -1.1767 -1.2255
  598TIP3   OH223428   1.696   1.548   1.162 -0.8428  1.0418 -0.6085
  598TIP3    H123429   1.755   1.525   1.234  0.6449  1.5965 -1.5962
  598TIP3    H223430   1.755   1.578   1.092 -2.0823 -1.1754 -2.7407
  599TIP3   OH223431   5.438   1.682   1.826 -0.4953 -0.4074 -0.2523
  599TIP3    H123432   5.443   1.777   1.833 -1.6233 -0.3790  0.3441
  599TIP3    H223433   5.346   1.664   1.807 -0.3359 -1.3997 -0.1409
  600TIP3   OH223434   0.394   4.469   2.309 -0.2271 -0.1210  0.6845
  600TIP3    H123435   0.452   4.530   2.354 -0.2783  0.2497  0.2496
  600TIP3    H223436   0.452   4.398   2.281 -0.0094  0.1561  0.4175
  601TIP3   OH223437   5.109   0.519   2.280 -0.1489  0.2082 -0.2988
  601TIP3    H123438   5.055   0.537   2.203 -1.3591  0.0464  0.4775
  601TIP3    H223439   5.174   0.456   2.250 -0.4600  0.3149 -1.2364
  602TIP3   OH223440   3.494   0.472   0.302  0.2904  0.5232  0.0352
  602TIP3    H123441   3.512   0.509   0.389  0.6064 -1.9783  1.1218
  602TIP3    H223442   3.487   0.548   0.245 -0.2210  2.2903  2.2931
  603TIP3   OH223443   2.567   2.085   7.964 -0.6900  0.9285  0.2798
  603TIP3    H123444   2.623   2.014   7.932 -0.9331  0.6166  0.5343
  603TIP3    H223445   2.566   2.149   7.893 -0.3463  0.7451  0.1069
  604TIP3   OH223446   6.676   0.982   8.295  0.0483  0.5288  0.5641
  604TIP3    H123447   6.712   0.982   8.206 -1.7434 -0.5403 -0.2231
  604TIP3    H223448   6.625   1.063   8.301 -1.8539 -0.5224 -0.3390
  605TIP3   OH223449   2.064   3.047   8.332 -0.2700  0.1642 -0.1511
  605TIP3    H123450   2.093   2.962   8.298 -0.5530 -0.6756  1.5986
  605TIP3    H223451   2.142   3.082   8.375 -0.5372  0.1393  0.3506
  606TIP3   OH223452   3.600   2.513   8.449  0.0723  0.2709  0.1461
  606TIP3    H123453   3.617   2.600   8.413 -3.0492  0.3221 -1.5914
  606TIP3    H223454   3.662   2.455   8.404  1.3756  1.4090  0.4423
  607TIP3   OH223455   6.317   1.781   1.582 -0.0860 -0.5788 -0.0321
  607TIP3    H123456   6.410   1.771   1.562 -0.1848  2.4187 -2.7550
  607TIP3    H223457   6.275   1.793   1.497 -2.4297  1.6064  1.3017
  608TIP3   OH223458   3.408   1.805   8.269  0.6748  0.1489 -0.3250
  608TIP3    H123459   3.451   1.731   8.225  0.5101  0.1985 -0.5662
  608TIP3    H223460   3.323   1.770   8.296 -0.1915  0.7915 -2.1068
  609TIP3   OH223461   2.719   6.487   0.623 -0.9186  0.1722  0.0314
  609TIP3    H123462   2.788   6.541   0.586 -1.0439  1.2128  1.2556
  609TIP3    H223463   2.639   6.518   0.580 -0.7074 -0.7987 -1.1287
  610TIP3   OH223464   3.372   1.828   7.228  0.1281 -0.3392  0.7131
  610TIP3    H123465   3.394   1.857   7.139 -0.8784 -1.0148  0.2201
  610TIP3    H223466   3.307   1.759   7.215  0.7546 -1.1976  1.9397
  611TIP3   OH223467   5.499   4.987   6.278  0.3844  0.2241  0.1425
  611TIP3    H123468   5.456   5.050   6.221 -1.0110 -0.4578  0.3936
  611TIP3    H223469   5.521   4.913   6.221 -0.1175 -0.0429  0.2903
  612TIP3   OH223470   1.270   6.267   7.749  0.1594 -0.2180 -0.5709
  612TIP3    H123471   1.178   6.269   7.722  0.0693 -1.9428 -0.4753
  612TIP3    H223472   1.283   6.180   7.786  1.7771  0.0785 -0.3527
  613TIP3   OH223473   5.354   5.961   7.799  0.5282 -0.3546 -0.4307
  613TIP3    H123474   5.351   6.040   7.853 -0.6816 -1.9427  2.0188
  613TIP3    H223475   5.441   5.925   7.815  0.0870 -0.9485  0.7276
  614TIP3   OH223476   5.830   6.632   1.252 -0.3420 -0.2111 -0.3310
  614TIP3    H123477   5.846   6.538   1.259  1.8206  0.2131  2.1282
  614TIP3    H223478   5.878   6.659   1.174  0.3394 -0.9285 -0.1734
  615TIP3   OH223479   3.975   2.341   1.827  0.0378  0.0541 -0.0640
  615TIP3    H123480   4.069   2.325   1.819  0.0745  0.1500  0.1581
  615TIP3    H223481   3.969   2.431   1.859 -0.1495  0.2862 -0.7455
  616TIP3   OH223482   5.798   2.375   0.859  0.0424  0.1240  0.1539
  616TIP3    H123483   5.877   2.405   0.815  0.2748 -0.2487  0.3209
  616TIP3    H223484   5.829   2.317   0.928 -0.4504 -1.4433 -0.8799
  617TIP3   OH223485   1.573   5.306   7.785  0.0860  0.1320  0.0804
  617TIP3    H123486   1.538   5.375   7.728  0.9329  0.2453 -0.3106
  617TIP3    H223487   1.567   5.342   7.873  1.3013  1.0450 -0.2007
  618TIP3   OH223488   3.346   2.075   8.231 -0.5551 -0.2873 -0.2242
  618TIP3    H123489   3.389   1.991   8.213 -0.6515 -0.1648 -1.0553
  618TIP3    H223490   3.382   2.135   8.167  1.9178  1.1912  2.3080
  619TIP3   OH223491   0.091   1.086   8.683  0.0292  0.1297  0.8067
  619TIP3    H123492   0.084   1.104   8.777  0.5365  0.4903  0.7792
  619TIP3    H223493   0.045   1.158   8.641 -0.4605 -0.1915  0.7825
  620TIP3   OH223494   4.934   4.083   8.307  0.3487  0.4785 -0.8982
  620TIP3    H123495   4.998   4.132   8.358  0.4454 -0.0200 -0.5395
  620TIP3    H223496   4.964   3.992   8.309 -1.3443 -0.1130  0.8624
  621TIP3   OH223497   1.978   1.544   0.963 -0.1261 -0.5473  0.1194
  621TIP3    H123498   1.953   1.632   0.989  1.0511 -0.3967  0.8102
  621TIP3    H223499   2.032   1.512   1.036 -1.6235 -2.3378  0.5223
  622TIP3   OH223500   3.705   3.004   1.951  0.5090 -0.0067 -0.5776
  622TIP3    H123501   3.718   2.992   2.045  0.6933  0.7337 -0.5056
  622TIP3    H223502   3.787   2.976   1.912  0.3676 -0.4909 -0.5377
  623TIP3   OH223503   6.586   5.536   0.236 -0.0727  0.1744 -0.1547
  623TIP3    H123504   6.611   5.553   0.145  0.5380  0.3901  0.0542
  623TIP3    H223505   6.642   5.464   0.264 -0.8433 -0.4626 -0.2059
  624TIP3   OH223506   3.317   3.214   7.365  0.2705  0.3189 -0.1515
  624TIP3    H123507   3.299   3.282   7.300 -0.7413  0.0302 -0.1843
  624TIP3    H223508   3.246   3.150   7.355  0.5139 -0.1166  0.7218
  625TIP3   OH223509   5.438   3.965   6.196  0.1391  0.0523 -0.0745
  625TIP3    H123510   5.408   4.050   6.230  0.4482  0.3281 -0.4891
  625TIP3    H223511   5.361   3.908   6.205  0.1973  0.1273  1.0417
  626TIP3   OH223512   0.336   6.327   8.070 -0.1238  0.3710 -0.0030
  626TIP3    H123513   0.420   6.362   8.100 -0.3102  0.1237  0.8187
  626TIP3    H223514   0.360   6.254   8.013  0.2150 -0.5774  1.3190
  627TIP3   OH223515   1.796   1.186   1.059 -0.3595 -0.0647  0.5756
  627TIP3    H123516   1.855   1.202   0.985 -0.4787 -0.4242  0.3974
  627TIP3    H223517   1.709   1.180   1.019 -0.3070 -1.3133  0.5853
  628TIP3   OH223518   5.192   0.517   1.436  0.0498 -0.2984  0.0219
  628TIP3    H123519   5.109   0.547   1.475  0.3505  1.5914 -0.7065
  628TIP3    H223520   5.167   0.446   1.378 -0.8737 -0.6838  0.8605
  629TIP3   OH223521   2.653   0.067   8.775 -0.0110 -0.2839 -0.4933
  629TIP3    H123522   2.715   0.072   8.848 -3.3538  1.2593  2.5427
  629TIP3    H223523   2.635   0.158   8.753 -1.7306 -0.6576 -0.7425
  630TIP3   OH223524   2.666   1.756   6.507  0.4818 -0.4969 -0.1169
  630TIP3    H123525   2.732   1.737   6.573 -0.3449  1.1831  1.2558
  630TIP3    H223526   2.710   1.739   6.424  1.3376 -3.3322  0.7980
  631TIP3   OH223527   1.523   1.426   7.562 -0.2183  0.5784  0.3221
  631TIP3    H123528   1.445   1.421   7.508  0.2427  3.1149 -0.7333
  631TIP3    H223529   1.537   1.520   7.575  3.3963  0.3571 -0.7358
  632TIP3   OH223530   4.196   6.121   8.124 -0.8261  0.1658 -0.5352
  632TIP3    H123531   4.263   6.178   8.086 -1.0450  0.2939 -0.7241
  632TIP3    H223532   4.247   6.054   8.170 -0.5676  0.3630 -0.5293
  633TIP3   OH223533   2.537   3.154   1.462  0.3192 -0.4043  0.5584
  633TIP3    H123534   2.494   3.232   1.426 -0.2321 -0.5546  0.8759
  633TIP3    H223535   2.465   3.093   1.478  0.3466  0.1612  3.2366
  634TIP3   OH223536   2.519   2.656   8.527  0.0271 -0.4869 -0.2097
  634TIP3    H123537   2.544   2.722   8.592 -5.0474  0.3908  1.2963
  634TIP3    H223538   2.471   2.591   8.577  0.1450 -2.4544 -2.4925
  635TIP3   OH223539   0.965   2.088   6.969 -0.1827 -0.1086 -0.4542
  635TIP3    H123540   0.996   2.177   6.985  1.0885 -0.4841 -0.7106
  635TIP3    H223541   0.872   2.098   6.948 -0.2735  1.0540  0.4071
  636TIP3   OH223542   3.878   6.533   1.272  0.3346  0.5248  0.0860
  636TIP3    H123543   3.833   6.513   1.190 -0.5329 -3.2331  1.2923
  636TIP3    H223544   3.970   6.517   1.254  0.0449 -1.2570  0.0145
  637TIP3   OH223545   3.027   6.639   0.063  0.1138 -0.1443  0.2863
  637TIP3    H123546   2.973   6.665   0.138  0.3609 -0.4099  0.5591
  637TIP3    H223547   2.971   6.655  -0.013  0.3656  1.4996  0.4118
  638TIP3   OH223548   5.103   2.795   1.485  0.1471 -0.2130 -0.6190
  638TIP3    H123549   5.158   2.758   1.554 -0.3320 -0.2483 -0.2537
  638TIP3    H223550   5.136   2.885   1.475 -0.3718  0.0903  0.2970
  639TIP3   OH223551   5.969   3.918   1.398  0.4769 -0.1252 -0.2114
  639TIP3    H123552   5.908   3.938   1.326 -1.5254 -0.9682  1.1434
  639TIP3    H223553   6.013   4.001   1.415 -0.9845  0.7878 -0.6631
  640TIP3   OH223554   6.291   0.565   2.251  0.2493 -0.0711  0.0388
  640TIP3    H123555   6.352   0.537   2.183  0.4969  0.5422  0.0015
  640TIP3    H223556   6.242   0.637   2.212  1.4926  1.3769  1.0125
  641TIP3   OH223557   5.403   3.263   1.514  0.6638 -0.0902  0.3983
  641TIP3    H123558   5.343   3.197   1.547 -0.5120  1.2227  0.9861
  641TIP3    H223559   5.402   3.252   1.419  0.3593 -0.7926  0.4775
  642TIP3   OH223560   0.131   1.308   7.834 -0.2741 -0.5075  0.1044
  642TIP3    H123561   0.193   1.236   7.844  0.2982 -0.1720 -0.9424
  642TIP3    H223562   0.165   1.378   7.891 -1.7240 -1.5776  2.4490
  643TIP3   OH223563   3.280   3.821   0.722  0.2549  0.1875  0.5026
  643TIP3    H123564   3.309   3.861   0.804  2.1532 -2.3654  1.2353
  643TIP3    H223565   3.210   3.761   0.748 -1.2780  1.5849 -0.2772
  644TIP3   OH223566   2.134   2.534   0.551  0.1718 -0.6906  0.4564
  644TIP3    H123567   2.163   2.622   0.573  0.8154 -0.6956 -0.3398
  644TIP3    H223568   2.208   2.494   0.505 -0.0240 -1.7321  1.0030
  645TIP3   OH223569   4.585   0.631   6.256  0.4001 -0.1031 -0.5897
  645TIP3    H123570   4.613   0.663   6.170  0.1253  0.6506 -0.4057
  645TIP3    H223571   4.541   0.706   6.296 -1.0168 -0.9566 -0.4776
  646TIP3   OH223572   2.415   6.017   7.369 -0.6961  0.0987  0.7494
  646TIP3    H123573   2.326   6.032   7.337 -0.3463 -0.5221 -0.6044
  646TIP3    H223574   2.421   6.069   7.449 -2.1190  0.5177  0.6142
  647TIP3   OH223575   6.735   4.959   0.481 -0.3881 -0.2277 -0.0644
  647TIP3    H123576   6.725   4.987   0.390 -1.2892 -1.7477 -0.4677
  647TIP3    H223577   6.648   4.932   0.508  0.1302 -1.1087  0.7938
  648TIP3   OH223578   2.387   1.627   0.523  0.4945 -0.2689  0.0903
  648TIP3    H123579   2.349   1.595   0.441 -3.3156 -0.2682  1.6629
  648TIP3    H223580   2.327   1.697   0.552  1.9968  0.1014  2.6048
  649TIP3   OH223581   0.391   3.534   0.994 -0.7264 -0.3507 -0.1241
  649TIP3    H123582   0.392   3.476   1.070 -0.8174  1.4092  1.2980
  649TIP3    H223583   0.450   3.492   0.931  1.4870 -0.5954  1.9418
  650TIP3   OH223584   2.337   0.123   2.347  0.0720 -0.1225 -0.9781
  650TIP3    H123585   2.344   0.061   2.274  1.0049 -2.0356  0.6558
  650TIP3    H223586   2.295   0.073   2.417  1.1272  0.9865  0.5036
  651TIP3   OH223587   5.300   5.221   8.594 -0.2269  0.0371 -0.5546
  651TIP3    H123588   5.255   5.291   8.546 -0.0705  1.5885  1.3877
  651TIP3    H223589   5.384   5.211   8.549  0.5104  2.4310  0.0834
  652TIP3   OH223590   6.510   6.505   1.726 -0.6219  0.2691 -0.2576
  652TIP3    H123591   6.457   6.581   1.748 -1.4458  0.2540 -2.0247
  652TIP3    H223592   6.447   6.436   1.705  0.0586 -0.0354 -1.4389
  653TIP3   OH223593   2.458   4.620   0.512 -0.0043  0.1549  0.0961
  653TIP3    H123594   2.504   4.701   0.488 -0.9579  0.5847 -0.3296
  653TIP3    H223595   2.492   4.599   0.600  0.4689  0.8547  0.0932
  654TIP3   OH223596   5.521   6.635   0.783  0.3492 -0.3734  0.2628
  654TIP3    H123597   5.602   6.596   0.749 -0.6304 -1.7816 -0.5718
  654TIP3    H223598   5.472   6.560   0.818 -0.7899  0.3946  0.3437
  655TIP3   OH223599   4.538   5.863   8.440  0.5739  0.8534  0.2570
  655TIP3    H123600   4.535   5.920   8.363 -0.7454  0.6514  0.1323
  655TIP3    H223601   4.622   5.883   8.481  1.7240  0.2966 -1.7110
  656TIP3   OH223602   0.838   1.790   1.535 -0.2035 -0.4731  0.3908
  656TIP3    H123603   0.844   1.885   1.532  0.8269 -0.5326  0.0764
  656TIP3    H223604   0.749   1.772   1.567 -0.4599  0.5818  0.3000
  657TIP3   OH223605   1.864   3.748   7.468  0.0832 -0.2799 -0.2371
  657TIP3    H123606   1.947   3.795   7.481 -0.6064  1.0842 -0.6595
  657TIP3    H223607   1.814   3.765   7.548 -0.0543 -0.5544 -0.2632
  658TIP3   OH223608   2.802   0.435   1.595 -0.1644 -0.0386  0.3746
  658TIP3    H123609   2.860   0.420   1.670  0.6081 -1.7011 -0.4720
  658TIP3    H223610   2.745   0.358   1.593  0.7144 -0.7242 -1.4554
  659TIP3   OH223611   2.716   3.423   8.866  0.0668 -0.0475  0.7588
  659TIP3    H123612   2.713   3.380   8.951  0.9191 -0.7314  0.4554
  659TIP3    H223613   2.787   3.379   8.819 -2.2706 -1.7844 -1.4280
  660TIP3   OH223614   4.747   5.329   1.250  0.2062  0.3575  0.1426
  660TIP3    H123615   4.788   5.259   1.200 -2.3581  0.0846 -1.7486
  660TIP3    H223616   4.653   5.316   1.239 -0.4603  1.7453  3.1137
  661TIP3   OH223617   6.307   1.585   2.979  0.2590  0.0291 -0.0134
  661TIP3    H123618   6.373   1.518   2.962  1.1103  0.7073  0.5711
  661TIP3    H223619   6.238   1.566   2.915  1.3610 -0.2083 -1.1946
  662TIP3   OH223620   2.751   1.162   8.704 -0.5526 -0.5600  0.3330
  662TIP3    H123621   2.762   1.179   8.798  3.0077 -1.1088  0.1706
  662TIP3    H223622   2.728   1.248   8.667 -0.3315  0.0294  1.5096
  663TIP3   OH223623   1.500   3.430   2.519 -0.2189 -0.7882 -0.1580
  663TIP3    H123624   1.496   3.509   2.573 -1.2331 -1.3112  0.5454
  663TIP3    H223625   1.577   3.383   2.550  0.1087 -0.3207 -0.2487
  664TIP3   OH223626   5.143   5.223   1.188  0.3694  0.7748  0.4734
  664TIP3    H123627   5.139   5.269   1.104 -0.4031  1.7072  0.9944
  664TIP3    H223628   5.200   5.277   1.242  1.7082 -0.3638  0.2549
  665TIP3   OH223629   1.566   5.244   0.695 -0.4839 -0.4216 -0.0461
  665TIP3    H123630   1.652   5.279   0.717 -1.1181  0.6452  0.8826
  665TIP3    H223631   1.576   5.149   0.703  0.6872 -0.3402 -0.3330
  666TIP3   OH223632   1.731   6.766   0.336  0.0342  0.8211  0.0139
  666TIP3    H123633   1.723   6.774   0.431  0.2129  0.8037  0.0320
  666TIP3    H223634   1.684   6.686   0.314  0.1541  0.7217  0.1135
  667TIP3   OH223635   3.267   1.405   1.834  0.3442  0.6781 -0.0014
  667TIP3    H123636   3.287   1.354   1.912 -3.1267  2.0109  1.9878
  667TIP3    H223637   3.311   1.489   1.848  0.2081  0.7076  0.2592
  668TIP3   OH223638   4.433   3.443   8.489  0.5659  0.3706 -0.1963
  668TIP3    H123639   4.446   3.394   8.407  2.3669  1.0650 -0.3921
  668TIP3    H223640   4.399   3.528   8.460  0.4427  0.3366 -0.1509
  669TIP3   OH223641   5.281   1.373   0.484 -0.2827  0.4979  0.5014
  669TIP3    H123642   5.247   1.446   0.431  0.4552  0.6330  0.2018
  669TIP3    H223643   5.211   1.308   0.483 -0.5119  0.7496 -0.1421
  670TIP3   OH223644   3.641   3.969   1.520  0.0637 -0.4500  0.0656
  670TIP3    H123645   3.662   3.890   1.470 -1.6445 -1.5402  0.9388
  670TIP3    H223646   3.629   3.938   1.609  0.5215  1.0272  0.6745
  671TIP3   OH223647   5.139   3.508   7.544  0.2745  0.0070  0.4842
  671TIP3    H123648   5.047   3.498   7.519  0.7518 -1.2340 -0.9276
  671TIP3    H223649   5.140   3.495   7.639 -0.7153 -2.5662  0.2201
  672TIP3   OH223650   3.144   0.037   8.162 -0.1847  0.1526  0.0974
  672TIP3    H123651   3.153  -0.041   8.108 -1.4145 -0.4904  0.7782
  672TIP3    H223652   3.050   0.053   8.166  0.0767  2.5053 -1.1503
  673TIP3   OH223653   3.221   0.707   1.163 -0.0318  0.3786  0.0517
  673TIP3    H123654   3.308   0.734   1.192 -0.6652  0.8487  1.6694
  673TIP3    H223655   3.191   0.779   1.108  0.2453  0.6380  0.2359
  674TIP3   OH223656   3.773   3.311   8.078  0.3183  0.0417  0.0438
  674TIP3    H123657   3.767   3.225   8.035  1.0858 -0.2068  0.4147
  674TIP3    H223658   3.780   3.373   8.005 -1.3372 -0.0912 -0.2639
  675TIP3   OH223659   6.469   3.096   2.568 -0.3282  0.3371 -0.5615
  675TIP3    H123660   6.494   3.154   2.496  0.7264 -1.5311 -1.7954
  675TIP3    H223661   6.375   3.085   2.558 -0.0036 -1.0658 -2.6439
  676TIP3   OH223662   1.030   3.134   8.455  0.2173 -0.4776 -0.1064
  676TIP3    H123663   1.001   3.186   8.380 -0.4715 -2.1152 -1.0019
  676TIP3    H223664   1.099   3.188   8.495 -0.7662  1.3178 -0.7206
  677TIP3   OH223665   3.778   0.339   1.650 -0.1654 -0.4637  0.3542
  677TIP3    H123666   3.848   0.338   1.715 -0.3341 -1.2023  0.5341
  677TIP3    H223667   3.723   0.264   1.673  0.3576 -1.3982 -1.2708
  678TIP3   OH223668   1.192   5.561   0.744  0.3030  0.3902 -0.1372
  678TIP3    H123669   1.234   5.485   0.784  0.2384 -0.2701 -1.2891
  678TIP3    H223670   1.143   5.602   0.815  1.7415  0.3746  0.9110
  679TIP3   OH223671   3.799   5.776   8.030 -0.4230  0.1949  0.2896
  679TIP3    H123672   3.831   5.749   7.944  0.1801 -1.5434  1.0092
  679TIP3    H223673   3.731   5.840   8.012 -0.5365 -0.3901 -1.4862
  680TIP3   OH223674   6.543   5.886   7.193 -0.4046  0.8272  0.1989
  680TIP3    H123675   6.635   5.868   7.173 -0.5051  1.1695 -0.6198
  680TIP3    H223676   6.494   5.843   7.122 -0.9498 -0.2722  1.1978
  681TIP3   OH223677   3.331   4.652   8.861 -0.4111 -0.3798  0.1063
  681TIP3    H123678   3.396   4.667   8.794  0.4081 -2.5193  0.3382
  681TIP3    H223679   3.341   4.725   8.922 -0.1837  0.8031 -1.3123
  682TIP3   OH223680   3.768   0.691   6.536 -0.0136 -0.2044 -0.5423
  682TIP3    H123681   3.705   0.713   6.467 -0.6150 -0.6616 -0.1516
  682TIP3    H223682   3.741   0.745   6.610  1.9042  1.8991 -1.2479
  683TIP3   OH223683   0.144   4.776   8.060 -0.7217  0.2540 -0.5819
  683TIP3    H123684   0.071   4.727   8.022 -0.4420  0.5953 -1.6019
  683TIP3    H223685   0.199   4.709   8.101 -0.4972 -0.2884 -1.6988
  684TIP3   OH223686   0.129   4.292   7.193  0.4826 -0.3083 -0.1256
  684TIP3    H123687   0.064   4.232   7.229 -2.1222  2.5561  0.4300
  684TIP3    H223688   0.138   4.265   7.101  1.0920 -2.7727  0.5828
  685TIP3   OH223689   1.513   3.143   8.272  0.3111 -0.2249 -0.1224
  685TIP3    H123690   1.607   3.139   8.254  0.2306  1.6691 -1.2708
  685TIP3    H223691   1.480   3.213   8.214 -1.1950  1.5977  2.6818
  686TIP3   OH223692   4.387   4.718   1.779 -0.1913 -0.1016 -0.0105
  686TIP3    H123693   4.389   4.729   1.874 -0.3228  2.5610 -0.2268
  686TIP3    H223694   4.297   4.740   1.754  0.7712  3.3891 -0.9975
  687TIP3   OH223695   2.962   2.357   0.874  0.4473 -0.7174 -0.2763
  687TIP3    H123696   2.887   2.360   0.933 -0.4461  1.1813 -1.4350
  687TIP3    H223697   3.033   2.397   0.924  0.7696 -2.5282  0.8303
  688TIP3   OH223698   2.339   6.427   7.873 -0.1737  0.0971  0.1258
  688TIP3    H123699   2.318   6.342   7.835 -0.2045 -0.4750  1.3775
  688TIP3    H223700   2.255   6.473   7.878 -0.1093  0.3367 -0.8427
  689TIP3   OH223701   5.992   0.392   8.538 -0.2019 -0.1403 -0.1028
  689TIP3    H123702   6.017   0.461   8.476 -2.0659 -0.1001 -0.9005
  689TIP3    H223703   5.950   0.440   8.610 -1.3878 -0.3880 -0.6008
  690TIP3   OH223704   3.820   0.161   1.364  0.6456 -0.6833 -0.1588
  690TIP3    H123705   3.904   0.117   1.352  1.5173 -0.0782  2.8968
  690TIP3    H223706   3.842   0.241   1.412 -1.6642 -0.6142  0.9024
  691TIP3   OH223707   1.699   5.677   8.417  0.8716 -0.1243 -0.4313
  691TIP3    H123708   1.701   5.770   8.397  0.3776  0.0210  0.1527
  691TIP3    H223709   1.739   5.670   8.504  1.1221 -0.4817 -0.5751
  692TIP3   OH223710   6.770   6.365   0.301  0.5872  0.1830  0.3148
  692TIP3    H123711   6.699   6.366   0.237  0.1753  0.3675  0.7678
  692TIP3    H223712   6.830   6.298   0.269  1.0403  1.1604 -0.9558
  693TIP3   OH223713   1.662   2.645   6.700 -0.0883 -0.2839 -0.2789
  693TIP3    H123714   1.701   2.596   6.772 -0.9124 -2.6644 -1.3573
  693TIP3    H223715   1.732   2.704   6.671 -0.3259  2.3000  3.6413
  694TIP3   OH223716   6.559   3.243   7.438 -0.2749 -0.7156  0.0790
  694TIP3    H123717   6.534   3.278   7.352  0.4959 -0.6090 -0.1156
  694TIP3    H223718   6.605   3.316   7.480  0.1603 -1.0637  0.2096
  695TIP3   OH223719   1.107   1.759   0.908  0.3863  0.0066  0.1707
  695TIP3    H123720   1.123   1.848   0.937  0.5189 -0.0701  0.3343
  695TIP3    H223721   1.182   1.709   0.939  1.2142  0.1727 -1.4461
  696TIP3   OH223722   2.843   5.559   7.664 -0.2421 -0.7613 -0.2290
  696TIP3    H123723   2.822   5.589   7.752 -0.9128  0.8760 -0.9002
  696TIP3    H223724   2.938   5.547   7.664 -0.2020 -0.4788  0.6264
  697TIP3   OH223725   1.652   6.540   0.202 -0.3797  0.3003  0.5324
  697TIP3    H123726   1.747   6.525   0.201 -0.7667 -2.6410  0.6443
  697TIP3    H223727   1.626   6.533   0.110 -0.3617  2.6517  0.2875
  698TIP3   OH223728   3.834   5.538   2.019 -0.3202  0.0537  0.2007
  698TIP3    H123729   3.850   5.444   2.012 -0.4650  0.1157 -1.1252
  698TIP3    H223730   3.740   5.546   2.036 -0.3801 -0.0254 -0.0965
  699TIP3   OH223731   5.156   5.173   0.690 -0.0070  0.8518  0.0870
  699TIP3    H123732   5.244   5.166   0.652  1.0737  0.9285  2.4037
  699TIP3    H223733   5.151   5.099   0.751 -1.4863  0.9811  0.1541
  700TIP3   OH223734   1.148   4.353   8.700  0.0400 -0.0548 -0.4615
  700TIP3    H123735   1.198   4.271   8.699  0.4467  0.1901 -1.2831
  700TIP3    H223736   1.068   4.333   8.652 -0.7298 -0.4834  0.9714
  701TIP3   OH223737   3.054   2.151   7.732 -0.2918 -0.2793  0.0728
  701TIP3    H123738   3.118   2.128   7.800 -2.8467 -1.9169  2.1312
  701TIP3    H223739   3.069   2.244   7.716  3.4665 -0.8292 -0.6568
  702TIP3   OH223740   0.150   5.531   0.675  0.2740  0.3309 -0.0437
  702TIP3    H123741   0.173   5.516   0.584 -1.1509  1.8625 -0.7075
  702TIP3    H223742   0.069   5.481   0.688 -0.9934  2.1608 -0.4487
  703TIP3   OH223743   3.384   0.804   0.776 -0.4867  0.1572 -0.5444
  703TIP3    H123744   3.302   0.817   0.728 -0.0632  1.1892 -1.0031
  703TIP3    H223745   3.365   0.733   0.837 -1.3358 -0.5121 -1.5542
  704TIP3   OH223746   1.155   0.321   6.689 -0.3803  0.4366  0.5192
  704TIP3    H123747   1.063   0.342   6.699 -0.6588 -0.4892  0.0283
  704TIP3    H223748   1.160   0.226   6.704  0.2557  0.2237 -0.8618
  705TIP3   OH223749   5.439   4.724   7.950  0.2506  0.3713  0.1677
  705TIP3    H123750   5.359   4.684   7.984 -0.2198 -0.2688 -1.5826
  705TIP3    H223751   5.509   4.677   7.994 -0.3169 -1.4900 -0.7751
  706TIP3   OH223752   3.250   2.203   0.476 -0.0828  0.3941 -0.1929
  706TIP3    H123753   3.317   2.149   0.435 -0.1971 -1.5276  1.9236
  706TIP3    H223754   3.299   2.269   0.525  0.0821  1.5730 -1.8478
  707TIP3   OH223755   6.258   3.702   1.075  0.1486  0.1556 -0.1140
  707TIP3    H123756   6.342   3.656   1.082 -0.7655 -1.4745  0.6327
  707TIP3    H223757   6.257   3.737   0.986  1.0288 -0.9744 -0.5837
  708TIP3   OH223758   4.429   2.446   2.100  0.4265  0.3926 -0.0283
  708TIP3    H123759   4.339   2.417   2.117  0.1970  0.0843 -1.6082
  708TIP3    H223760   4.480   2.410   2.172 -0.6191  0.0624  0.5723
  709TIP3   OH223761   5.255   0.500   8.490 -0.7911  0.6151 -0.3445
  709TIP3    H123762   5.205   0.459   8.419 -0.2240 -1.4988  0.3923
  709TIP3    H223763   5.341   0.516   8.452 -0.4279 -0.6946 -0.1220
  710TIP3   OH223764   3.975   0.796   8.756  0.0833 -0.3918 -0.4294
  710TIP3    H123765   3.905   0.752   8.804  0.5484 -0.5270  0.1214
  710TIP3    H223766   3.954   0.780   8.664 -0.3603 -0.8199 -0.2569
  711TIP3   OH223767   6.024   3.128   7.960  0.4792 -0.0424 -0.6497
  711TIP3    H123768   5.944   3.086   7.930  0.8393  0.5558 -2.5687
  711TIP3    H223769   6.032   3.102   8.052 -2.4523  0.7130 -0.0961
  712TIP3   OH223770   6.171   3.014   7.320  0.0525  0.1897  0.1108
  712TIP3    H123771   6.227   2.940   7.340 -1.7795 -1.0263  1.0470
  712TIP3    H223772   6.216   3.060   7.249  2.3868 -0.4511  1.1118
  713TIP3   OH223773   5.357   3.813   6.981 -0.2019  0.1493 -0.5353
  713TIP3    H123774   5.296   3.831   7.053 -0.9654  1.6811 -1.4943
  713TIP3    H223775   5.319   3.860   6.906  1.5302  0.1305 -1.4673
  714TIP3   OH223776   2.488   5.907   0.290  0.0351 -0.2116  0.6452
  714TIP3    H123777   2.518   5.977   0.231  1.4096  0.4329  2.0623
  714TIP3    H223778   2.406   5.941   0.326 -0.4184 -0.2793 -0.2895
  715TIP3   OH223779   6.222   0.229   8.884  0.6803  0.2957 -0.0591
  715TIP3    H123780   6.211   0.208   8.791 -0.3720  2.1968 -0.4141
  715TIP3    H223781   6.201   0.322   8.890  0.4932  0.1548  2.1320
  716TIP3   OH223782   2.192   4.777   8.904 -0.8970  0.3291 -0.2003
  716TIP3    H123783   2.183   4.691   8.945 -0.3463  0.0105 -0.7315
  716TIP3    H223784   2.258   4.822   8.956 -2.3111  1.0480  1.0549
  717TIP3   OH223785   4.870   2.161   8.121 -0.3040  0.7656 -0.2106
  717TIP3    H123786   4.875   2.229   8.053 -0.4376  0.2864 -0.7033
  717TIP3    H223787   4.942   2.102   8.101 -0.1706  0.7712  0.2376
  718TIP3   OH223788   2.179   2.409   7.282 -0.3811  0.1707 -0.1952
  718TIP3    H123789   2.170   2.332   7.340 -2.2515 -0.1652 -0.8301
  718TIP3    H223790   2.155   2.483   7.337 -2.6000 -0.1962 -0.5657
  719TIP3   OH223791   3.155   5.176   1.574 -0.0795 -0.7301 -0.2456
  719TIP3    H123792   3.218   5.223   1.520 -0.4436  0.2092  0.1262
  719TIP3    H223793   3.075   5.174   1.521 -0.6145  0.7038  0.4481
  720TIP3   OH223794   2.821   0.092   0.073  0.6453  0.1740 -0.4529
  720TIP3    H123795   2.816   0.061   0.163 -0.3041 -0.5825 -0.7475
  720TIP3    H223796   2.913   0.115   0.060  0.6773  0.9154  0.8970
  721TIP3   OH223797   6.346   3.219   0.533  0.3435  0.2085  0.6598
  721TIP3    H123798   6.285   3.218   0.459 -0.0771 -0.1647  1.0012
  721TIP3    H223799   6.293   3.246   0.608  1.0692  1.9058  0.5906
  722TIP3   OH223800   4.326   2.650   6.333  0.4561  0.2003 -0.5504
  722TIP3    H123801   4.417   2.623   6.328 -0.5111 -3.4566 -1.1166
  722TIP3    H223802   4.292   2.635   6.245 -1.0211  0.2310 -0.0131
  723TIP3   OH223803   4.919   3.663   1.251  0.2770  0.6228  0.0305
  723TIP3    H123804   4.920   3.684   1.344 -1.4902 -0.3719  0.3171
  723TIP3    H223805   4.989   3.599   1.239 -0.4425 -0.3719  0.9893
  724TIP3   OH223806   0.325   4.809   6.874 -0.1620  0.5455 -0.7242
  724TIP3    H123807   0.407   4.772   6.842  0.1080  0.1779  0.3526
  724TIP3    H223808   0.332   4.903   6.855  1.1200  0.7573  0.5467
  725TIP3   OH223809   4.752   3.032   8.164 -0.0144  0.1289 -0.0336
  725TIP3    H123810   4.705   3.030   8.248 -0.3943 -0.0692 -0.2464
  725TIP3    H223811   4.813   2.958   8.169  0.0398  0.1839  0.1125
  726TIP3   OH223812   5.629   3.022   1.610  0.1991  0.0375  0.3487
  726TIP3    H123813   5.710   2.972   1.597  1.2170  1.6535  0.2199
  726TIP3    H223814   5.559   2.958   1.596  1.3439 -0.6853 -3.0670
  727TIP3   OH223815   4.545   6.762   1.683 -0.0211  0.1173  0.4179
  727TIP3    H123816   4.631   6.800   1.698 -0.0038  0.3222 -0.1897
  727TIP3    H223817   4.555   6.670   1.707  0.8337 -0.2582 -1.2436
  728TIP3   OH223818   4.513   1.960   7.213 -0.1332  0.3394  0.0060
  728TIP3    H123819   4.547   1.874   7.237 -0.5645 -0.2604 -1.4264
  728TIP3    H223820   4.567   2.022   7.263  0.4925 -0.7313  0.6959
  729TIP3   OH223821   0.813   1.013   8.363 -0.5569  0.0336  0.5152
  729TIP3    H123822   0.780   0.936   8.316 -0.8881  0.1413  0.5702
  729TIP3    H223823   0.737   1.070   8.372 -0.3004  0.3892  0.4365
  730TIP3   OH223824   1.323   1.620   8.210 -0.1649  0.0106 -0.1532
  730TIP3    H123825   1.382   1.672   8.155 -0.8434  0.5438 -0.3830
  730TIP3    H223826   1.321   1.534   8.168 -0.3897  0.3065 -0.7657
  731TIP3   OH223827   5.119   0.006   0.693  0.0646  0.3760  0.7987
  731TIP3    H123828   5.054   0.015   0.624  0.7895  0.4049  0.1094
  731TIP3    H223829   5.069  -0.021   0.770 -0.4678 -1.8688 -0.2781
  732TIP3   OH223830   5.746   4.988   1.115 -0.8750  0.0223 -0.3168
  732TIP3    H123831   5.790   5.057   1.066 -0.8377  0.6148  0.5361
  732TIP3    H223832   5.717   4.925   1.048  0.2816  0.1790 -0.9787
  733TIP3   OH223833   1.974   1.920   1.200 -0.1743 -0.1128 -0.4462
  733TIP3    H123834   1.884   1.890   1.209 -0.4586  0.5535 -1.0394
  733TIP3    H223835   2.002   1.888   1.115 -0.6430  1.6674 -1.3128
  734TIP3   OH223836   4.053   4.847   1.362  0.0836 -0.0352 -0.0120
  734TIP3    H123837   4.023   4.756   1.364  2.3394 -0.8104  1.1899
  734TIP3    H223838   4.059   4.869   1.269  0.3565 -1.4111 -0.3325
  735TIP3   OH223839   2.858   0.501   8.384  0.2136  0.8599  0.4945
  735TIP3    H123840   2.784   0.540   8.337  0.9118  1.1184 -0.4264
  735TIP3    H223841   2.919   0.477   8.315  0.3607 -0.6995  1.1462
  736TIP3   OH223842   3.292   5.797   7.868 -0.8216 -0.2398  0.3843
  736TIP3    H123843   3.370   5.747   7.892  0.1338  0.4871 -1.1146
  736TIP3    H223844   3.268   5.844   7.948  0.2374 -0.5063  0.8749
  737TIP3   OH223845   4.448   4.376   1.430 -0.0058  0.5839 -0.5099
  737TIP3    H123846   4.366   4.415   1.400 -0.5840 -1.4327 -1.7310
  737TIP3    H223847   4.444   4.381   1.525 -1.0974  1.3420 -0.5766
  738TIP3   OH223848   0.192   3.640   8.048 -0.3599 -0.5006  0.7452
  738TIP3    H123849   0.178   3.549   8.020  0.2868 -0.0424 -1.2550
  738TIP3    H223850   0.285   3.643   8.072  0.0235 -0.0644 -0.6693
  739TIP3   OH223851   5.935   4.064   0.289 -0.0536 -0.3374 -0.1414
  739TIP3    H123852   5.893   4.015   0.360 -1.9650  1.7865  0.2994
  739TIP3    H223853   6.012   4.103   0.329 -0.3826 -0.2653  0.4394
  740TIP3   OH223854   0.256   3.209   1.649  0.6990 -0.2150  0.4845
  740TIP3    H123855   0.192   3.221   1.719 -0.5289 -1.9762 -0.2799
  740TIP3    H223856   0.272   3.115   1.645  1.6052 -0.0430 -0.8616
  741TIP3   OH223857   3.003   3.307   0.958 -0.2681 -0.1317  0.1130
  741TIP3    H123858   3.097   3.326   0.966 -0.2602 -0.5260  1.1046
  741TIP3    H223859   2.960   3.376   1.009 -0.5572  0.2846 -0.6687
  742TIP3   OH223860   5.859   0.714   7.909  0.1029 -0.1219  0.7717
  742TIP3    H123861   5.866   0.681   7.999  1.8307  0.0030  0.7097
  742TIP3    H223862   5.893   0.803   7.913  0.1483 -0.0987 -0.0092
  743TIP3   OH223863   2.714   1.133   0.949  0.0168 -0.4036 -0.2199
  743TIP3    H123864   2.666   1.118   1.031 -0.6397 -2.1246 -0.8793
  743TIP3    H223865   2.783   1.067   0.949  1.1695  0.7634 -0.2298
  744TIP3   OH223866   0.465   6.529   6.721  0.3647 -0.5251 -0.4429
  744TIP3    H123867   0.404   6.590   6.679  0.2422  0.8603  1.5960
  744TIP3    H223868   0.410   6.454   6.745 -0.1865 -0.0393 -0.1562
  745TIP3   OH223869   4.805   3.994   0.850  0.7142 -0.2190 -0.1038
  745TIP3    H123870   4.882   3.986   0.793  0.9880  0.1339  0.2176
  745TIP3    H223871   4.836   3.966   0.936  0.9893  1.7226  0.4612
  746TIP3   OH223872   3.227   1.774   0.386  0.4762  0.2329 -0.1985
  746TIP3    H123873   3.164   1.737   0.448  1.1045 -2.1431 -0.8673
  746TIP3    H223874   3.285   1.827   0.440 -0.1280 -0.2302  0.9422
  747TIP3   OH223875   2.535   2.656   2.884  0.3524  1.0167 -0.1877
  747TIP3    H123876   2.591   2.726   2.850  0.8718  0.4823 -0.4678
  747TIP3    H223877   2.579   2.628   2.964  2.3169 -1.5172 -1.9633
  748TIP3   OH223878   0.342   0.751   8.023 -0.4726  0.0808 -0.1154
  748TIP3    H123879   0.354   0.765   8.117 -2.1096 -1.0262  0.3159
  748TIP3    H223880   0.260   0.796   8.002  0.7252  1.7675 -1.4243
  749TIP3   OH223881   3.454   0.257   8.412 -0.4418 -0.1014  0.3149
  749TIP3    H123882   3.420   0.192   8.351 -0.9512 -0.6319  1.1438
  749TIP3    H223883   3.538   0.222   8.441  0.8574  1.1579 -1.6497
  750TIP3   OH223884   1.875   4.638   2.144  0.9027  0.1060  0.1539
  750TIP3    H123885   1.859   4.560   2.197  0.4517  0.6466  0.8324
  750TIP3    H223886   1.971   4.642   2.136  0.8872 -1.4847 -1.4057
  751TIP3   OH223887   2.912   1.073   8.399 -0.3280 -0.7083 -0.0146
  751TIP3    H123888   2.919   0.978   8.401 -1.5374 -0.8713 -1.5782
  751TIP3    H223889   2.820   1.090   8.381 -0.2125  0.7754  0.6712
  752TIP3   OH223890   2.662   6.765   1.754  0.1114  0.0580 -0.5401
  752TIP3    H123891   2.699   6.694   1.701 -2.3580 -0.8872 -1.1556
  752TIP3    H223892   2.627   6.721   1.831  2.8489  1.3142  1.5720
  753TIP3   OH223893   5.955   1.990   7.529 -0.2355 -0.1671  0.2328
  753TIP3    H123894   5.913   2.053   7.588  3.0290  1.7067  0.7707
  753TIP3    H223895   5.981   2.042   7.453  1.2832 -1.1658  0.0255
  754TIP3   OH223896   6.640   2.962   8.419 -0.2842 -0.6037  0.4871
  754TIP3    H123897   6.596   2.930   8.340  0.3022 -0.1361 -0.0432
  754TIP3    H223898   6.705   2.894   8.439  0.1864 -0.3025  0.0241
  755TIP3   OH223899   4.646   1.311   8.825 -0.2381 -0.1732 -0.2520
  755TIP3    H123900   4.562   1.277   8.795  0.4523 -0.9281 -1.3890
  755TIP3    H223901   4.709   1.245   8.799  0.6133 -0.0836  1.4538
  756TIP3   OH223902   1.891   5.668   7.389  0.7992 -0.6718 -0.7026
  756TIP3    H123903   1.883   5.660   7.294 -0.0050 -0.8346 -0.6307
  756TIP3    H223904   1.937   5.588   7.416 -1.1842 -1.8801 -0.7142
  757TIP3   OH223905   3.795   2.119   0.379  0.0156  0.1981  0.4866
  757TIP3    H123906   3.776   2.063   0.305  1.9706 -0.5974  0.5152
  757TIP3    H223907   3.818   2.059   0.450 -0.0921  0.9746  1.2001
  758TIP3   OH223908   0.382   0.919   1.011  0.1051 -0.6008 -0.0939
  758TIP3    H123909   0.292   0.912   1.043 -0.3694  1.3343 -0.8704
  758TIP3    H223910   0.401   0.834   0.972 -1.5670 -0.8857 -0.3296
  759TIP3   OH223911   0.137   4.525   1.027  0.4003 -0.6018 -0.1310
  759TIP3    H123912   0.127   4.434   0.997 -0.5413 -0.5958  0.1522
  759TIP3    H223913   0.162   4.573   0.948  1.0010 -1.1219 -0.2620
  760TIP3   OH223914   2.460   1.617   8.116 -0.2100  0.0409 -0.1246
  760TIP3    H123915   2.544   1.571   8.113  0.1410  0.6683  0.0140
  760TIP3    H223916   2.395   1.549   8.096  0.3609 -0.3560 -0.6586
  761TIP3   OH223917   6.260   4.464   0.032 -0.0881 -0.5231  0.3275
  761TIP3    H123918   6.273   4.547  -0.013  1.6073 -1.3960 -0.9564
  761TIP3    H223919   6.348   4.440   0.062 -0.8440 -0.9999  2.3022
  762TIP3   OH223920   3.017   2.216   8.770  0.2322 -0.2942 -0.2290
  762TIP3    H123921   3.004   2.196   8.678  0.9986 -0.8951 -0.2208
  762TIP3    H223922   2.937   2.187   8.813 -1.7344  3.2486 -1.1000
  763TIP3   OH223923   1.213   5.737   7.064 -0.4297 -0.5541  0.0146
  763TIP3    H123924   1.136   5.747   7.008 -0.1684  1.2371 -0.1010
  763TIP3    H223925   1.286   5.726   7.003 -0.1909  1.0542 -0.0318
  764TIP3   OH223926   2.117   0.609   7.195 -0.0693 -1.0110  0.3022
  764TIP3    H123927   2.119   0.664   7.272  0.8852  2.4464 -1.9718
  764TIP3    H223928   2.025   0.580   7.189 -0.8482  1.0874  1.1743
  765TIP3   OH223929   5.953   1.165   0.972 -0.5209 -0.5945 -0.1930
  765TIP3    H123930   5.876   1.188   0.920 -0.3982 -0.9063 -0.5143
  765TIP3    H223931   5.943   1.072   0.990 -1.1093 -0.2769  1.2620
  766TIP3   OH223932   6.581   4.756   0.084  0.0848  0.0845 -0.0022
  766TIP3    H123933   6.604   4.840   0.044 -1.4832  0.3253 -0.5092
  766TIP3    H223934   6.546   4.705   0.011 -0.4315 -0.4199  0.5853
  767TIP3   OH223935   4.941   4.465   7.903 -0.5778 -0.5927 -0.0566
  767TIP3    H123936   4.854   4.480   7.865 -1.4506 -0.8176  1.7684
  767TIP3    H223937   4.964   4.547   7.945  0.6181 -0.1779 -1.4209
  768TIP3   OH223938   2.743   3.948   0.851  0.2613  0.2554  0.0228
  768TIP3    H123939   2.696   3.879   0.898 -0.9514  0.9963 -0.0424
  768TIP3    H223940   2.748   3.916   0.761  0.8380 -0.3013  0.2494
  769TIP3   OH223941   3.588   5.113   1.205 -1.0554  0.0579 -0.0746
  769TIP3    H123942   3.629   5.043   1.257 -2.2291 -1.2654 -0.8742
  769TIP3    H223943   3.659   5.146   1.150  0.0253  0.9571  1.7641
  770TIP3   OH223944   6.050   5.707   1.107 -0.3171 -0.3808 -0.5838
  770TIP3    H123945   6.099   5.630   1.079  1.2121  0.3433  0.0053
  770TIP3    H223946   5.997   5.676   1.181 -1.3763 -1.3506 -1.7160
  771TIP3   OH223947   6.361   5.252   8.404 -0.2171  0.0444  0.3065
  771TIP3    H123948   6.271   5.264   8.373 -0.1598  0.2767  0.2267
  771TIP3    H223949   6.410   5.321   8.361  0.0062 -0.0991  0.3313
  772TIP3   OH223950   2.578   3.281   8.517 -0.4421  0.1525 -0.0279
  772TIP3    H123951   2.496   3.287   8.468 -1.7281 -0.4644  1.9280
  772TIP3    H223952   2.591   3.368   8.554  0.1236  0.4083 -0.7968
  773TIP3   OH223953   4.982   3.865   0.348 -0.4614 -0.0929 -0.3933
  773TIP3    H123954   5.033   3.910   0.280 -0.0411 -1.6780 -1.1986
  773TIP3    H223955   5.046   3.847   0.417 -0.0928 -1.2787 -1.0075
  774TIP3   OH223956   2.148   6.624   1.325 -0.3268  0.6052 -0.0465
  774TIP3    H123957   2.104   6.709   1.326  1.0913  1.3934 -0.6095
  774TIP3    H223958   2.186   6.618   1.237 -0.5066 -0.6732 -0.0545
  775TIP3   OH223959   1.024   5.523   7.243 -0.2078  0.3305 -0.4776
  775TIP3    H123960   0.992   5.520   7.334  1.0695 -0.7284 -0.0213
  775TIP3    H223961   1.029   5.616   7.222 -0.2150  0.6019  0.6594
  776TIP3   OH223962   2.872   4.952   7.197 -0.5210 -0.0652 -0.7679
  776TIP3    H123963   2.798   4.891   7.196  0.4155 -1.2323 -1.6206
  776TIP3    H223964   2.927   4.924   7.124  2.6291 -1.6086  1.8984
  777TIP3   OH223965   2.172   6.696   7.232 -0.2573  0.5294  0.6668
  777TIP3    H123966   2.198   6.690   7.324  0.6039 -1.7345  0.3344
  777TIP3    H223967   2.251   6.675   7.183 -0.9903  0.5334 -0.5714
  778TIP3   OH223968   2.238   3.500   7.639  0.3014 -0.4759 -0.0008
  778TIP3    H123969   2.232   3.516   7.733 -0.3035 -1.0158  0.0606
  778TIP3    H223970   2.147   3.488   7.611  0.4794 -0.3588 -0.6453
  779TIP3   OH223971   1.374   3.708   0.626  0.4311 -0.0864  0.2475
  779TIP3    H123972   1.377   3.802   0.604 -1.2138 -0.2854 -0.9845
  779TIP3    H223973   1.323   3.704   0.706 -0.0635  0.0293 -0.0562
  780TIP3   OH223974   5.721   2.795   1.065  0.5312 -0.4209 -0.3609
  780TIP3    H123975   5.659   2.723   1.058  0.9037 -0.6513 -1.4905
  780TIP3    H223976   5.669   2.873   1.048  0.4433 -0.5732 -0.8090
  781TIP3   OH223977   5.691   6.371   1.042 -0.0485 -0.4287 -0.2787
  781TIP3    H123978   5.681   6.447   1.100 -0.2458 -1.6286  1.3390
  781TIP3    H223979   5.760   6.396   0.981 -1.3014  1.6979 -0.9413
  782TIP3   OH223980   5.644   4.595   1.431 -0.4548 -0.0900 -0.4430
  782TIP3    H123981   5.683   4.680   1.411  0.0867 -0.4271 -0.8643
  782TIP3    H223982   5.706   4.554   1.491 -0.7897 -0.1243 -0.1187
  783TIP3   OH223983   3.839   6.183   6.998 -0.2029 -0.4540 -0.3884
  783TIP3    H123984   3.801   6.115   7.052 -0.4892  0.0953  0.1061
  783TIP3    H223985   3.846   6.143   6.911  0.3755 -1.3820  0.0653
  784TIP3   OH223986   0.762   3.036   7.886 -0.2620 -0.2608  0.2127
  784TIP3    H123987   0.725   2.965   7.940 -0.4301 -1.3520 -1.2716
  784TIP3    H223988   0.712   3.114   7.911  0.1062 -0.5744  2.0877
  785TIP3   OH223989   3.291   5.807   1.450  0.3174 -0.2305  0.3789
  785TIP3    H123990   3.241   5.841   1.376 -0.4178 -2.0197 -0.0027
  785TIP3    H223991   3.226   5.765   1.506  1.2278 -1.7565  0.3637
  786TIP3   OH223992   1.235   2.124   8.709  0.1637 -0.2746 -0.3422
  786TIP3    H123993   1.264   2.038   8.679  2.1562  0.1108  0.3204
  786TIP3    H223994   1.311   2.160   8.755 -0.2992  2.2079 -1.3487
  787TIP3   OH223995   6.107   1.069   8.647  0.2715  0.0464  0.5105
  787TIP3    H123996   6.179   1.096   8.591 -0.1754  0.2165  0.0098
  787TIP3    H223997   6.043   1.030   8.587 -0.2141  0.2422  0.8956
  788TIP3   OH223998   6.317   4.260   2.758  0.5209 -0.3562  0.3250
  788TIP3    H123999   6.322   4.346   2.802 -2.8532  0.3197 -0.3318
  788TIP3    H224000   6.254   4.273   2.687  1.8125 -2.7967 -1.3904
  789TIP3   OH224001   0.926   1.317   2.184  0.2515  0.3578  0.1256
  789TIP3    H124002   0.925   1.317   2.280 -2.0418 -1.1773  0.1749
  789TIP3    H224003   0.866   1.388   2.159 -0.0058  0.0481 -0.1453
  790TIP3   OH224004   5.402   3.512   1.370 -0.2771  0.2087 -0.3958
  790TIP3    H124005   5.382   3.443   1.433 -2.8070  0.9641 -0.2525
  790TIP3    H224006   5.496   3.502   1.352  0.1198 -1.2296  2.0044
  791TIP3   OH224007   3.435   5.480   0.879  0.4465  0.1821 -0.8315
  791TIP3    H124008   3.460   5.475   0.787 -0.5405  0.0975 -1.1094
  791TIP3    H224009   3.402   5.569   0.890  0.8507  0.2916 -0.4754
  792TIP3   OH224010   1.976   4.144   8.547 -0.1144  0.0358  0.4290
  792TIP3    H124011   2.025   4.196   8.611  0.3102 -0.0162  0.1504
  792TIP3    H224012   1.901   4.199   8.525 -0.3690 -0.0309  1.1171
  793TIP3   OH224013   3.122   5.646   7.295 -0.4790 -0.0056  0.0114
  793TIP3    H124014   3.134   5.694   7.377 -0.7912  0.1318 -0.0210
  793TIP3    H224015   3.210   5.635   7.260 -0.4024  0.5424  0.0230
  794TIP3   OH224016   5.390   6.095   7.409 -0.7408  0.0452 -0.1344
  794TIP3    H124017   5.386   5.999   7.405 -0.7409  0.0405 -0.0309
  794TIP3    H224018   5.482   6.115   7.420 -0.6164  0.1030 -1.2281
  795TIP3   OH224019   2.211   0.980   1.420  0.0510 -0.1541  0.7729
  795TIP3    H124020   2.204   0.940   1.333  0.8793  0.6462  0.3274
  795TIP3    H224021   2.231   0.906   1.478 -0.4651 -0.6889  0.2879
  796TIP3   OH224022   5.888   5.585   1.309 -0.6716 -0.2642  0.4921
  796TIP3    H124023   5.813   5.572   1.250 -0.3502  0.6519 -0.1448
  796TIP3    H224024   5.858   5.649   1.372 -0.0151  1.1535 -0.5807
  797TIP3   OH224025   4.576   4.591   7.999 -0.2434  0.2327  0.2433
  797TIP3    H124026   4.625   4.509   7.997  0.3080  0.5783 -0.7264
  797TIP3    H224027   4.493   4.571   7.957 -0.7390 -0.2059  1.3802
  798TIP3   OH224028   3.903   2.580   6.200 -0.1331 -0.8788 -0.6420
  798TIP3    H124029   3.849   2.618   6.269 -0.6051  0.2855 -1.6293
  798TIP3    H224030   3.930   2.654   6.147  0.2147 -1.7578 -1.7241
  799TIP3   OH224031   1.210   0.735   0.383  0.1313 -0.4948  0.1831
  799TIP3    H124032   1.158   0.669   0.337 -0.0209 -0.3097  0.0905
  799TIP3    H224033   1.166   0.746   0.467  0.0828 -0.4183  0.1480
  800TIP3   OH224034   2.706   1.302   0.434  0.6397  0.3345 -0.5570
  800TIP3    H124035   2.612   1.306   0.419  0.6397  1.3359 -0.2883
  800TIP3    H224036   2.716   1.247   0.512  0.1977  1.3109  0.1982
  801TIP3   OH224037   4.894   6.807   7.767  0.0996 -0.2128  0.2685
  801TIP3    H124038   4.959   6.801   7.837  1.4273 -1.5281 -1.0125
  801TIP3    H224039   4.859   6.896   7.775  1.5095  0.2745  1.4635
  802TIP3   OH224040   4.093   3.202   8.411  0.3353 -0.1407  0.2202
  802TIP3    H124041   4.133   3.187   8.325  2.5082  2.9388  0.5072
  802TIP3    H224042   4.032   3.274   8.396  0.2925  0.0266  1.1293
  803TIP3   OH224043   5.621   6.116   1.156 -0.0076 -0.5137  0.2204
  803TIP3    H124044   5.698   6.101   1.211  1.7152  0.1609 -1.8727
  803TIP3    H224045   5.645   6.191   1.101 -0.0125 -3.2691 -4.0016
  804TIP3   OH224046   2.493   3.183   0.273 -0.6843 -0.3870  0.0179
  804TIP3    H124047   2.450   3.110   0.317 -1.0873 -0.1162  0.0824
  804TIP3    H224048   2.421   3.240   0.244 -0.4062 -0.3405 -0.6065
  805TIP3   OH224049   4.218   0.842   6.985 -0.1783 -0.5804 -0.6530
  805TIP3    H124050   4.269   0.922   7.001  1.5001 -1.3622 -1.7622
  805TIP3    H224051   4.128   0.867   7.003  0.3416  1.4633 -0.6054
  806TIP3   OH224052   6.628   5.995   0.250  0.0642 -0.1168 -0.6540
  806TIP3    H124053   6.548   5.942   0.254  0.0607 -0.2770 -2.2311
  806TIP3    H224054   6.610   6.069   0.309 -0.4801 -1.1047  0.4715
  807TIP3   OH224055   4.885   0.168   0.244 -0.5461 -0.1731  0.2582
  807TIP3    H124056   4.873   0.074   0.229  0.6486 -0.4318  0.7190
  807TIP3    H224057   4.846   0.183   0.330 -0.1756 -0.3909  0.4692
  808TIP3   OH224058   5.333   2.088   0.492  0.7613  0.4167  0.2269
  808TIP3    H124059   5.285   2.052   0.566  0.6432  0.6305  0.2568
  808TIP3    H224060   5.284   2.167   0.468  0.1921 -0.2179 -0.7604
  809TIP3   OH224061   6.265   0.049   2.319  0.2176 -0.0479  0.3384
  809TIP3    H124062   6.251   0.062   2.413 -3.4022 -2.6868  0.3919
  809TIP3    H224063   6.255  -0.046   2.307 -0.6651  0.3315 -2.8313
  810TIP3   OH224064   0.100   6.558   7.952  0.3270 -0.1267  0.1973
  810TIP3    H124065   0.185   6.602   7.951 -0.2693  1.0614 -0.5011
  810TIP3    H224066   0.121   6.465   7.946  1.5731  0.1409  0.1053
  811TIP3   OH224067   0.568   1.807   7.156  0.2147  0.2150 -0.1628
  811TIP3    H124068   0.592   1.890   7.198 -0.3282  0.4543 -0.3068
  811TIP3    H224069   0.488   1.827   7.107 -1.3473 -0.9245  1.7313
  812TIP3   OH224070   4.383   4.472   7.848 -0.1044  0.5833  0.6171
  812TIP3    H124071   4.335   4.397   7.811  0.5225  0.0311  0.9055
  812TIP3    H224072   4.330   4.548   7.825  0.3247  0.2860 -1.5871
  813TIP3   OH224073   1.136   1.023   7.959  0.1096 -0.1048  0.5195
  813TIP3    H124074   1.082   1.096   7.926 -1.1386 -1.6270 -1.0260
  813TIP3    H224075   1.097   0.945   7.919  1.7579 -1.5795  1.6499
  814TIP3   OH224076   0.354   2.334   6.815  0.0787 -0.3936  0.0040
  814TIP3    H124077   0.323   2.276   6.746  1.1541 -1.8457  0.7073
  814TIP3    H224078   0.355   2.421   6.773 -0.7159 -0.9793 -1.3259
  815TIP3   OH224079   1.479   0.653   1.075 -0.1802 -0.1711  0.3441
  815TIP3    H124080   1.546   0.697   1.022 -1.9169  2.1976 -0.0551
  815TIP3    H224081   1.507   0.668   1.165 -0.3472  1.1594  0.1941
  816TIP3   OH224082   3.735   3.076   7.938  0.1656 -0.0707  0.1070
  816TIP3    H124083   3.783   3.003   7.900  1.2460  0.1542  0.9888
  816TIP3    H224084   3.655   3.082   7.886  0.8586 -0.7736 -1.0794
  817TIP3   OH224085   5.595   5.782   1.507  0.6870 -0.1213 -0.0883
  817TIP3    H124086   5.584   5.833   1.428 -0.8397 -0.2493  0.0146
  817TIP3    H224087   5.571   5.841   1.578 -0.9307 -0.8713  0.0437
  818TIP3   OH224088   3.358   5.202   1.810 -0.3431  0.4442 -0.0515
  818TIP3    H124089   3.292   5.235   1.871 -1.7813 -1.0698 -0.7069
  818TIP3    H224090   3.331   5.236   1.725 -0.5223 -0.4728 -0.3789
  819TIP3   OH224091   0.060   5.458   7.224 -0.1517 -0.4920 -0.3307
  819TIP3    H124092   0.068   5.442   7.130 -1.8204  0.7457 -0.7142
  819TIP3    H224093   0.042   5.551   7.232 -0.2471 -0.6080  1.2198
  820TIP3   OH224094   2.196   0.226   8.813  0.0841  0.2184 -0.5983
  820TIP3    H124095   2.261   0.163   8.780 -0.9225 -0.7596 -0.7831
  820TIP3    H224096   2.117   0.173   8.827 -0.2123  1.0451  1.1882
  821TIP3   OH224097   4.701   6.270   0.657 -0.0055 -0.2381  0.1162
  821TIP3    H124098   4.795   6.285   0.664  0.3370 -1.1566 -1.9306
  821TIP3    H224099   4.664   6.357   0.640  0.2519  0.3623  2.3289
  822TIP3   OH224100   3.137   1.521   7.759  0.2520 -0.3248  0.0724
  822TIP3    H124101   3.184   1.477   7.830 -0.5368 -2.9229 -0.9198
  822TIP3    H224102   3.196   1.516   7.684  0.2161  0.5307 -0.0308
  823TIP3   OH224103   4.294   3.127   7.171 -0.8549 -0.6333 -0.2747
  823TIP3    H124104   4.346   3.097   7.097  1.0870  1.3261  0.1953
  823TIP3    H224105   4.241   3.198   7.136 -0.4747 -0.1876  0.0458
  824TIP3   OH224106   4.293   1.721   6.234 -0.2109 -0.5205 -0.1151
  824TIP3    H124107   4.313   1.786   6.167  0.1699 -1.4492 -0.9362
  824TIP3    H224108   4.253   1.648   6.186 -1.5095 -0.5303  0.9041
  825TIP3   OH224109   3.530   0.881   2.441  0.0089 -0.0537  0.4780
  825TIP3    H124110   3.525   0.972   2.411  0.3422 -0.1439  0.1501
  825TIP3    H224111   3.474   0.833   2.381  1.2677 -0.3557 -0.4817
  826TIP3   OH224112   1.625   2.299   8.007  0.1687 -0.0933 -0.8705
  826TIP3    H124113   1.534   2.330   8.009 -0.2102 -1.1686 -0.3651
  826TIP3    H224114   1.635   2.251   8.090  0.7233 -1.2724 -1.5977
  827TIP3   OH224115   4.575   1.282   8.022 -0.2210  0.2518  0.1179
  827TIP3    H124116   4.481   1.303   8.025 -0.1711  0.8432 -1.5549
  827TIP3    H224117   4.619   1.367   8.028  0.1301  0.1938 -1.3454
  828TIP3   OH224118   6.370   4.536   8.569  0.1925 -0.7058 -0.4063
  828TIP3    H124119   6.283   4.571   8.588  0.7332  0.0943  0.7074
  828TIP3    H224120   6.397   4.580   8.488  0.0353 -0.0467 -0.1098
  829TIP3   OH224121   1.744   0.656   8.629 -0.2648 -0.0816  0.9083
  829TIP3    H124122   1.684   0.635   8.557 -0.3309  1.9384  0.3015
  829TIP3    H224123   1.772   0.571   8.663 -0.5593 -1.0982 -1.2199
  830TIP3   OH224124   2.729   2.341   8.419 -0.5104  0.2716  0.4008
  830TIP3    H124125   2.733   2.412   8.356  0.4371 -0.1522 -0.0197
  830TIP3    H224126   2.693   2.267   8.370  1.5558 -0.4758 -0.0609
  831TIP3   OH224127   3.823   1.889   0.525  0.6664  0.4674  0.4436
  831TIP3    H124128   3.728   1.882   0.529  0.6981  0.1249  0.6350
  831TIP3    H224129   3.855   1.802   0.550  1.0133  0.2941 -0.5305
  832TIP3   OH224130   3.382   3.706   0.093  0.5516 -0.5283  0.0285
  832TIP3    H124131   3.306   3.764   0.089 -0.2690 -1.6109 -0.5525
  832TIP3    H224132   3.431   3.736   0.169  0.1871  0.9608 -0.2937
  833TIP3   OH224133   2.762   3.954   8.227 -0.5771  0.1449  0.5030
  833TIP3    H124134   2.753   3.903   8.146  0.2694 -0.4908  0.7971
  833TIP3    H224135   2.713   4.035   8.210  1.2759  0.9640 -1.4354
  834TIP3   OH224136   5.869   3.078   0.072 -0.3659 -0.1397  0.0115
  834TIP3    H124137   5.960   3.086   0.044 -0.6737  0.5849 -0.8471
  834TIP3    H224138   5.819   3.120   0.001 -1.2874  0.4652  0.9970
  835TIP3   OH224139   5.436   1.131   8.734 -0.3090  0.1917 -0.0647
  835TIP3    H124140   5.467   1.194   8.669 -1.2504 -0.3470 -1.0780
  835TIP3    H224141   5.386   1.067   8.683 -1.6995  0.1526  1.2759
  836TIP3   OH224142   5.915   2.595   8.661  0.2840 -0.1283 -0.6849
  836TIP3    H124143   5.904   2.556   8.748 -1.0452  0.1078 -0.7203
  836TIP3    H224144   5.841   2.656   8.653  1.1537  0.8518 -1.4517
  837TIP3   OH224145   1.728   4.560   1.750  0.3557 -0.3695  0.4694
  837TIP3    H124146   1.738   4.480   1.800  1.6138 -1.2298 -1.0582
  837TIP3    H224147   1.669   4.537   1.679  1.0551 -0.0920 -0.2217
  838TIP3   OH224148   2.820   1.898   8.045  0.0110 -0.3501  0.0295
  838TIP3    H124149   2.835   1.865   8.133 -1.9637 -1.6763 -0.0749
  838TIP3    H224150   2.867   1.837   7.988  1.0597  0.3491  0.1240
  839TIP3   OH224151   6.230   3.517   0.819 -0.1813 -0.1812  0.1867
  839TIP3    H124152   6.294   3.522   0.749  0.2284 -2.0648  0.3772
  839TIP3    H224153   6.274   3.469   0.889 -0.9426  0.7237  1.3335
  840TIP3   OH224154   2.345   5.697   0.591  0.4070 -0.0774 -0.5014
  840TIP3    H124155   2.269   5.754   0.578  0.9038  1.0841  1.3700
  840TIP3    H224156   2.307   5.610   0.603 -0.4778  0.1183 -1.6702
  841TIP3   OH224157   4.723   3.253   0.033  0.0646  0.7087 -0.0736
  841TIP3    H124158   4.807   3.209   0.049 -0.7638 -1.0921 -0.4745
  841TIP3    H224159   4.702   3.231  -0.058 -0.6870  1.4322 -0.0804
  842TIP3   OH224160   0.123   0.726   0.205 -0.1063  0.2002 -0.6637
  842TIP3    H124161   0.167   0.806   0.234 -0.5694  0.1231  0.3085
  842TIP3    H224162   0.071   0.752   0.129  0.4281  0.6200 -0.8892
  843TIP3   OH224163   0.479   1.466   6.795  0.2946  0.1628 -0.0117
  843TIP3    H124164   0.428   1.388   6.819 -1.0879  0.7273 -0.9984
  843TIP3    H224165   0.433   1.539   6.837  0.2822  0.6909 -0.9374
  844TIP3   OH224166   6.175   5.666   1.851 -0.2358 -0.0382  0.2796
  844TIP3    H124167   6.194   5.729   1.920 -1.5849  0.1236  0.5363
  844TIP3    H224168   6.217   5.585   1.880 -0.8933 -0.0083  1.3767
  845TIP3   OH224169   2.401   1.037   0.326  0.1283  0.0494 -0.2810
  845TIP3    H124170   2.470   1.046   0.260 -1.0853  1.5274 -1.4292
  845TIP3    H224171   2.332   0.987   0.282  0.7588 -2.1975  1.1507
  846TIP3   OH224172   4.748   4.537   8.883 -0.1972 -0.2660 -0.5443
  846TIP3    H124173   4.719   4.455   8.843 -0.8684  0.1470 -0.9117
  846TIP3    H224174   4.788   4.510   8.966  1.8013 -1.2050 -1.7292
  847TIP3   OH224175   1.149   0.727   2.086 -0.3890 -0.1305  0.2963
  847TIP3    H124176   1.202   0.792   2.041  0.1404  0.0449  1.1607
  847TIP3    H224177   1.171   0.644   2.043  0.8922 -0.1246  0.9060
  848TIP3   OH224178   3.581   4.745   2.162  0.3001  0.5036 -0.0590
  848TIP3    H124179   3.507   4.739   2.222 -0.3654  1.2895 -0.7625
  848TIP3    H224180   3.560   4.683   2.092  1.2917 -0.7442  0.7171
  849TIP3   OH224181   3.128   4.934   8.476 -0.5549 -0.0257 -0.0994
  849TIP3    H124182   3.197   4.963   8.417 -0.0595  0.3574  0.6445
  849TIP3    H224183   3.091   5.016   8.511 -0.1577 -0.2450  0.8708
  850TIP3   OH224184   2.122   5.105   8.359 -0.2147  0.2440 -0.0627
  850TIP3    H124185   2.028   5.094   8.370 -0.3030  0.0813 -0.9044
  850TIP3    H224186   2.133   5.125   8.266  0.7990 -2.1005 -0.5150
  851TIP3   OH224187   2.306   1.645   0.181 -0.1046 -0.2521 -0.8879
  851TIP3    H124188   2.240   1.713   0.191  0.4722  0.3608 -1.1904
  851TIP3    H224189   2.258   1.563   0.193 -0.6800  0.2180  0.1988
  852TIP3   OH224190   1.126   2.882   8.351  0.3906 -0.6754  0.3979
  852TIP3    H124191   1.214   2.846   8.352  0.9465  0.5908 -0.0237
  852TIP3    H224192   1.133   2.965   8.398 -0.6590 -0.7196  0.6643
  853TIP3   OH224193   4.655   5.656   7.401 -0.0055 -0.2993 -0.2480
  853TIP3    H124194   4.614   5.726   7.351 -2.3141  1.2658  3.4819
  853TIP3    H224195   4.587   5.591   7.412  0.4695 -0.6422  0.7796
  854TIP3   OH224196   2.815   6.280   8.056 -0.0638 -0.0805 -0.4296
  854TIP3    H124197   2.904   6.312   8.070  0.3104 -0.4978 -1.7076
  854TIP3    H224198   2.775   6.345   7.998  0.0099 -0.8071 -1.3117
  855TIP3   OH224199   2.158   5.962   6.543 -0.0870 -0.4483 -0.0183
  855TIP3    H124200   2.178   5.868   6.537 -2.3000 -0.9464 -0.7402
  855TIP3    H224201   2.182   5.997   6.457 -0.6883 -0.6990 -0.2975
  856TIP3   OH224202   4.506   4.797   8.160 -0.0156 -0.0181 -0.7454
  856TIP3    H124203   4.558   4.755   8.091 -0.1350 -2.3437  0.4909
  856TIP3    H224204   4.455   4.864   8.114  1.6878  0.1707 -2.5020
  857TIP3   OH224205   5.644   2.492   7.223 -0.0577 -0.1615 -0.0727
  857TIP3    H124206   5.605   2.579   7.228 -1.4025 -0.7660  0.6498
  857TIP3    H224207   5.643   2.470   7.130  1.4686  1.0721 -0.4198
  858TIP3   OH224208   4.157   4.527   0.612 -0.1584 -0.7551 -0.1269
  858TIP3    H124209   4.166   4.494   0.701  0.8015  0.0810  0.1002
  858TIP3    H224210   4.170   4.450   0.556 -1.9515 -1.5338  0.4354
  859TIP3   OH224211   1.386   0.257   8.849  0.3392 -0.2089  0.6086
  859TIP3    H124212   1.453   0.218   8.906  0.7620 -0.8575 -0.3047
  859TIP3    H224213   1.435   0.311   8.787 -0.2392  1.9265  1.8889
  860TIP3   OH224214   1.079   2.272   1.729 -0.5517 -0.0855  0.9018
  860TIP3    H124215   1.033   2.191   1.753 -0.4947 -0.2876  0.3402
  860TIP3    H224216   1.158   2.242   1.684 -0.7167  0.2788  0.3554
  861TIP3   OH224217   0.127   2.800   2.066 -0.1599  0.4862 -0.2308
  861TIP3    H124218   0.158   2.771   1.980  0.1621  0.6513 -0.1711
  861TIP3    H224219   0.037   2.768   2.071  0.0946 -0.2612 -0.2788
  862TIP3   OH224220   5.039   4.279   2.421 -0.0311  0.0472  0.1724
  862TIP3    H124221   5.104   4.336   2.381 -0.7963  1.5496  0.9917
  862TIP3    H224222   4.968   4.338   2.447 -0.4691 -1.1577  1.8498
  863TIP3   OH224223   3.947   3.792   0.200  0.0639 -0.3119 -0.0432
  863TIP3    H124224   3.943   3.781   0.295  0.9310  0.3430  0.0833
  863TIP3    H224225   3.898   3.873   0.183  0.0584 -0.3332 -0.1319
  864TIP3   OH224226   6.409   1.055   0.212  0.3219 -0.2483  0.4267
  864TIP3    H124227   6.441   0.976   0.256  0.0528 -0.6500 -0.0801
  864TIP3    H224228   6.320   1.067   0.246  0.7871  0.5232  1.3890
  865TIP3   OH224229   6.689   1.085   0.714  0.2786  0.3351  0.0981
  865TIP3    H124230   6.594   1.078   0.706  0.2526  1.7057 -1.5177
  865TIP3    H224231   6.703   1.164   0.766  0.4718  1.4540 -1.5513
  866TIP3   OH224232   2.263   6.577   0.761  0.0252  0.4204 -0.3019
  866TIP3    H124233   2.192   6.529   0.804  1.5788 -2.5200 -0.7751
  866TIP3    H224234   2.221   6.655   0.725 -2.6303 -0.4392  0.7119
  867TIP3   OH224235   2.809   3.014   7.314 -0.2026 -0.0166 -0.3583
  867TIP3    H124236   2.717   3.020   7.289 -0.3382  1.4682  0.4178
  867TIP3    H224237   2.856   3.052   7.240  0.0249 -2.8294 -1.7976
  868TIP3   OH224238   4.152   0.831   0.043  0.1219 -0.1204  0.1841
  868TIP3    H124239   4.067   0.818   0.001  0.4461 -0.4532 -0.3833
  868TIP3    H224240   4.177   0.745   0.076 -0.3006  0.2045  1.4309
  869TIP3   OH224241   0.606   0.060   1.355 -0.1022  0.2199 -0.4156
  869TIP3    H124242   0.607   0.139   1.301 -3.1463 -0.4195 -1.5803
  869TIP3    H224243   0.588  -0.011   1.294  0.0382 -1.0612  0.9622
  870TIP3   OH224244   1.210   6.206   7.124  0.8592  0.6509 -0.0008
  870TIP3    H124245   1.142   6.143   7.146  1.4741 -0.7445 -1.8313
  870TIP3    H224246   1.260   6.217   7.205 -0.8954  0.9375  1.0948
  871TIP3   OH224247   6.809   2.262   8.597  0.3916  0.0574  0.2962
  871TIP3    H124248   6.808   2.206   8.520 -0.7949 -0.5184  0.7096
  871TIP3    H224249   6.771   2.345   8.568 -0.2732 -0.2370  0.3078
  872TIP3   OH224250   4.153   0.766   7.435 -0.2422 -0.1205 -0.7334
  872TIP3    H124251   4.135   0.710   7.510  0.8752  0.0783 -0.2950
  872TIP3    H224252   4.084   0.832   7.438 -0.9386 -0.8502 -0.6253
  873TIP3   OH224253   2.562   1.635   1.052 -0.1474  0.3266 -0.3404
  873TIP3    H124254   2.529   1.545   1.055  0.4849  0.0715 -0.6626
  873TIP3    H224255   2.524   1.672   0.972 -0.6884  0.4671 -0.0245
  874TIP3   OH224256   4.838   3.074   7.582 -0.0511 -0.1881 -0.2595
  874TIP3    H124257   4.865   3.156   7.624  0.6645  0.2627 -1.5526
  874TIP3    H224258   4.877   3.006   7.636 -1.6691  0.2298  1.5613
  875TIP3   OH224259   3.870   2.938   8.267 -0.3557 -0.5726 -0.6140
  875TIP3    H124260   3.934   2.905   8.330  0.0640  0.9386 -0.2088
  875TIP3    H224261   3.785   2.914   8.305 -0.0890 -0.2934  0.1798
  876TIP3   OH224262   6.089   0.872   7.325 -0.0134 -0.2641 -0.0313
  876TIP3    H124263   6.021   0.931   7.291 -0.1105 -0.7810 -0.7542
  876TIP3    H224264   6.066   0.786   7.289 -1.5512 -1.4035  3.3212
  877TIP3   OH224265   2.356   4.260   0.450  0.3276 -0.1732 -0.0849
  877TIP3    H124266   2.307   4.178   0.459  0.3928 -0.3341 -1.1073
  877TIP3    H224267   2.440   4.243   0.491  0.8263 -1.0632 -1.4045
  878TIP3   OH224268   1.179   3.574   2.285  0.0738 -0.1415 -0.0079
  878TIP3    H124269   1.258   3.544   2.241 -0.2967 -1.7203  0.3500
  878TIP3    H224270   1.174   3.522   2.365 -1.7519 -0.6644 -0.4094
  879TIP3   OH224271   2.911   0.909   8.700 -0.2116 -0.2289 -0.0399
  879TIP3    H124272   2.865   0.934   8.779  2.6532  2.2526  1.0470
  879TIP3    H224273   2.889   0.977   8.636 -0.8765 -1.0741 -0.7412
  880TIP3   OH224274   2.047   5.024   6.720 -0.0055  0.0954 -0.0149
  880TIP3    H124275   1.976   4.980   6.673 -1.6394  2.5951 -0.0511
  880TIP3    H224276   2.012   5.040   6.807  1.1458 -0.0833  0.4915
  881TIP3   OH224277   5.553   1.246   1.541  0.0467  0.6960 -0.2019
  881TIP3    H124278   5.525   1.295   1.618  2.9391  1.8811  0.2135
  881TIP3    H224279   5.485   1.263   1.475 -1.4521  1.2744  1.4306
  882TIP3   OH224280   4.006   4.650   7.818  0.3303 -0.3033 -0.1050
  882TIP3    H124281   3.946   4.612   7.882 -0.3130  1.5570  0.4822
  882TIP3    H224282   4.083   4.675   7.869  1.1361 -1.5855 -0.6454
  883TIP3   OH224283   3.815   0.619   0.323  0.7842  0.4323 -0.2696
  883TIP3    H124284   3.814   0.698   0.378 -0.9521  1.0557 -1.1381
  883TIP3    H224285   3.837   0.548   0.384 -1.0863  1.0804  1.2850
  884TIP3   OH224286   2.288   5.234   1.244 -0.1324  0.3149  0.1781
  884TIP3    H124287   2.265   5.186   1.324 -1.6194  0.4820 -0.1292
  884TIP3    H224288   2.264   5.174   1.173 -1.0165  1.0670 -0.1826
  885TIP3   OH224289   2.121   2.937   0.821 -0.4834  0.0832  0.1070
  885TIP3    H124290   2.163   2.946   0.907 -1.3487  0.7391  0.4764
  885TIP3    H224291   2.059   2.865   0.831  1.3713 -1.7633 -0.8048
  886TIP3   OH224292   4.654   5.367   1.777 -0.6924 -0.1827  0.0885
  886TIP3    H124293   4.744   5.338   1.793 -0.3837 -0.3302 -1.7335
  886TIP3    H224294   4.648   5.376   1.682 -1.9658  1.9352  0.3048
  887TIP3   OH224295   2.367   1.691   1.264  0.1589 -0.2708 -0.5416
  887TIP3    H124296   2.439   1.670   1.204  0.4886  0.5531 -0.4400
  887TIP3    H224297   2.381   1.632   1.339 -0.0202 -1.0124 -1.0736
  888TIP3   OH224298   0.386   3.915   0.635 -0.5682  0.7583 -0.2050
  888TIP3    H124299   0.313   3.975   0.620 -0.0631  1.9946  1.9404
  888TIP3    H224300   0.352   3.851   0.697 -0.3364  0.2847 -0.5585
  889TIP3   OH224301   1.148   0.003   8.398 -0.3528 -0.0093 -0.3950
  889TIP3    H124302   1.173   0.002   8.491 -0.0491  1.3515 -0.4390
  889TIP3    H224303   1.112   0.091   8.384  0.5941  0.1877 -1.8115
  890TIP3   OH224304   5.861   1.211   6.974 -0.8375 -0.0422 -0.1389
  890TIP3    H124305   5.769   1.206   6.949 -0.5544  0.4063 -1.3558
  890TIP3    H224306   5.908   1.218   6.891  0.3157 -0.4829  0.4522
  891TIP3   OH224307   6.655   3.353   0.136  0.7088  0.2471 -0.3593
  891TIP3    H124308   6.722   3.349   0.205 -0.3521 -0.8081  0.6303
  891TIP3    H224309   6.604   3.273   0.147 -1.6303  1.6854 -0.1532
  892TIP3   OH224310   3.823   2.411   7.424 -0.1972 -0.0958  0.2155
  892TIP3    H124311   3.793   2.475   7.360  1.1460  0.7857  0.4184
  892TIP3    H224312   3.894   2.364   7.380  0.3428  0.1211  0.8231
  893TIP3   OH224313   2.745   2.640   8.752  0.0691 -0.1791 -0.2788
  893TIP3    H124314   2.702   2.726   8.749  1.0293  0.3748  0.7733
  893TIP3    H224315   2.838   2.660   8.740  0.2410 -1.1497 -0.6147
  894TIP3   OH224316   4.389   5.710   8.618 -0.2249  0.2043 -0.3189
  894TIP3    H124317   4.435   5.757   8.548 -1.8298  1.1167 -0.8066
  894TIP3    H224318   4.459   5.682   8.677  0.9877  1.3067 -1.1535
  895TIP3   OH224319   2.992   3.064   8.747 -0.4087 -0.5030 -0.1478
  895TIP3    H124320   2.912   3.091   8.703 -1.2184 -0.7859  1.0937
  895TIP3    H224321   2.994   2.968   8.736 -0.5811 -0.5665  0.3749
  896TIP3   OH224322   6.207   4.542   6.966 -0.2270 -0.1793 -0.3444
  896TIP3    H124323   6.289   4.505   6.934  0.8613  0.4889  1.5019
  896TIP3    H224324   6.213   4.635   6.941  0.1274  0.1087  0.7785
  897TIP3   OH224325   5.557   4.715   7.425 -0.2849 -0.1643  0.3301
  897TIP3    H124326   5.586   4.769   7.499  2.1337 -0.0616 -0.6110
  897TIP3    H224327   5.627   4.652   7.412  0.0500  0.6546 -2.6555
  898TIP3   OH224328   3.868   2.788   7.189  0.2765  0.2283 -0.1949
  898TIP3    H124329   3.882   2.715   7.249  0.2872 -1.1111 -1.7691
  898TIP3    H224330   3.780   2.774   7.154  0.6155  0.4767 -1.1660
  899TIP3   OH224331   0.948   1.155   7.789 -0.1926  0.1108  0.1079
  899TIP3    H124332   0.950   1.117   7.701  0.4297  2.1877 -0.8266
  899TIP3    H224333   0.867   1.120   7.828 -0.8934 -0.2261 -1.5673
  900TIP3   OH224334   5.646   4.186   2.426  0.7350  0.1964  0.3752
  900TIP3    H124335   5.694   4.247   2.483 -0.5502  0.8723  0.7527
  900TIP3    H224336   5.567   4.233   2.400  0.0633 -1.0471  0.0828
  901TIP3   OH224337   5.848   3.357   8.611 -0.1418  0.0218 -0.0689
  901TIP3    H124338   5.804   3.416   8.550 -0.4926 -1.1817 -1.0131
  901TIP3    H224339   5.901   3.415   8.665 -0.1570  1.1667 -1.2240
  902TIP3   OH224340   5.349   3.878   1.236 -0.1030  0.3038  0.4667
  902TIP3    H124341   5.445   3.868   1.235 -0.2392 -1.8162 -1.8960
  902TIP3    H224342   5.324   3.859   1.326  1.7111  1.3590  1.2477
  903TIP3   OH224343   3.899   6.014   1.481 -0.4207  0.4445  0.1636
  903TIP3    H124344   3.848   6.074   1.426  0.1562  1.2135  0.4329
  903TIP3    H224345   3.919   5.940   1.424  0.1491  1.2182 -0.6759
  904TIP3   OH224346   0.773   4.638   1.823 -0.5184  0.1308  0.0097
  904TIP3    H124347   0.715   4.713   1.807 -0.3431  0.1143 -0.7065
  904TIP3    H224348   0.767   4.624   1.918 -0.4306  1.1578  0.1790
  905TIP3   OH224349   2.038   6.661   0.890  0.0763  0.3621 -0.1396
  905TIP3    H124350   1.990   6.665   0.972  0.9802  3.2424  0.3500
  905TIP3    H224351   1.971   6.666   0.822 -0.7214 -2.5485  0.3004
  906TIP3   OH224352   5.503   1.605   7.328  0.0304  0.1875  0.0403
  906TIP3    H124353   5.514   1.510   7.325  1.5655  0.2312  2.2369
  906TIP3    H224354   5.419   1.620   7.285  0.5483 -1.9626 -1.9491
  907TIP3   OH224355   5.926   0.165   0.048 -0.8434 -0.4534 -0.6857
  907TIP3    H124356   5.880   0.188  -0.033 -0.2721 -0.8429 -1.1378
  907TIP3    H224357   5.994   0.104   0.019 -0.6606 -0.6298  0.1020
  908TIP3   OH224358   4.157   5.051   7.174 -0.6748  0.3238 -0.8177
  908TIP3    H124359   4.173   5.095   7.091 -3.7087  4.5562  0.4556
  908TIP3    H224360   4.062   5.038   7.176 -0.5998 -0.3952  1.6114
  909TIP3   OH224361   3.055   3.699   8.703  0.1191 -0.3543 -0.0765
  909TIP3    H124362   3.140   3.698   8.748 -1.0478  1.0279  2.2770
  909TIP3    H224363   3.004   3.631   8.746  0.1641 -1.6737 -1.9563
  910TIP3   OH224364   5.436   5.159   0.582  0.7245 -0.6500 -0.0391
  910TIP3    H124365   5.474   5.071   0.575 -0.4776 -1.1644 -0.3973
  910TIP3    H224366   5.457   5.201   0.499  1.5501 -0.4890  0.2448
  911TIP3   OH224367   5.130   4.883   6.803  0.8009  0.4142  0.0635
  911TIP3    H124368   5.039   4.912   6.816 -0.0437 -2.0807  0.3489
  911TIP3    H224369   5.138   4.873   6.708  0.9841  1.1605 -0.0076
  912TIP3   OH224370   5.291   1.634   0.380 -0.2056 -0.4822 -0.4243
  912TIP3    H124371   5.240   1.715   0.394  1.9855  1.4085 -2.5329
  912TIP3    H224372   5.382   1.661   0.388  0.6207 -2.7135 -1.5007
  913TIP3   OH224373   3.960   5.829   0.992  0.5311 -0.3251  0.2702
  913TIP3    H124374   4.037   5.837   0.936 -0.9939  2.7235 -1.6640
  913TIP3    H224375   3.893   5.789   0.936 -0.2742  0.3123  0.7590
  914TIP3   OH224376   6.156   0.918   6.534  0.4164  0.1221  0.4116
  914TIP3    H124377   6.111   0.991   6.577  0.6579  1.4039 -1.3740
  914TIP3    H224378   6.243   0.953   6.514  0.9880 -1.1189  0.6669
  915TIP3   OH224379   2.542   6.033   6.344  0.2173  0.6384 -0.2192
  915TIP3    H124380   2.564   6.123   6.319  0.6630  0.5268 -0.2347
  915TIP3    H224381   2.446   6.033   6.352  0.0941  0.8055 -1.4519
  916TIP3   OH224382   1.460   2.609   1.589 -0.1393  0.1844  0.0713
  916TIP3    H124383   1.498   2.544   1.649 -0.3422  0.7420  0.8308
  916TIP3    H224384   1.378   2.569   1.559 -0.6208  0.3623  1.0927
  917TIP3   OH224385   0.271   3.649   1.258  0.1057 -0.0855  0.4052
  917TIP3    H124386   0.329   3.586   1.217 -0.8790 -0.6676 -0.1414
  917TIP3    H224387   0.243   3.608   1.339  1.9092  0.9897  1.6349
  918TIP3   OH224388   3.906   3.771   0.458  0.2122 -0.1107 -0.0057
  918TIP3    H124389   3.927   3.852   0.505  0.3378 -0.7225  1.0147
  918TIP3    H224390   3.888   3.707   0.527  2.2957 -1.5540 -0.7118
  919TIP3   OH224391   4.927   3.625   0.517  0.5724 -0.1808 -0.4710
  919TIP3    H124392   4.854   3.566   0.500 -1.3727  1.9793 -0.1960
  919TIP3    H224393   4.888   3.713   0.512  2.8176  1.0210  1.2625
  920TIP3   OH224394   0.456   5.938   6.955 -0.2009  0.3169  0.1786
  920TIP3    H124395   0.428   5.876   6.887  1.9335  1.8501 -2.2487
  920TIP3    H224396   0.448   6.024   6.914  0.6181  1.3558  2.0858
  921TIP3   OH224397   0.190   3.875   0.108  0.6794  0.0720  0.4780
  921TIP3    H124398   0.214   3.873   0.200  0.4365  1.1774  0.5882
  921TIP3    H224399   0.098   3.902   0.108  1.3029  2.4321 -0.1268
  922TIP3   OH224400   1.946   5.700   0.209 -0.6288 -0.2890 -0.4590
  922TIP3    H124401   1.891   5.773   0.237  0.9435  0.7332  0.0725
  922TIP3    H224402   1.885   5.627   0.199 -2.0156  0.6778  0.5322
  923TIP3   OH224403   0.810   6.354   7.884  0.3836 -0.0167 -0.5426
  923TIP3    H124404   0.809   6.266   7.921  0.9804 -0.8923 -2.4676
  923TIP3    H224405   0.897   6.388   7.905  0.2504  0.0201 -0.0351
  924TIP3   OH224406   6.009   4.192   1.284  0.4828  0.3483  0.4445
  924TIP3    H124407   6.035   4.269   1.234  2.0451 -1.2820 -1.4113
  924TIP3    H224408   6.050   4.119   1.238 -3.6842 -2.0370  0.0170
  925TIP3   OH224409   3.196   6.659   8.655  0.0799 -0.7607  0.4495
  925TIP3    H124410   3.172   6.736   8.603 -0.2970  0.5161  2.3765
  925TIP3    H224411   3.114   6.634   8.699  0.6604 -0.9726  1.4353
  926TIP3   OH224412   1.067   6.188   0.243 -0.5279 -0.4686 -0.8210
  926TIP3    H124413   0.995   6.251   0.241 -0.2411 -0.1372 -1.9314
  926TIP3    H224414   1.129   6.221   0.177  0.8840 -0.4662  0.4481
  927TIP3   OH224415   1.987   1.541   0.693 -0.4687 -0.9504  0.1748
  927TIP3    H124416   1.896   1.522   0.670 -1.5402  1.6766  1.7403
  927TIP3    H224417   1.991   1.526   0.788  0.3429  0.1314  0.3316
  928TIP3   OH224418   5.040   4.482   6.522 -0.2245 -0.1145  0.2533
  928TIP3    H124419   4.984   4.466   6.598 -1.3651  0.6333 -0.4054
  928TIP3    H224420   5.057   4.577   6.524 -2.1694  0.3321 -1.6700
  929TIP3   OH224421   3.356   5.077   1.057 -0.4030  0.3965  0.4049
  929TIP3    H124422   3.285   5.091   1.120 -0.2314  2.5081  0.1997
  929TIP3    H224423   3.436   5.080   1.110 -0.2745  1.8816  0.1490
  930TIP3   OH224424   6.709   1.189   1.914 -0.1286  0.0769 -0.1316
  930TIP3    H124425   6.694   1.223   2.002 -1.3951  0.3110 -0.4233
  930TIP3    H224426   6.775   1.247   1.877 -1.0578  1.2237 -0.0335
  931TIP3   OH224427   0.916   1.842   0.189 -0.5105  0.3178  0.2603
  931TIP3    H124428   0.911   1.937   0.182 -1.7604  0.2620  0.1434
  931TIP3    H224429   0.867   1.820   0.268  0.0181 -0.2121  0.4499
  932TIP3   OH224430   6.046   6.521   1.552  0.1664 -0.0676 -0.2888
  932TIP3    H124431   5.956   6.549   1.562  0.4273  0.8071 -0.3360
  932TIP3    H224432   6.053   6.442   1.606 -1.1933 -1.4579 -2.0378
  933TIP3   OH224433   6.251   5.883   1.984  0.0669 -0.2773  0.1256
  933TIP3    H124434   6.225   5.872   2.076  2.4034 -1.3965  0.7560
  933TIP3    H224435   6.216   5.968   1.959 -0.7561 -0.0000  2.0023
  934TIP3   OH224436   3.606   1.875   6.366  0.3578 -0.1493  0.0114
  934TIP3    H124437   3.625   1.967   6.350  1.2552 -0.5187 -1.1919
  934TIP3    H224438   3.568   1.873   6.454  0.2895  1.3604  0.0389
  935TIP3   OH224439   1.027   5.988   1.816 -0.3641  0.0337 -0.4775
  935TIP3    H124440   1.009   5.895   1.832  0.6523  0.0196  0.7187
  935TIP3    H224441   0.942   6.025   1.793 -1.1255 -0.8475  0.7987
  936TIP3   OH224442   3.037   6.817   2.510 -0.4218  0.2167  1.0292
  936TIP3    H124443   2.977   6.742   2.515 -0.5477  0.2303 -0.0971
  936TIP3    H224444   2.979   6.893   2.499 -0.3862  0.6944  3.5269
  937TIP3   OH224445   0.535   2.087   1.428  0.1796  0.5302  0.4318
  937TIP3    H124446   0.440   2.079   1.418  0.2038 -0.2225  0.7192
  937TIP3    H224447   0.554   2.178   1.405 -0.1838 -0.1151 -2.8711
  938TIP3   OH224448   4.117   1.150   2.219  0.2914 -0.8480  0.0805
  938TIP3    H124449   4.165   1.069   2.240  0.0537 -0.6256  1.5604
  938TIP3    H224450   4.033   1.141   2.264  0.8386  0.8520  1.5477
  939TIP3   OH224451   6.259   5.599   8.336 -0.4424 -0.7688  0.4211
  939TIP3    H124452   6.330   5.620   8.397 -0.0844 -1.3001  0.2032
  939TIP3    H224453   6.179   5.616   8.385 -0.1622 -0.1505  0.6677
  940TIP3   OH224454   2.284   5.936   1.588 -0.3402  0.1764  0.6237
  940TIP3    H124455   2.326   5.989   1.520  0.3718 -0.4316  0.5797
  940TIP3    H224456   2.304   5.982   1.670  2.3874 -1.2320  0.8754
  941TIP3   OH224457   5.881   6.762   0.528 -0.3375  0.1135  0.0634
  941TIP3    H124458   5.804   6.819   0.526 -0.1693  0.3185 -0.6061
  941TIP3    H224459   5.907   6.752   0.437 -0.7904 -1.6204  0.0820
  942TIP3   OH224460   2.059   3.743   8.086 -0.1358 -0.8724 -0.0868
  942TIP3    H124461   2.149   3.770   8.068 -0.3148  0.2358  0.5666
  942TIP3    H224462   2.017   3.823   8.118 -0.9210 -1.7786  1.2040
  943TIP3   OH224463   3.262   1.126   1.283 -0.3800  0.0267  0.4637
  943TIP3    H124464   3.212   1.114   1.202 -2.3204 -1.3502  1.7645
  943TIP3    H224465   3.295   1.216   1.277  0.0724 -0.2223 -2.0956
  944TIP3   OH224466   4.052   4.791   6.651  0.0363  0.5184  0.1483
  944TIP3    H124467   4.104   4.851   6.705  0.0519  0.3622  0.3059
  944TIP3    H224468   4.115   4.725   6.622 -0.1975 -0.0066  0.8272
  945TIP3   OH224469   1.580   0.924   1.706  0.2794  0.2618  0.3724
  945TIP3    H124470   1.670   0.954   1.716  0.4450 -0.1622  0.1522
  945TIP3    H224471   1.531   0.974   1.772  0.8371 -0.2404  1.1759
  946TIP3   OH224472   3.711   1.227   7.998  0.6545 -0.1319  0.0798
  946TIP3    H124473   3.764   1.164   8.047  0.2184 -0.2395  0.4180
  946TIP3    H224474   3.731   1.208   7.906  0.6488 -0.6573  0.1841
  947TIP3   OH224475   1.769   6.226   2.237 -0.0410  0.1775  0.3007
  947TIP3    H124476   1.847   6.210   2.184 -1.2709  0.3430 -1.6698
  947TIP3    H224477   1.729   6.304   2.199 -0.3336  1.0928  2.3394
  948TIP3   OH224478   0.718   5.335   8.353  0.9057 -0.7263  0.1672
  948TIP3    H124479   0.681   5.281   8.422  0.4448  0.4278  0.8416
  948TIP3    H224480   0.647   5.344   8.289  0.9828 -0.9124  0.0544
  949TIP3   OH224481   5.091   5.508   6.907 -0.4760 -0.0653  0.3607
  949TIP3    H124482   5.154   5.469   6.968 -0.7275 -0.3288  0.4515
  949TIP3    H224483   5.145   5.559   6.846  0.0484 -1.9860 -0.8645
  950TIP3   OH224484   1.707   3.355   8.422  0.3778 -0.0431 -0.4055
  950TIP3    H124485   1.624   3.385   8.460  0.5504 -0.9204  0.7405
  950TIP3    H224486   1.681   3.303   8.346 -0.4875 -3.6673  2.1213
  951TIP3   OH224487   1.860   1.002   7.606  0.4420  0.2819 -0.5306
  951TIP3    H124488   1.918   1.008   7.530  1.0027 -0.3636 -0.1688
  951TIP3    H224489   1.851   1.093   7.636 -0.7336  0.7027 -2.0299
  952TIP3   OH224490   4.476   1.449   1.875 -0.4648 -0.2579  0.4791
  952TIP3    H124491   4.442   1.535   1.900 -0.7443 -0.2807  0.1700
  952TIP3    H224492   4.446   1.390   1.944 -1.9882 -0.4898 -0.3435
  953TIP3   OH224493   0.408   5.001   8.103 -0.0262 -0.6211  0.0490
  953TIP3    H124494   0.455   4.945   8.164  1.9103 -0.8800 -1.6043
  953TIP3    H224495   0.452   5.086   8.109 -0.6269 -0.2922 -0.0920
  954TIP3   OH224496   3.235   4.976   7.008 -0.4931 -0.4694  0.0775
  954TIP3    H124497   3.146   4.952   7.035 -0.4666  0.1973  0.7752
  954TIP3    H224498   3.222   5.031   6.931 -0.6747 -0.5229  0.0683
  955TIP3   OH224499   0.290   0.173   0.361 -0.2491  0.1046 -0.1286
  955TIP3    H124500   0.316   0.095   0.411 -0.4124  0.1156 -0.0254
  955TIP3    H224501   0.200   0.190   0.389 -1.5435 -1.7779 -2.7423
  956TIP3   OH224502   4.237   4.983   0.667  0.5932  0.3471  0.8324
  956TIP3    H124503   4.170   4.998   0.733 -0.5656  0.4931 -0.3400
  956TIP3    H224504   4.211   5.038   0.593  1.1548 -0.7465 -0.2139
  957TIP3   OH224505   6.666   4.089   8.497  1.0012  0.2776 -0.5198
  957TIP3    H124506   6.583   4.044   8.487 -0.4654  3.0529 -1.9693
  957TIP3    H224507   6.709   4.045   8.571 -1.5139 -1.5521 -0.0431
  958TIP3   OH224508   5.404   4.175   8.784  0.7698 -0.2992  0.4941
  958TIP3    H124509   5.438   4.144   8.700  0.6083  1.2184 -0.1739
  958TIP3    H224510   5.412   4.270   8.779 -1.4666 -0.0112  1.2276
  959TIP3   OH224511   0.441   5.037   7.827  0.1132  0.0147  0.2186
  959TIP3    H124512   0.534   5.053   7.841 -0.4383  2.0545  2.1481
  959TIP3    H224513   0.407   5.012   7.913 -1.2145 -0.1738 -0.3270
  960TIP3   OH224514   5.455   3.585   0.493  0.0183  0.4566  0.4046
  960TIP3    H124515   5.365   3.572   0.464 -0.1434  1.8747  0.1882
  960TIP3    H224516   5.447   3.608   0.586  0.1278  0.8352  0.3224
  961TIP3   OH224517   1.283   2.363   0.127  0.2376 -0.1460 -0.1404
  961TIP3    H124518   1.236   2.280   0.119 -1.9492  1.1334 -1.4148
  961TIP3    H224519   1.246   2.404   0.205 -0.0765  0.4393 -0.5911
  962TIP3   OH224520   3.816   4.967   6.647  0.6096  0.3778  0.1673
  962TIP3    H124521   3.886   4.904   6.664  0.2772  0.0574  0.3504
  962TIP3    H224522   3.853   5.026   6.582  0.7435 -0.3152 -0.3948
  963TIP3   OH224523   3.307   5.926   1.161  0.8308  0.3680 -0.6071
  963TIP3    H124524   3.399   5.899   1.156  1.0507  1.1248 -0.7226
  963TIP3    H224525   3.310   6.012   1.202  0.1958  0.5640 -0.9720
  964TIP3   OH224526   5.919   5.618   8.072 -0.5123 -0.4169 -0.2514
  964TIP3    H124527   5.929   5.568   8.152  0.6476  1.1217  0.6313
  964TIP3    H224528   5.840   5.670   8.085 -1.3656 -1.4895 -0.9133
  965TIP3   OH224529   1.575   3.681   2.598 -0.2369  0.3087  0.0383
  965TIP3    H124530   1.624   3.723   2.669  0.2353 -1.5997  0.9041
  965TIP3    H224531   1.617   3.712   2.518  1.9278 -0.6459  0.7309
  966TIP3   OH224532   1.072   3.077   0.543  0.3512 -0.1720  0.3726
  966TIP3    H124533   1.115   2.997   0.515  1.1610  0.9101 -1.7402
  966TIP3    H224534   0.980   3.066   0.516  0.7246  0.0711 -1.1160
  967TIP3   OH224535   2.712   2.662   6.834  0.0969 -0.5631  0.8761
  967TIP3    H124536   2.623   2.697   6.834 -0.2127 -1.2890 -0.5799
  967TIP3    H224537   2.702   2.571   6.806  1.5104 -0.0078 -1.7735
  968TIP3   OH224538   6.510   0.789   0.290  0.1363  1.0247 -0.3887
  968TIP3    H124539   6.431   0.757   0.333  1.3497 -0.9177  0.5474
  968TIP3    H224540   6.503   0.756   0.200  0.8704 -1.1195  0.2866
  969TIP3   OH224541   3.817   0.907   1.105  0.5500  0.4361  0.5322
  969TIP3    H124542   3.773   0.977   1.153  1.2802 -0.8357  3.2632
  969TIP3    H224543   3.760   0.890   1.030 -1.4491  1.6112  1.6961
  970TIP3   OH224544   0.054   3.707   8.722  0.3525 -0.5535  0.7926
  970TIP3    H124545   0.037   3.800   8.705  1.0107 -0.4919  0.4420
  970TIP3    H224546   0.125   3.707   8.787  1.4613 -0.8051 -0.3881
  971TIP3   OH224547   3.427   4.062   8.892 -0.5614  0.1010  0.1327
  971TIP3    H124548   3.474   4.092   8.815 -1.6270  1.2915 -0.0911
  971TIP3    H224549   3.339   4.098   8.882 -1.1529 -0.9794  1.1681
  972TIP3   OH224550   4.801   2.510   1.748 -0.0793  0.1119 -0.6596
  972TIP3    H124551   4.857   2.461   1.808  1.2138  0.9346 -1.1269
  972TIP3    H224552   4.811   2.601   1.775 -0.2178  0.3923 -1.5239
  973TIP3   OH224553   0.567   1.663   1.034  0.2047 -0.2325  0.2594
  973TIP3    H124554   0.529   1.580   1.063 -2.0780  0.9461  0.9277
  973TIP3    H224555   0.499   1.702   0.978  2.1799  0.1696 -2.0089
  974TIP3   OH224556   5.255   6.085   8.052 -0.4809 -0.0363  0.1796
  974TIP3    H124557   5.166   6.115   8.032  0.0116  0.8313 -0.7996
  974TIP3    H224558   5.312   6.157   8.024  0.5518 -0.6336  0.6620
  975TIP3   OH224559   4.765   1.430   2.414  0.2255 -0.2903  0.2299
  975TIP3    H124560   4.732   1.370   2.348  0.7975  0.8237 -1.1324
  975TIP3    H224561   4.736   1.516   2.384  1.9510  0.4194  0.4750
  976TIP3   OH224562   2.000   2.963   0.286  0.3282  0.8998 -0.0991
  976TIP3    H124563   1.977   2.950   0.194 -0.3747  2.5724 -0.1915
  976TIP3    H224564   2.095   2.960   0.287  0.4185  2.4208 -1.1678
  977TIP3   OH224565   1.064   5.437   1.037  0.1937  0.1017  0.2197
  977TIP3    H124566   1.056   5.530   1.014  2.1099  0.1755 -0.3182
  977TIP3    H224567   1.053   5.435   1.133 -1.0164  0.7069  0.1059
  978TIP3   OH224568   4.769   3.432   6.554 -0.1157  0.3033 -0.6758
  978TIP3    H124569   4.739   3.341   6.562  0.2975  0.3263  2.1554
  978TIP3    H224570   4.851   3.434   6.603  0.4996  1.9725 -1.7020
  979TIP3   OH224571   1.131   5.177   2.959  0.1699  0.2694 -0.1569
  979TIP3    H124572   1.102   5.220   2.878 -1.4576 -0.8960 -0.2414
  979TIP3    H224573   1.197   5.115   2.930  0.1899  0.4349 -0.4772
  980TIP3   OH224574   0.621   1.266   1.866 -0.0177  0.3985 -0.6020
  980TIP3    H124575   0.670   1.188   1.839 -0.1144  0.6545 -1.5715
  980TIP3    H224576   0.659   1.337   1.813  0.3927  1.1140  0.5917
  981TIP3   OH224577   3.763   6.026   0.685 -0.2563 -0.0241  0.2089
  981TIP3    H124578   3.845   6.016   0.637  0.2780  1.7211  0.6966
  981TIP3    H224579   3.695   6.025   0.618  0.4689  2.3342 -0.6434
  982TIP3   OH224580   2.900   6.185   8.656 -0.1766 -0.3411  0.0180
  982TIP3    H124581   2.885   6.121   8.726 -0.3666 -0.2195  0.0878
  982TIP3    H224582   2.874   6.269   8.693 -0.0692 -0.2430 -0.1256
  983TIP3   OH224583   2.034   0.580   1.647 -0.0831  0.3335  0.0489
  983TIP3    H124584   2.115   0.615   1.683  0.7379 -0.8714 -0.5453
  983TIP3    H224585   2.058   0.551   1.558 -0.4553 -2.3888  0.7326
  984TIP3   OH224586   3.109   5.641   7.763  0.1922 -0.0971 -0.1002
  984TIP3    H124587   3.106   5.565   7.822  0.4636 -0.4826 -0.5839
  984TIP3    H224588   3.175   5.698   7.802 -0.9053  0.4927  0.9771
  985TIP3   OH224589   6.673   0.378   0.329 -0.3041 -1.0948 -0.4484
  985TIP3    H124590   6.592   0.419   0.359  0.7379 -0.1212  1.2236
  985TIP3    H224591   6.646   0.291   0.298 -1.8701 -1.1363  0.8831
  986TIP3   OH224592   2.217   4.339   1.970  0.0004  0.1940 -0.0954
  986TIP3    H124593   2.187   4.376   2.053  0.0442 -0.0625  0.0360
  986TIP3    H224594   2.138   4.305   1.928  0.1597 -0.9765  0.4989
  987TIP3   OH224595   6.776   0.111   0.926 -0.2665  0.2708  0.4860
  987TIP3    H124596   6.758   0.089   1.018  0.0144 -1.2748  0.1860
  987TIP3    H224597   6.778   0.207   0.925 -2.0519  0.3789  1.7526
  988TIP3   OH224598   1.013   2.728   8.649  0.9805 -0.1708 -0.1631
  988TIP3    H124599   1.103   2.754   8.630  1.0242 -1.7384 -2.5414
  988TIP3    H224600   0.999   2.650   8.596 -2.2138  0.7955 -0.9553
  989TIP3   OH224601   4.001   0.016   8.662  0.2282  0.4144 -0.2707
  989TIP3    H124602   3.943   0.092   8.650 -0.5411 -0.3325 -1.5351
  989TIP3    H224603   4.024   0.018   8.754 -2.0607  0.6037  0.3591
  990TIP3   OH224604   1.733   1.741   2.247  0.0162  0.3078 -0.2952
  990TIP3    H124605   1.802   1.680   2.219 -0.0831  0.3305 -0.5936
  990TIP3    H224606   1.672   1.688   2.298 -0.6305 -0.0766 -1.4379
  991TIP3   OH224607   3.401   3.375   1.371  0.5121 -1.0136 -0.2338
  991TIP3    H124608   3.419   3.468   1.379  1.4697 -1.2673  0.8453
  991TIP3    H224609   3.398   3.358   1.277 -0.5633  0.2583 -0.4421
  992TIP3   OH224610   2.811   1.967   1.854  0.5709  0.4292  0.4169
  992TIP3    H124611   2.770   1.880   1.853  0.5683  0.4324 -0.3657
  992TIP3    H224612   2.751   2.022   1.904 -0.5993  0.5283 -1.0402
  993TIP3   OH224613   6.223   6.733   7.954  0.0631  0.1319 -0.1727
  993TIP3    H124614   6.236   6.640   7.938 -0.6409  0.1544 -0.9332
  993TIP3    H224615   6.298   6.759   8.007  1.1039 -0.5287 -1.2677
  994TIP3   OH224616   2.082   6.039   7.918 -0.3508 -0.2278  0.1125
  994TIP3    H124617   2.108   5.967   7.976 -0.2897 -0.9494 -0.7773
  994TIP3    H224618   1.995   6.064   7.949 -0.3637 -0.6832  0.4569
  995TIP3   OH224619   2.168   6.726   8.477  0.7796  0.0710  0.3938
  995TIP3    H124620   2.260   6.715   8.452  1.1961 -1.6126  2.4124
  995TIP3    H224621   2.137   6.637   8.495 -1.3992  0.5527 -0.5776
  996TIP3   OH224622   5.669   1.020   0.445  0.1486  0.3059 -0.3225
  996TIP3    H124623   5.583   1.060   0.446 -0.0701 -0.1587 -0.1894
  996TIP3    H224624   5.703   1.032   0.533  1.1586  2.4530 -0.9380
  997TIP3   OH224625   3.834   6.181   0.086  1.2034  0.6210  0.0151
  997TIP3    H124626   3.745   6.146   0.080  1.0710  0.7824  1.0118
  997TIP3    H224627   3.875   6.133   0.158  1.1393  2.2151  1.1604
  998TIP3   OH224628   5.064   4.792   6.560  0.5396 -0.3915 -0.1248
  998TIP3    H124629   4.969   4.798   6.574  0.9569  0.3203  3.5292
  998TIP3    H224630   5.081   4.851   6.486 -1.8159 -0.4315 -0.7954
  999TIP3   OH224631   1.336   1.864   0.054 -1.1615 -0.2950 -0.1499
  999TIP3    H124632   1.288   1.816   0.121  0.7765 -0.3129  1.2972
  999TIP3    H224633   1.314   1.819  -0.028 -1.4928 -1.9695  0.8162
 1000TIP3   OH224634   6.340   0.233   8.245  0.7156  0.1992  0.1525
 1000TIP3    H124635   6.345   0.286   8.325 -1.6671  1.0335 -0.1683
 1000TIP3    H224636   6.340   0.143   8.276 -0.1288  0.5063  1.1124
 1001TIP3   OH224637   2.074   6.279   8.091  0.1009 -0.2920 -0.1926
 1001TIP3    H124638   2.133   6.354   8.086 -0.4461  0.3128  1.7495
 1001TIP3    H224639   1.990   6.312   8.061 -0.1522 -0.0950  0.7105
 1002TIP3   OH224640   4.077   3.862   1.001  0.7885 -0.1067 -0.1530
 1002TIP3    H124641   4.085   3.820   0.916  0.1069 -0.2702 -0.1397
 1002TIP3    H224642   4.060   3.954   0.982 -3.6744 -0.7548 -0.3509
 1003TIP3   OH224643   3.159   5.595   8.119 -0.1118 -0.4677  0.4056
 1003TIP3    H124644   3.254   5.597   8.131 -0.2091 -0.8579  1.3558
 1003TIP3    H224645   3.139   5.672   8.066  1.0317 -1.8686 -2.2372
 1004TIP3   OH224646   0.389   6.126   2.093 -0.2539  0.1489 -0.4736
 1004TIP3    H124647   0.355   6.162   2.174  1.2276  0.1512  0.1887
 1004TIP3    H224648   0.468   6.079   2.120 -0.4073 -0.8841 -1.7529
 1005TIP3   OH224649   6.362   1.573   0.659  0.4126  0.4711 -0.5361
 1005TIP3    H124650   6.429   1.617   0.607  2.1962  0.0922  1.2992
 1005TIP3    H224651   6.310   1.644   0.698  1.9007  0.9532  0.6725
 1006TIP3   OH224652   2.991   1.967   6.606 -0.1142 -0.0814 -0.2706
 1006TIP3    H124653   2.962   2.058   6.615  1.0014  0.1678  1.3429
 1006TIP3    H224654   3.064   1.971   6.545 -1.1281 -0.1742 -1.5240
 1007TIP3   OH224655   4.641   1.425   2.658 -0.5030  0.5156 -0.4735
 1007TIP3    H124656   4.649   1.334   2.687 -0.1216  0.3029 -1.2311
 1007TIP3    H224657   4.688   1.428   2.575 -0.3671  1.4472 -0.3720
 1008TIP3   OH224658   1.078   0.424   8.506 -0.0966 -0.5510 -0.2495
 1008TIP3    H124659   1.060   0.514   8.533  2.7905 -0.1551  0.6721
 1008TIP3    H224660   1.048   0.370   8.580  2.6112  0.1226  1.5037
 1009TIP3   OH224661   5.395   2.791   1.739 -0.3575 -0.1777  0.3915
 1009TIP3    H124662   5.342   2.716   1.711  0.1235 -0.1839 -0.5331
 1009TIP3    H224663   5.486   2.760   1.732 -0.1522  0.5247 -0.1093
 1010TIP3   OH224664   2.679   3.442   7.727 -0.2665  0.8787  0.3206
 1010TIP3    H124665   2.752   3.465   7.670  0.4121  0.3447  0.9650
 1010TIP3    H224666   2.617   3.514   7.716  1.1164  2.2365  1.1013
 1011TIP3   OH224667   2.078   4.429   8.655  0.5698  0.3321 -0.2868
 1011TIP3    H124668   2.127   4.511   8.650  2.5376 -0.6810  1.1009
 1011TIP3    H224669   2.002   4.449   8.709  0.7477  1.3627 -0.4052
 1012TIP3   OH224670   5.275   2.656   8.639 -0.0424  0.0035 -0.1588
 1012TIP3    H124671   5.290   2.592   8.708 -2.7638 -0.2044  0.3391
 1012TIP3    H224672   5.197   2.704   8.666  0.3545  1.7319 -1.8289
 1013TIP3   OH224673   6.583   1.484   8.763 -0.6440  0.6310  0.1184
 1013TIP3    H124674   6.647   1.483   8.835  0.5985 -0.4906 -0.9624
 1013TIP3    H224675   6.629   1.528   8.691 -0.6472 -1.1576 -1.0247
 1014TIP3   OH224676   3.354   1.500   7.144 -0.5429  0.6739  0.5269
 1014TIP3    H124677   3.306   1.422   7.117  0.3364 -0.2669  1.5976
 1014TIP3    H224678   3.291   1.551   7.195 -1.3466  1.0542 -0.8160
 1015TIP3   OH224679   5.067   5.130   6.156  0.5997  0.1953  0.5620
 1015TIP3    H124680   5.014   5.142   6.235  0.4052 -1.3603  0.7071
 1015TIP3    H224681   5.028   5.189   6.092  0.2294  0.8605  1.3779
 1016TIP3   OH224682   5.900   2.006   0.131  0.4239  0.4029  0.1594
 1016TIP3    H124683   5.945   1.971   0.208  0.3490  1.4075  0.6793
 1016TIP3    H224684   5.819   2.044   0.165  1.2142  2.4779 -0.1089
 1017TIP3   OH224685   0.548   3.540   7.263  0.0193  0.1621  1.3697
 1017TIP3    H124686   0.536   3.469   7.199  0.1398  0.9983  0.4033
 1017TIP3    H224687   0.465   3.542   7.311 -0.6108  0.4047  0.3188
 1018TIP3   OH224688   5.795   1.869   1.241 -0.3777 -0.0161  0.2957
 1018TIP3    H124689   5.720   1.849   1.296 -0.4447  0.3486  0.3405
 1018TIP3    H224690   5.757   1.913   1.165 -0.2367 -0.0792  0.1889
 1019TIP3   OH224691   2.498   2.609   7.981 -0.0397 -0.4572 -0.2694
 1019TIP3    H124692   2.509   2.538   8.044 -2.4143  0.2094  1.0122
 1019TIP3    H224693   2.422   2.583   7.929 -1.4688  1.4274  0.7507
 1020TIP3   OH224694   3.626   1.391   7.226  0.0934  0.3575  0.0265
 1020TIP3    H124695   3.565   1.464   7.215  1.3322  1.3917 -0.2349
 1020TIP3    H224696   3.713   1.431   7.221  0.8175 -1.1739 -0.3324
 1021TIP3   OH224697   0.203   4.978   8.583  0.1173 -0.1341 -0.4043
 1021TIP3    H124698   0.289   5.021   8.592  0.6319 -1.5689  3.0112
 1021TIP3    H224699   0.188   4.974   8.488  3.2866  1.1748 -1.0891
 1022TIP3   OH224700   4.054   1.832   8.165  0.0374 -0.0855  0.1723
 1022TIP3    H124701   3.985   1.863   8.225  0.2348 -0.3374  0.5323
 1022TIP3    H224702   4.129   1.888   8.184  0.8106 -1.5636  1.7310
 1023TIP3   OH224703   6.206   3.620   1.403 -0.1187  0.1614  0.9170
 1023TIP3    H124704   6.241   3.643   1.317 -0.6156  0.6437  0.8345
 1023TIP3    H224705   6.167   3.534   1.391 -0.1612  0.2150  0.6640
 1024TIP3   OH224706   3.299   0.985   2.069  0.1682 -0.1613 -0.1352
 1024TIP3    H124707   3.335   0.965   1.983 -0.1227  1.6434 -0.7141
 1024TIP3    H224708   3.204   0.985   2.056  0.1435  1.8759 -0.2926
 1025TIP3   OH224709   6.119   4.735   1.553  0.0924  0.7732 -0.1351
 1025TIP3    H124710   6.195   4.781   1.517  1.6469 -1.4819  0.0858
 1025TIP3    H224711   6.096   4.670   1.486  0.5503 -0.8254  1.1840
 1026TIP3   OH224712   0.444   0.765   0.061  0.0713  0.0924 -0.3458
 1026TIP3    H124713   0.359   0.798   0.034 -0.1168 -1.4570 -1.8553
 1026TIP3    H224714   0.505   0.803  -0.002  0.2937  0.0880 -0.1354
 1027TIP3   OH224715   5.122   1.243   1.433 -0.1104  0.0980 -0.1861
 1027TIP3    H124716   5.032   1.274   1.444  0.2653  0.5235  2.0371
 1027TIP3    H224717   5.145   1.205   1.518  1.3479 -1.2918 -1.1543
 1028TIP3   OH224718   4.882   1.173   1.065 -0.4074  0.2698 -0.3917
 1028TIP3    H124719   4.795   1.159   1.102  1.1816 -4.4616  2.4576
 1028TIP3    H224720   4.873   1.153   0.972 -2.2803 -0.5532 -0.0696
 1029TIP3   OH224721   0.125   1.363   1.857  0.0479 -0.2700  0.3297
 1029TIP3    H124722   0.214   1.328   1.865 -0.7586 -2.4024  0.6947
 1029TIP3    H224723   0.108   1.362   1.762  0.0183 -0.9943  0.3330
 1030TIP3   OH224724   0.286   1.153   0.786 -0.2595 -0.1638 -0.0151
 1030TIP3    H124725   0.227   1.228   0.778  1.2645  1.1064  0.1867
 1030TIP3    H224726   0.361   1.177   0.731  1.0847 -0.6846  1.5341
 1031TIP3   OH224727   2.916   5.838   6.288 -0.3606 -0.1349 -0.1955
 1031TIP3    H124728   2.826   5.826   6.319 -0.6746  0.6399 -0.7812
 1031TIP3    H224729   2.935   5.930   6.304 -0.7707  0.4845 -2.8137
 1032TIP3   OH224730   1.349   3.152   2.286  0.3887  0.0813  0.1671
 1032TIP3    H124731   1.261   3.174   2.255  0.8553 -0.8071 -1.8762
 1032TIP3    H224732   1.350   3.183   2.377 -1.3364  1.9602 -0.3860
 1033TIP3   OH224733   1.097   6.695   6.785  0.2102 -0.6641  0.5285
 1033TIP3    H124734   1.136   6.781   6.801  1.0182 -1.0352  0.6104
 1033TIP3    H224735   1.134   6.668   6.701 -0.2164 -0.8333  0.3963
 1034TIP3   OH224736   3.261   2.401   0.698  0.4158  0.1977  0.3455
 1034TIP3    H124737   3.256   2.491   0.666 -1.0192 -0.1673 -0.5737
 1034TIP3    H224738   3.169   2.373   0.705  0.8283 -1.1422  0.7605
 1035TIP3   OH224739   1.865   2.982   7.447  0.2144 -0.1033  0.3119
 1035TIP3    H124740   1.799   2.953   7.509 -1.1016  0.1902 -0.8963
 1035TIP3    H224741   1.854   3.077   7.442  0.4363 -0.0976 -0.2120
 1036TIP3   OH224742   5.467   0.595   8.234  0.3033 -0.2414 -0.3839
 1036TIP3    H124743   5.529   0.669   8.241 -1.5172  1.1936  2.5234
 1036TIP3    H224744   5.522   0.517   8.238  2.1245  0.9369 -1.1588
 1037TIP3   OH224745   6.474   0.218   1.017 -0.1803 -0.5546 -0.6380
 1037TIP3    H124746   6.487   0.138   0.966  1.1117  0.2266 -1.5834
 1037TIP3    H224747   6.556   0.266   1.008 -0.9598  0.9224 -0.1583
 1038TIP3   OH224748   1.194   5.598   8.621  0.0800 -0.3502 -0.2762
 1038TIP3    H124749   1.273   5.560   8.660  0.9496  1.8278  0.2381
 1038TIP3    H224750   1.156   5.527   8.570  0.6401 -2.4027  1.9707
 1039TIP3   OH224751   5.490   2.736   0.790 -0.3936  0.5469 -0.2683
 1039TIP3    H124752   5.524   2.714   0.877  0.3855  0.2015 -0.6487
 1039TIP3    H224753   5.510   2.829   0.779 -0.7122  0.6498  0.0186
 1040TIP3   OH224754   0.925   6.792   8.848 -0.2530 -0.0046  0.4008
 1040TIP3    H124755   0.993   6.856   8.871  0.4264  0.0329 -1.5107
 1040TIP3    H224756   0.931   6.784   8.753 -1.9468 -1.1370  0.3409
 1041TIP3   OH224757   2.713   0.589   0.871 -0.0956 -0.0969  1.2974
 1041TIP3    H124758   2.639   0.621   0.923  0.8463 -0.4481  2.9295
 1041TIP3    H224759   2.786   0.588   0.932  0.2719 -4.1393  1.0674
 1042TIP3   OH224760   0.640   2.802   0.711 -0.2384  0.0078 -0.0192
 1042TIP3    H124761   0.734   2.784   0.715 -0.0373  1.1239  0.7817
 1042TIP3    H224762   0.631   2.866   0.640 -0.4450 -0.3411 -0.3115
 1043TIP3   OH224763   5.916   3.963   8.542 -0.5338 -0.5112 -0.1085
 1043TIP3    H124764   6.007   3.949   8.568 -0.9639 -1.0599  1.2308
 1043TIP3    H224765   5.900   3.899   8.473  0.2305 -0.0787 -0.6882
 1044TIP3   OH224766   6.106   1.357   7.982  0.1241  0.4872  0.3178
 1044TIP3    H124767   6.012   1.368   7.994 -0.1287 -1.2871  0.2017
 1044TIP3    H224768   6.144   1.373   8.068 -0.2429  1.5064  0.2976
 1045TIP3   OH224769   0.627   0.584   7.668 -0.6292  0.1504 -0.2517
 1045TIP3    H124770   0.673   0.666   7.686 -2.6528  1.3099 -0.0796
 1045TIP3    H224771   0.545   0.591   7.717 -0.1605 -2.7633  1.1936
 1046TIP3   OH224772   1.665   2.606   7.909  0.1309 -0.3254  0.7179
 1046TIP3    H124773   1.661   2.510   7.905  1.2384 -0.3678  0.0679
 1046TIP3    H224774   1.750   2.624   7.948  0.2725  0.3951  0.0870
 1047TIP3   OH224775   0.071   5.941   0.983  0.7933  0.1244  0.4437
 1047TIP3    H124776  -0.019   5.937   1.014  0.5290 -0.2629 -0.3489
 1047TIP3    H224777   0.092   5.850   0.960  1.4840  0.1633  0.8948
 1048TIP3   OH224778   0.108   5.104   8.838 -0.0559  0.4232 -0.2923
 1048TIP3    H124779   0.152   5.121   8.755  1.2675  1.2130  0.5308
 1048TIP3    H224780   0.039   5.169   8.843  0.9722  1.5380 -0.0224
 1049TIP3   OH224781   5.225   0.273   0.347 -0.4594  0.3769 -0.1969
 1049TIP3    H124782   5.192   0.306   0.263  1.1038  3.2288  0.1834
 1049TIP3    H224783   5.319   0.293   0.345 -0.0442 -1.1182  1.5410
 1050TIP3   OH224784   0.817   2.479   2.819 -0.8101  0.0723 -0.0202
 1050TIP3    H124785   0.758   2.450   2.749 -1.1324  1.4085 -0.3460
 1050TIP3    H224786   0.848   2.399   2.860 -1.5551 -0.7051 -0.9320
 1051TIP3   OH224787   6.197   2.690   2.210  0.1336  0.4093 -0.1027
 1051TIP3    H124788   6.181   2.783   2.202  0.5677  0.4147 -1.1376
 1051TIP3    H224789   6.236   2.679   2.297  1.2936  1.3819 -0.4764
 1052TIP3   OH224790   0.167   5.997   7.467  0.3797  0.8156  0.4120
 1052TIP3    H124791   0.204   6.036   7.388  0.9571  0.4573  0.4988
 1052TIP3    H224792   0.077   5.974   7.443  0.5685  0.6675 -0.1574
 1053TIP3   OH224793   1.079   2.417   8.255 -0.1980  0.3621  0.3876
 1053TIP3    H124794   1.072   2.407   8.160  1.2778 -0.9399  0.3766
 1053TIP3    H224795   0.989   2.432   8.285 -0.7722  0.0700 -1.1284
 1054TIP3   OH224796   1.866   6.548   0.695 -0.0159 -0.0702 -0.0003
 1054TIP3    H124797   1.899   6.481   0.754  0.1939 -0.6188 -0.7289
 1054TIP3    H224798   1.782   6.574   0.732 -1.1531 -2.2846 -0.8557
 1055TIP3   OH224799   3.138   1.729   0.107 -0.0012 -0.2661  0.3310
 1055TIP3    H124800   3.187   1.782   0.045  1.7272 -0.8494  1.1489
 1055TIP3    H224801   3.167   1.758   0.193 -2.3648  0.5463  0.9415
 1056TIP3   OH224802   0.351   2.179   8.612 -0.0291 -0.0727  0.6818
 1056TIP3    H124803   0.357   2.092   8.573  0.0903  0.9473 -1.7633
 1056TIP3    H224804   0.258   2.201   8.610  0.1390  0.6104 -0.5904
 1057TIP3   OH224805   5.353   0.441   0.038  0.8928  0.0643 -0.0078
 1057TIP3    H124806   5.384   0.478  -0.045  1.5458 -1.6683 -0.5814
 1057TIP3    H224807   5.287   0.504   0.069  1.9377  1.6659 -0.9056
 1058TIP3   OH224808   5.274   1.755   8.569  0.0865  1.0096  0.3444
 1058TIP3    H124809   5.290   1.810   8.645 -0.6588 -1.2857  2.2867
 1058TIP3    H224810   5.238   1.674   8.605 -1.4753  0.2588 -2.5483
 1059TIP3   OH224811   3.984   1.536   7.647 -0.1859 -0.0309  0.9101
 1059TIP3    H124812   3.984   1.524   7.552  1.2844 -0.2161  0.9112
 1059TIP3    H224813   3.931   1.615   7.661 -1.4985 -0.7200  0.0665
 1060TIP3   OH224814   0.549   5.955   7.638 -0.4697  0.4516  0.4766
 1060TIP3    H124815   0.583   5.926   7.723  0.0990 -2.7090 -0.6973
 1060TIP3    H224816   0.476   5.896   7.620  1.0534 -0.7431 -2.3383
 1061TIP3   OH224817   1.187   0.116   2.609  0.6335  0.4320 -0.1962
 1061TIP3    H124818   1.100   0.088   2.635 -0.4527  0.8252 -3.0718
 1061TIP3    H224819   1.237   0.035   2.597 -0.7488 -0.1490 -2.8087
 1062TIP3   OH224820   2.651   3.682   7.254 -0.5124  0.3111 -0.6366
 1062TIP3    H124821   2.617   3.614   7.312  0.1528  1.5200  1.2507
 1062TIP3    H224822   2.741   3.656   7.236 -0.6776  0.0051 -1.0351
 1063TIP3   OH224823   1.348   5.874   8.286  0.2027  0.1975 -0.1525
 1063TIP3    H124824   1.385   5.848   8.370  1.5560 -1.6127 -1.2172
 1063TIP3    H224825   1.413   5.934   8.249 -0.0009  0.3678 -0.2360
 1064TIP3   OH224826   0.843   2.850   8.296 -0.1004  0.3232  0.4578
 1064TIP3    H124827   0.936   2.870   8.292  0.5515 -1.9902  1.7634
 1064TIP3    H224828   0.817   2.871   8.385  0.5200 -3.5998  1.7605
 1065TIP3   OH224829   0.469   5.857   0.239 -0.0032 -0.6880 -0.1981
 1065TIP3    H124830   0.419   5.937   0.223 -1.0915 -0.7314  2.4745
 1065TIP3    H224831   0.552   5.887   0.275  0.1241 -0.7451 -0.4395
 1066TIP3   OH224832   1.017   1.283   1.396 -1.1816 -0.2632 -0.2153
 1066TIP3    H124833   1.007   1.323   1.310 -1.0272  2.1167  0.7771
 1066TIP3    H224834   1.107   1.303   1.421 -1.7914  0.8653  1.2613
 1067TIP3   OH224835   1.901   0.518   0.238  0.2210  0.1964 -0.5742
 1067TIP3    H124836   1.885   0.473   0.155 -0.5113 -1.2663  0.3226
 1067TIP3    H224837   1.821   0.504   0.289  1.2062 -0.2020  0.9293
 1068TIP3   OH224838   1.977   0.786   1.338  0.1200  0.2116 -0.4532
 1068TIP3    H124839   1.949   0.790   1.430 -0.9848 -1.6358 -0.6601
 1068TIP3    H224840   1.932   0.859   1.296 -1.1490 -0.2485  0.0604
 1069TIP3   OH224841   0.688   3.263   8.437 -0.5070  0.5316 -0.5621
 1069TIP3    H124842   0.678   3.344   8.486  0.8807  0.4060 -0.0097
 1069TIP3    H224843   0.718   3.199   8.501 -0.2198 -0.0517 -1.2581
 1070TIP3   OH224844   1.838   3.261   6.787  0.6828  0.0667 -0.0047
 1070TIP3    H124845   1.826   3.196   6.857  0.4054  1.0350  0.8879
 1070TIP3    H224846   1.752   3.266   6.745  0.6848 -0.1078 -0.0282
 1071TIP3   OH224847   6.055   2.528   7.705 -0.0028  0.2299  0.3252
 1071TIP3    H124848   6.037   2.566   7.619 -2.0158  1.7718  1.3430
 1071TIP3    H224849   6.129   2.469   7.690 -0.8014 -0.1735 -2.5996
 1072TIP3   OH224850   5.468   4.532   6.710 -0.6478 -0.6330  0.7498
 1072TIP3    H124851   5.442   4.463   6.649 -2.0334  0.4509  0.0561
 1072TIP3    H224852   5.509   4.599   6.655 -2.1771  0.4920  0.9175
 1073TIP3   OH224853   6.489   6.810   0.885  0.7720  0.4830  0.3282
 1073TIP3    H124854   6.471   6.732   0.937 -0.3924  1.2012  1.0599
 1073TIP3    H224855   6.494   6.779   0.795  2.7981 -0.7805  0.8309
 1074TIP3   OH224856   0.782   4.426   7.691  0.6129  0.2341 -0.0225
 1074TIP3    H124857   0.712   4.485   7.665  0.8091  0.4547 -0.0565
 1074TIP3    H224858   0.854   4.484   7.716  1.5850  0.0310 -2.1327
 1075TIP3   OH224859   5.865   1.002   7.174 -0.5038  0.1703  0.0587
 1075TIP3    H124860   5.834   0.925   7.126  1.2009 -0.2829 -0.3614
 1075TIP3    H224861   5.859   1.073   7.110 -1.7063  0.3323  0.3274
 1076TIP3   OH224862   6.651   2.719   0.255  0.2987  0.6744  0.3307
 1076TIP3    H124863   6.743   2.737   0.275  0.7085 -0.5667 -0.3217
 1076TIP3    H224864   6.625   2.789   0.195  1.3593  0.0643 -0.8834
 1077TIP3   OH224865   0.275   6.395   1.083  0.4144 -0.2110  0.0952
 1077TIP3    H124866   0.299   6.484   1.108  1.3766 -1.1768  2.9621
 1077TIP3    H224867   0.226   6.361   1.157 -1.0524 -1.6988 -1.4637
 1078TIP3   OH224868   3.641   3.084   0.506  0.0117 -0.4803  0.5028
 1078TIP3    H124869   3.708   3.069   0.572 -0.0972  1.4357  1.1053
 1078TIP3    H224870   3.619   3.177   0.514 -4.2917 -1.3746  1.8559
 1079TIP3   OH224871   6.293   3.254   1.218  0.1234  0.5372  0.7563
 1079TIP3    H124872   6.279   3.264   1.124 -0.7744  1.5431  0.9737
 1079TIP3    H224873   6.388   3.249   1.227  0.1910 -0.3231 -0.2611
 1080TIP3   OH224874   6.408   5.201   7.696  0.2812  0.7706 -0.0686
 1080TIP3    H124875   6.435   5.273   7.753  0.7078 -0.4927  1.3619
 1080TIP3    H224876   6.482   5.141   7.696 -1.2212 -1.2216  1.3761
 1081TIP3   OH224877   5.808   1.051   0.189 -0.0347 -0.6025  0.9448
 1081TIP3    H124878   5.746   1.023   0.257  1.2978 -0.7372  2.1605
 1081TIP3    H224879   5.835   0.969   0.147 -1.0139 -0.5010  0.0871
 1082TIP3   OH224880   0.088   3.582   0.346 -0.8801  0.0244  0.2996
 1082TIP3    H124881   0.082   3.659   0.403  0.0419 -0.4159  1.0100
 1082TIP3    H224882   0.043   3.608   0.266 -1.9535  0.7563  1.1153
 1083TIP3   OH224883   1.312   3.401   7.355 -0.0932  0.5890 -0.4634
 1083TIP3    H124884   1.287   3.393   7.263  3.1340  1.6840 -1.5527
 1083TIP3    H224885   1.316   3.495   7.371  0.4535  0.4140  0.4917
 1084TIP3   OH224886   3.999   3.269   2.274  0.2886 -0.1164 -0.4840
 1084TIP3    H124887   4.081   3.238   2.236  0.6940  0.0531  0.2301
 1084TIP3    H224888   4.024   3.346   2.325 -0.3105 -0.0890 -0.2290
 1085TIP3   OH224889   5.530   4.196   1.565  0.4304 -0.5424 -0.0813
 1085TIP3    H124890   5.622   4.171   1.567  0.7156  0.3436 -1.2176
 1085TIP3    H224891   5.522   4.254   1.489 -1.4499 -2.0724 -1.1461
 1086TIP3   OH224892   1.275   1.002   8.772 -0.5666  0.2161  0.2844
 1086TIP3    H124893   1.273   1.037   8.861  1.7140 -1.0731  0.9282
 1086TIP3    H224894   1.329   1.064   8.723 -0.7308  0.2381  0.1307
 1087TIP3   OH224895   2.460   0.522   0.701  0.1364  0.3243  0.0149
 1087TIP3    H124896   2.525   0.567   0.755 -0.7592  0.4306  1.0198
 1087TIP3    H224897   2.510   0.491   0.625  1.1004  1.5258  0.1348
 1088TIP3   OH224898   0.197   5.789   6.482  0.0552  0.5927 -0.1865
 1088TIP3    H124899   0.116   5.774   6.435 -0.1070  0.5653  0.0994
 1088TIP3    H224900   0.247   5.708   6.471 -0.4383  0.1618  0.5935
 1089TIP3   OH224901   2.197   0.507   6.452 -0.1552  0.0311 -0.0119
 1089TIP3    H124902   2.138   0.482   6.523  0.3551  1.0182  0.7840
 1089TIP3    H224903   2.140   0.534   6.381 -0.6743  0.1821  0.4567
 1090TIP3   OH224904   6.631   5.187   1.603 -0.2116  0.2634  0.8173
 1090TIP3    H124905   6.691   5.171   1.530  2.0334  1.0854  2.3472
 1090TIP3    H224906   6.689   5.191   1.680 -2.1751  1.8633  2.3124
 1091TIP3   OH224907   1.495   5.393   8.037  0.1617  0.0703 -0.6199
 1091TIP3    H124908   1.463   5.309   8.070 -2.2374  0.6040 -1.4148
 1091TIP3    H224909   1.424   5.455   8.057  0.4769  1.2490 -2.8877
 1092TIP3   OH224910   0.174   4.717   7.295  0.4409 -0.0513 -0.2836
 1092TIP3    H124911   0.202   4.633   7.332 -0.5267 -0.3884 -0.2917
 1092TIP3    H224912   0.248   4.776   7.312  1.8029 -1.2781 -1.6769
 1093TIP3   OH224913   1.918   6.021   0.937 -0.3828 -0.0550  0.0738
 1093TIP3    H124914   1.842   6.067   0.972 -0.4383 -0.6748  0.7879
 1093TIP3    H224915   1.966   5.992   1.014 -0.3708 -1.2352 -0.3667
 1094TIP3   OH224916   0.683   0.864   8.849 -0.1503 -0.0351 -0.5747
 1094TIP3    H124917   0.772   0.897   8.857 -0.5224  0.8904 -0.1056
 1094TIP3    H224918   0.664   0.867   8.755  0.1599  0.1662 -0.6314
 1095TIP3   OH224919   0.994   0.501   1.265 -0.3204 -0.1214 -0.1640
 1095TIP3    H124920   0.936   0.556   1.318 -0.7075  0.1440 -0.8520
 1095TIP3    H224921   1.060   0.563   1.231  1.0914 -0.6034  1.5589
 1096TIP3   OH224922   6.543   4.093   0.561 -0.0888  0.4708  0.1500
 1096TIP3    H124923   6.617   4.131   0.513  0.0145 -1.0144 -0.9379
 1096TIP3    H224924   6.582   4.060   0.642  0.4674 -0.3362 -0.4358
 1097TIP3   OH224925   0.586   1.766   1.607  0.3274 -0.3137 -0.1677
 1097TIP3    H124926   0.535   1.796   1.682 -0.2421  1.9586 -1.3803
 1097TIP3    H224927   0.521   1.727   1.548  0.4342 -0.0527 -0.4597
 1098TIP3   OH224928   4.568   4.688   0.396  0.5349 -0.5750  0.5436
 1098TIP3    H124929   4.502   4.702   0.464  1.0006 -1.0212  1.1060
 1098TIP3    H224930   4.648   4.669   0.445  0.7299 -1.5565 -0.1264
 1099TIP3   OH224931   2.408   4.934   7.643  0.9934 -0.8643  0.0566
 1099TIP3    H124932   2.482   4.913   7.700  0.8148  1.0848  1.0952
 1099TIP3    H224933   2.355   4.995   7.694 -1.0376 -1.7298 -0.8942
 1100TIP3   OH224934   2.237   2.544   2.530 -0.4525  0.0728 -0.1264
 1100TIP3    H124935   2.159   2.592   2.503 -0.1433  0.4090 -0.4243
 1100TIP3    H224936   2.278   2.516   2.448  1.2380  2.2894 -0.1336
 1101TIP3   OH224937   4.738   5.852   7.610 -0.3267 -0.5712 -0.0293
 1101TIP3    H124938   4.833   5.860   7.617 -0.3915 -0.0297  0.3737
 1101TIP3    H224939   4.723   5.798   7.533  0.3448 -2.1293  0.9058
 1102TIP3   OH224940   4.680   3.405   7.435 -0.1320  0.0279 -0.7658
 1102TIP3    H124941   4.667   3.379   7.526  2.1380 -1.2898 -0.7258
 1102TIP3    H224942   4.709   3.324   7.391 -1.5218  0.5498 -2.7597
 1103TIP3   OH224943   3.015   1.685   2.399  0.7708 -0.1895  0.0826
 1103TIP3    H124944   2.981   1.597   2.415 -0.0780  0.3011  1.0671
 1103TIP3    H224945   2.956   1.743   2.448  0.1886  1.1041 -2.0326
 1104TIP3   OH224946   2.432   2.790   1.846  0.4156  0.7325 -0.1400
 1104TIP3    H124947   2.338   2.774   1.834  0.2057 -1.0742  2.7263
 1104TIP3    H224948   2.474   2.708   1.822  0.8604  0.4182  1.5246
 1105TIP3   OH224949   5.651   3.309   1.637  0.4314 -0.3880  0.2855
 1105TIP3    H124950   5.558   3.311   1.613  0.3563 -0.1523  0.5912
 1105TIP3    H224951   5.675   3.216   1.633  0.6099 -0.3106 -1.3941
 1106TIP3   OH224952   4.858   0.498   1.727 -0.6647  0.1817 -0.5283
 1106TIP3    H124953   4.817   0.545   1.800 -0.8614  0.2417 -0.6769
 1106TIP3    H224954   4.882   0.413   1.764  0.3614  0.6567 -0.0532
 1107TIP3   OH224955   4.586   5.233   7.291 -0.2597 -0.2229 -0.0438
 1107TIP3    H124956   4.586   5.181   7.211 -0.8620  0.7474 -0.7041
 1107TIP3    H224957   4.678   5.247   7.311 -0.0996 -0.2331 -0.7440
 1108TIP3   OH224958   5.257   3.638   7.992  0.3685 -0.1334 -0.0783
 1108TIP3    H124959   5.320   3.621   8.062  1.3693  3.0580 -0.0254
 1108TIP3    H224960   5.179   3.670   8.037  1.1375  2.2663 -0.3056
 1109TIP3   OH224961   6.079   2.305   8.291  0.2048  0.2142  0.4079
 1109TIP3    H124962   6.034   2.323   8.209 -0.5170 -1.3949  0.4040
 1109TIP3    H224963   6.157   2.360   8.289 -1.3790  2.5934  0.1108
 1110TIP3   OH224964   3.418   3.568   0.465 -0.0059 -0.2517  0.6256
 1110TIP3    H124965   3.361   3.628   0.513 -0.6209 -0.7912  0.5923
 1110TIP3    H224966   3.446   3.504   0.531 -0.3653 -0.6439  0.4048
 1111TIP3   OH224967   3.928   1.787   1.622 -0.0810  0.2035 -0.5676
 1111TIP3    H124968   3.954   1.879   1.616 -0.4088  0.2653 -1.0461
 1111TIP3    H224969   3.999   1.746   1.671  0.0488  0.7160 -0.3115
 1112TIP3   OH224970   6.038   1.745   1.672  0.6134  0.1690 -0.4195
 1112TIP3    H124971   6.128   1.759   1.700  0.4307  0.8386 -0.1574
 1112TIP3    H224972   6.012   1.827   1.630  0.3303 -0.2383 -1.0639
 1113TIP3   OH224973   3.319   6.165   8.771  0.5455 -0.0638 -0.1335
 1113TIP3    H124974   3.323   6.258   8.748 -2.8018  0.5848  1.4153
 1113TIP3    H224975   3.275   6.124   8.696  1.0030 -0.2465 -0.3108
 1114TIP3   OH224976   4.883   1.417   1.235 -0.0026 -0.7881 -1.0041
 1114TIP3    H124977   4.904   1.378   1.320 -1.4247 -0.7622 -0.6139
 1114TIP3    H224978   4.912   1.352   1.171  0.0631 -1.3053 -0.4598
 1115TIP3   OH224979   1.360   3.640   1.205  0.1936  0.2635 -0.2301
 1115TIP3    H124980   1.419   3.632   1.130  0.5664  1.3744 -0.0876
 1115TIP3    H224981   1.392   3.575   1.268  1.4170  0.9702 -0.0846
 1116TIP3   OH224982   0.930   1.791   7.789 -0.3533 -0.1071 -0.0951
 1116TIP3    H124983   0.998   1.828   7.845 -1.2740  2.1637 -0.3498
 1116TIP3    H224984   0.871   1.746   7.850  0.6322 -0.9509  0.2712
 1117TIP3   OH224985   2.704   2.800   7.080 -0.1449  0.3518  0.3737
 1117TIP3    H124986   2.772   2.867   7.074 -1.6803  1.9271 -0.0569
 1117TIP3    H224987   2.704   2.759   6.993 -0.6945  1.3353 -0.1058
 1118TIP3   OH224988   3.597   6.358   6.700  0.2676  0.0400 -0.2601
 1118TIP3    H124989   3.593   6.379   6.606 -0.5974 -0.3390 -0.3115
 1118TIP3    H224990   3.670   6.296   6.707 -1.7076 -2.5646 -1.2219
 1119TIP3   OH224991   4.168   0.071   6.323  0.8335  0.0442  0.5242
 1119TIP3    H124992   4.253   0.055   6.364  1.0209  1.7398  0.8888
 1119TIP3    H224993   4.107   0.078   6.396  0.1980 -1.9494  0.2308
 1120TIP3   OH224994   5.366   1.432   8.895 -0.0312 -0.2850 -0.0800
 1120TIP3    H124995   5.315   1.456   8.973  0.0407  0.5895 -0.2910
 1120TIP3    H224996   5.339   1.342   8.876  0.9143 -0.9962  1.7044
 1121TIP3   OH224997   6.287   4.393   8.298 -0.1608 -0.2254  0.1403
 1121TIP3    H124998   6.377   4.365   8.314  0.3059  1.1961  0.1037
 1121TIP3    H224999   6.238   4.364   8.375  0.9085  1.4670  1.5385
 1122TIP3   OH225000   1.053   6.048   1.556 -0.2716  0.1904  0.1191
 1122TIP3    H125001   1.065   6.007   1.641  0.0115  1.0941  0.5303
 1122TIP3    H225002   1.091   5.987   1.493  0.0393 -0.2136  0.6979
 1123TIP3   OH225003   4.460   1.027   7.001 -0.6580  0.0459  0.6689
 1123TIP3    H125004   4.447   1.112   6.960 -0.9474  0.1190  0.9004
 1123TIP3    H225005   4.404   1.030   7.079  0.3656  0.1595  1.4249
 1124TIP3   OH225006   0.223   3.927   7.410  0.3283 -0.0023 -0.2577
 1124TIP3    H125007   0.235   3.872   7.333 -0.8738 -0.3101 -0.2485
 1124TIP3    H225008   0.242   3.869   7.484 -2.7886 -1.0549 -0.1552
 1125TIP3   OH225009   4.261   5.192   8.813  0.0661 -0.1923 -0.6614
 1125TIP3    H125010   4.274   5.285   8.791 -0.3585  0.6604  2.1978
 1125TIP3    H225011   4.212   5.157   8.739 -0.7489  2.1697 -1.3575
 1126TIP3   OH225012   3.353   3.018   8.309  0.3694 -0.0905 -0.0307
 1126TIP3    H125013   3.376   3.103   8.271  3.2932 -0.8560 -0.2130
 1126TIP3    H225014   3.331   2.963   8.234 -2.7032  0.7043  0.1585
 1127TIP3   OH225015   6.355   6.813   8.330  0.9513 -0.5186 -0.4766
 1127TIP3    H125016   6.285   6.759   8.294  0.6710  0.2897 -1.1803
 1127TIP3    H225017   6.427   6.753   8.345  0.0670 -1.3890  0.3743
 1128TIP3   OH225018   3.732   2.465   8.204  0.1182  0.0057 -0.1029
 1128TIP3    H125019   3.757   2.511   8.123  0.0552  0.2395  0.0083
 1128TIP3    H225020   3.815   2.437   8.242  0.6610  3.7355  2.0415
 1129TIP3   OH225021   6.312   5.938   8.333  0.3744 -0.6097 -0.0786
 1129TIP3    H125022   6.350   5.879   8.268  0.3194  0.2741 -0.9407
 1129TIP3    H225023   6.219   5.942   8.310  0.1321 -1.1940  0.7810
 1130TIP3   OH225024   1.200   1.291   2.533 -0.1264 -0.1252 -0.2049
 1130TIP3    H125025   1.261   1.229   2.493  1.9663  1.0870  0.9005
 1130TIP3    H225026   1.241   1.315   2.616 -1.7666  1.3295  0.2492
 1131TIP3   OH225027   0.599   1.260   7.464 -0.0265 -0.3835 -0.3643
 1131TIP3    H125028   0.673   1.227   7.414 -0.1188 -0.7576 -0.2606
 1131TIP3    H225029   0.614   1.229   7.553  0.6313  1.0754  0.0646
 1132TIP3   OH225030   1.926   2.195   1.023  0.0144 -0.5329  0.5967
 1132TIP3    H125031   1.997   2.256   1.005 -0.4282 -0.7575 -2.3285
 1132TIP3    H225032   1.951   2.154   1.106  2.9036 -0.0608  0.0747
 1133TIP3   OH225033   0.123   1.601   0.912 -0.1828  0.0739  0.4003
 1133TIP3    H125034   0.098   1.530   0.971 -0.6389  0.4931  0.7091
 1133TIP3    H225035   0.042   1.648   0.894 -0.2850 -0.7369 -1.4945
 1134TIP3   OH225036   4.394   5.810   7.254 -0.0422  0.1148  0.3729
 1134TIP3    H125037   4.362   5.900   7.241 -0.5098 -0.1978 -0.7991
 1134TIP3    H225038   4.337   5.757   7.199  2.1145 -0.5405 -1.3795
 1135TIP3   OH225039   0.621   2.547   0.852  0.5204 -0.2349  0.5234
 1135TIP3    H125040   0.532   2.512   0.846  1.0298 -1.7973  1.5336
 1135TIP3    H225041   0.615   2.634   0.812 -0.7371 -1.5588 -2.4655
 1136TIP3   OH225042   4.452   2.386   8.389 -0.4622  0.4809 -0.4616
 1136TIP3    H125043   4.469   2.291   8.391 -2.0574  0.1626 -0.3071
 1136TIP3    H225044   4.539   2.426   8.381  0.3630 -0.9331  0.8764
 1137TIP3   OH225045   1.204   2.491   1.862  0.2169  0.9735  0.3086
 1137TIP3    H125046   1.138   2.433   1.824 -0.9947 -0.6318  4.3812
 1137TIP3    H225047   1.277   2.433   1.884  1.2918  2.0213 -0.3861
 1138TIP3   OH225048   4.138   4.124   1.339  0.2311 -0.2419  0.1169
 1138TIP3    H125049   4.135   4.208   1.385  0.1360  0.0666 -0.4435
 1138TIP3    H225050   4.220   4.126   1.289  0.7436 -0.9204  0.9098
 1139TIP3   OH225051   3.623   0.545   0.974 -0.2524 -0.2495 -0.1566
 1139TIP3    H125052   3.657   0.626   1.014 -1.5246  0.8791 -1.2391
 1139TIP3    H225053   3.528   0.557   0.975 -0.4061 -1.2523 -1.3348
 1140TIP3   OH225054   6.756   0.085   6.563  0.0847 -0.4252  0.6306
 1140TIP3    H125055   6.779  -0.007   6.572 -0.3572 -0.6680 -0.5615
 1140TIP3    H225056   6.662   0.086   6.548  0.2915  0.0781 -0.8628
 1141TIP3   OH225057   2.524   3.209   7.533 -0.6860  0.0022  0.5769
 1141TIP3    H125058   2.610   3.250   7.543 -0.4124 -0.1070 -0.9669
 1141TIP3    H225059   2.544   3.116   7.517 -0.9440  0.2451 -1.4532
 1142TIP3   OH225060   5.975   2.448   0.068  0.2788 -0.0151 -0.1197
 1142TIP3    H125061   5.894   2.478   0.109  0.0847  0.8264 -1.0868
 1142TIP3    H225062   6.036   2.521   0.079  0.8038 -0.4998  0.2708
 1143TIP3   OH225063   4.022   1.147   7.253 -0.0039  0.1738  0.2334
 1143TIP3    H125064   3.995   1.063   7.215  2.7172 -0.6099 -0.1582
 1143TIP3    H225065   3.949   1.172   7.310 -0.6278 -2.7868  0.9074
 1144TIP3   OH225066   3.528   1.780   0.151  0.0132  0.5385  0.2370
 1144TIP3    H125067   3.433   1.771   0.143  0.1960 -1.0099 -0.6464
 1144TIP3    H225068   3.549   1.739   0.235  0.0420 -0.5233 -0.2756
 1145TIP3   OH225069   2.997   1.320   8.876  0.1695 -0.0007  0.0346
 1145TIP3    H125070   3.030   1.333   8.965 -0.7040 -0.7551  0.4969
 1145TIP3    H225071   2.997   1.407   8.837  2.0688  0.1038  0.2142
 1146TIP3   OH225072   0.245   4.284   0.842  0.4944  0.3177  0.2618
 1146TIP3    H125073   0.284   4.342   0.777  2.3168 -1.8607 -0.7066
 1146TIP3    H225074   0.317   4.262   0.901 -0.5027  0.1268  1.4607
 1147TIP3   OH225075   5.103   2.583   7.645 -0.4784  0.3309 -0.2446
 1147TIP3    H125076   5.134   2.496   7.673 -0.3908 -0.1423 -1.7355
 1147TIP3    H225077   5.177   2.620   7.597 -1.6183 -0.2200 -2.5959
 1148TIP3   OH225078   3.859   4.021   2.215 -0.5030  0.4053 -0.7767
 1148TIP3    H125079   3.923   4.085   2.185  1.1664 -0.6527  0.3565
 1148TIP3    H225080   3.781   4.072   2.237  0.7348  2.0248 -0.0142
 1149TIP3   OH225081   0.470   2.877   1.759 -0.3730 -0.3344  0.2960
 1149TIP3    H125082   0.541   2.881   1.695  0.8744 -3.3127  1.3139
 1149TIP3    H225083   0.390   2.887   1.707  0.6644  1.8441 -1.0409
 1150TIP3   OH225084   0.536   2.604   7.499 -0.4603 -0.3158 -0.2269
 1150TIP3    H125085   0.536   2.584   7.405  0.1420 -0.1333 -0.2688
 1150TIP3    H225086   0.472   2.676   7.508 -0.2199 -0.0562 -0.5578
 1151TIP3   OH225087   0.037   6.614   1.664  0.0457  0.4911 -0.1584
 1151TIP3    H125088   0.033   6.518   1.668 -0.3229  0.4710 -0.8617
 1151TIP3    H225089   0.125   6.633   1.630  0.2994  0.4193  0.4567
 1152TIP3   OH225090   2.891   2.630   1.736  0.0326 -0.1824  0.4393
 1152TIP3    H125091   2.983   2.618   1.711  0.2783  0.3022  1.1052
 1152TIP3    H225092   2.882   2.724   1.749 -0.2956 -0.3384  1.3846
 1153TIP3   OH225093   4.553   6.193   8.538  0.2789  0.1127 -0.2626
 1153TIP3    H125094   4.567   6.260   8.605  0.1112  2.4344 -2.4006
 1153TIP3    H225095   4.632   6.196   8.484 -1.1302  1.1609 -2.4179
 1154TIP3   OH225096   2.457   0.711   6.669 -0.1918 -0.0215 -0.9149
 1154TIP3    H125097   2.541   0.736   6.630 -0.2057 -0.5449 -1.2966
 1154TIP3    H225098   2.442   0.621   6.638  0.4033 -0.9613  1.3338
 1155TIP3   OH225099   6.770   4.366   0.300  0.9443  0.5378 -0.1167
 1155TIP3    H125100   6.686   4.392   0.262 -0.2924 -3.1758 -0.2635
 1155TIP3    H225101   6.829   4.356   0.225  1.4592  2.6269 -0.0562
 1156TIP3   OH225102   3.826   5.178   0.816 -0.6082 -0.2742 -0.2083
 1156TIP3    H125103   3.734   5.196   0.835 -0.4788 -0.1849  0.3458
 1156TIP3    H225104   3.860   5.141   0.898 -0.4429 -1.4233 -0.7730
 1157TIP3   OH225105   2.246   3.194   1.948  0.3987 -0.3400 -0.0222
 1157TIP3    H125106   2.254   3.149   2.032 -0.4205 -0.5192 -0.0319
 1157TIP3    H225107   2.319   3.255   1.947  0.3344 -0.2307  0.8857
 1158TIP3   OH225108   2.457   1.701   8.807  0.1466 -0.0421  0.1761
 1158TIP3    H125109   2.422   1.771   8.862 -0.2967  0.8068 -1.1342
 1158TIP3    H225110   2.382   1.674   8.753  0.9667  0.3495 -1.2019
 1159TIP3   OH225111   3.833   6.280   8.473  0.3695  0.1241 -0.2968
 1159TIP3    H125112   3.810   6.262   8.564  0.8752 -0.2835 -0.2426
 1159TIP3    H225113   3.873   6.198   8.442 -1.0993 -0.2533 -1.3219
 1160TIP3   OH225114   1.722   3.843   6.866 -0.1459  0.6092  0.1458
 1160TIP3    H125115   1.796   3.885   6.910  1.1204 -2.6420  1.3852
 1160TIP3    H225116   1.751   3.834   6.775 -0.4854  2.3178 -0.1793
 1161TIP3   OH225117   2.889   2.794   7.503  0.1246 -0.3205  0.4493
 1161TIP3    H125118   2.854   2.832   7.422 -0.0629 -1.3561  0.0208
 1161TIP3    H225119   2.898   2.868   7.563  1.1650  0.6338 -0.8265
 1162TIP3   OH225120   3.009   0.574   7.234  0.0918  0.8079 -0.0852
 1162TIP3    H125121   3.050   0.658   7.256 -0.6999  1.0701  0.4421
 1162TIP3    H225122   3.007   0.526   7.316 -1.0013  0.9626 -0.0057
 1163TIP3   OH225123   4.554   0.437   7.238  0.3211 -0.3709 -1.0165
 1163TIP3    H125124   4.518   0.365   7.290 -3.9034  1.8217 -0.4726
 1163TIP3    H225125   4.623   0.473   7.294 -1.7637 -0.2253  1.7286
 1164TIP3   OH225126   0.767   6.475   1.374  0.1669 -0.5924  0.1819
 1164TIP3    H125127   0.813   6.532   1.312  1.0155 -0.0453  1.2749
 1164TIP3    H225128   0.811   6.391   1.365  1.0056 -0.2363  0.7674
 1165TIP3   OH225129   4.805   4.920   8.373 -0.2564 -0.3407 -0.2487
 1165TIP3    H125130   4.767   4.841   8.410 -0.2474 -0.0650  0.3537
 1165TIP3    H225131   4.801   4.984   8.443 -0.6225  0.3135 -0.8548
 1166TIP3   OH225132   3.968   1.510   1.280 -0.3091  0.4939 -0.5259
 1166TIP3    H125133   3.965   1.510   1.376  1.4012  2.4051 -0.3999
 1166TIP3    H225134   3.881   1.542   1.254 -0.6247  0.4403  0.3950
 1167TIP3   OH225135   5.998   2.723   0.238 -0.1721  0.2067  0.9218
 1167TIP3    H125136   5.993   2.790   0.307 -0.0520  0.5001  0.6446
 1167TIP3    H225137   5.932   2.750   0.174  0.7928  0.8067  0.1590
 1168TIP3   OH225138   5.494   5.428   2.455  0.0151  0.1901 -0.6183
 1168TIP3    H125139   5.460   5.500   2.402  0.6648  1.1170  0.1776
 1168TIP3    H225140   5.551   5.471   2.520 -0.1819 -0.9711  0.3588
 1169TIP3   OH225141   3.074   4.695   7.192  0.4163 -0.2193 -0.1122
 1169TIP3    H125142   2.988   4.680   7.231  0.1845  0.2370 -0.4415
 1169TIP3    H225143   3.087   4.620   7.134 -0.0608  0.0564 -0.5818
 1170TIP3   OH225144   4.679   0.710   7.842 -0.7354 -0.2402 -0.2946
 1170TIP3    H125145   4.731   0.716   7.762 -1.6569  0.3230 -0.8789
 1170TIP3    H225146   4.620   0.786   7.838 -2.0648 -1.2239 -0.0139
 1171TIP3   OH225147   3.074   0.149   0.294 -0.2741 -0.2710  0.5608
 1171TIP3    H125148   3.119   0.065   0.290  0.7943  0.1223  2.7775
 1171TIP3    H225149   3.079   0.184   0.205  1.3896 -1.4645  0.1475
 1172TIP3   OH225150   4.198   2.217   7.535  0.2207 -0.1413  0.3836
 1172TIP3    H125151   4.141   2.144   7.557  0.0726 -0.3186 -0.5406
 1172TIP3    H225152   4.232   2.196   7.448  2.5657 -0.5771  1.3212
 1173TIP3   OH225153   6.751   0.755   0.425  0.6924  0.2204 -0.0206
 1173TIP3    H125154   6.812   0.823   0.396 -0.3978  0.9814 -0.6164
 1173TIP3    H225155   6.671   0.772   0.375  0.6028 -1.9375 -0.6980
 1174TIP3   OH225156   6.822   5.903   1.576 -0.5118  0.8152 -0.0628
 1174TIP3    H125157   6.733   5.937   1.574  0.2314  3.0192  0.6709
 1174TIP3    H225158   6.831   5.863   1.662 -0.2504  2.3549  0.6613
 1175TIP3   OH225159   6.631   5.471   8.618  0.2366 -0.7561  0.1869
 1175TIP3    H125160   6.559   5.523   8.580 -1.3775 -1.7578  1.7027
 1175TIP3    H225161   6.709   5.522   8.600 -0.9239  0.7253 -0.9707
 1176TIP3   OH225162   4.885   0.063   8.659  0.3307 -0.3338 -0.6367
 1176TIP3    H125163   4.906   0.135   8.719  1.4958  1.0573 -2.5694
 1176TIP3    H225164   4.791   0.049   8.670  0.1648  1.1531  0.1630
 1177TIP3   OH225165   4.193   2.334   8.757  0.4003 -0.9238  0.1530
 1177TIP3    H125166   4.288   2.349   8.760  0.4129 -1.0652  0.6564
 1177TIP3    H225167   4.182   2.246   8.793  0.1201 -1.1080 -0.3846
 1178TIP3   OH225168   3.951   6.376   8.234 -0.1812 -0.7955  0.4462
 1178TIP3    H125169   3.949   6.352   8.327  0.4646 -2.6863  0.0080
 1178TIP3    H225170   3.894   6.453   8.228 -0.7405 -1.0235  2.2940
 1179TIP3   OH225171   2.708   0.759   6.590  0.1481 -0.0769 -0.0239
 1179TIP3    H125172   2.756   0.832   6.550 -2.1874  1.3180 -0.4369
 1179TIP3    H225173   2.759   0.682   6.567  1.0568  1.0950 -2.2518
 1180TIP3   OH225174   6.119   2.828   7.916  0.4047 -0.1249 -0.0809
 1180TIP3    H125175   6.069   2.893   7.966  0.9407  0.3729 -0.1716
 1180TIP3    H225176   6.099   2.847   7.825  0.6958  0.0302 -0.1145
 1181TIP3   OH225177   5.104   0.878   1.403 -0.1040 -0.5462  0.1252
 1181TIP3    H125178   5.122   0.896   1.496  1.4314  3.3935 -0.7390
 1181TIP3    H225179   5.017   0.914   1.388 -0.1732 -0.7931 -0.0734
 1182TIP3   OH225180   1.619   1.725   8.270  0.4527 -0.1629  0.1033
 1182TIP3    H125181   1.646   1.815   8.289 -0.8518  0.2700 -0.0084
 1182TIP3    H225182   1.654   1.707   8.182  0.7307  0.2199  0.1340
 1183TIP3   OH225183   4.863   4.509   7.139 -0.2520  0.5304 -0.2408
 1183TIP3    H125184   4.945   4.494   7.093  0.1856  1.0422  0.3537
 1183TIP3    H225185   4.808   4.555   7.076 -0.8533 -1.6069 -1.3613
 1184TIP3   OH225186   6.135   6.535   8.483  0.4810 -0.3412 -0.1446
 1184TIP3    H125187   6.107   6.449   8.516  1.4439  0.0461  1.8762
 1184TIP3    H225188   6.229   6.538   8.502  0.4632  1.1649 -0.1598
 1185TIP3   OH225189   0.071   0.276   8.770  0.0439  0.2454  0.7389
 1185TIP3    H125190   0.112   0.318   8.846 -1.1615  1.6993  0.6540
 1185TIP3    H225191   0.084   0.338   8.698  0.8928 -0.9738 -0.1902
 1186TIP3   OH225192   0.223   4.348   0.145  0.0026  0.7037 -0.0066
 1186TIP3    H125193   0.209   4.436   0.110 -0.2159  0.1330 -1.4237
 1186TIP3    H225194   0.280   4.361   0.221 -1.0131  2.1713  0.5466
 1187TIP3   OH225195   3.620   1.109   1.115  0.5386  0.0025 -0.0428
 1187TIP3    H125196   3.636   1.137   1.205 -1.6152  0.8399  0.1434
 1187TIP3    H225197   3.639   1.186   1.062  2.7321 -0.7620 -0.4723
 1188TIP3   OH225198   1.626   3.101   0.170 -0.0817  0.1030  0.3779
 1188TIP3    H125199   1.554   3.051   0.208 -0.8365  0.0233 -1.0875
 1188TIP3    H225200   1.680   3.126   0.245 -2.2520  1.2128  1.6865
 1189TIP3   OH225201   5.784   5.104   0.004  0.0815 -0.1450  0.1287
 1189TIP3    H125202   5.695   5.121  -0.029  0.0358  0.1209  0.3795
 1189TIP3    H225203   5.784   5.011   0.028 -0.4332  0.0689  1.0222
 1190TIP3   OH225204   4.390   6.523   8.345  0.0225  0.2449 -0.8675
 1190TIP3    H125205   4.308   6.556   8.308  0.5892  1.3521 -1.1756
 1190TIP3    H225206   4.363   6.474   8.423 -0.7886  2.5537  0.4174
 1191TIP3   OH225207   6.497   0.444   7.715 -0.2257 -0.3910 -0.0301
 1191TIP3    H125208   6.553   0.508   7.670 -0.6734 -0.0229 -0.0741
 1191TIP3    H225209   6.473   0.381   7.647  2.1679 -2.0272  0.5042
 1192TIP3   OH225210   5.357   2.105   8.505 -0.2140 -0.0134  0.7795
 1192TIP3    H125211   5.301   2.179   8.524 -2.0815 -1.1498 -0.0491
 1192TIP3    H225212   5.334   2.039   8.570  0.0741 -0.5377  0.3662
 1193TIP3   OH225213   5.238   6.644   8.211 -0.2874 -0.0569  0.1243
 1193TIP3    H125214   5.152   6.678   8.237 -1.0916 -2.3270  0.6446
 1193TIP3    H225215   5.242   6.659   8.117 -0.0592  2.4797  0.4579
 1194TIP3   OH225216   5.502   3.915   0.662 -0.8814  0.6450 -0.4556
 1194TIP3    H125217   5.526   3.829   0.697  2.0803  1.4140 -0.3638
 1194TIP3    H225218   5.548   3.921   0.578 -2.7403  1.3591 -1.4800
 1195TIP3   OH225219   0.719   3.823   1.976  0.5764  0.0118  0.3040
 1195TIP3    H125220   0.717   3.919   1.975  0.9125  0.0280 -1.2959
 1195TIP3    H225221   0.661   3.798   1.904 -0.2771 -1.0295  1.3136
 1196TIP3   OH225222   5.612   3.792   0.976  0.1911 -0.2794 -0.5246
 1196TIP3    H125223   5.681   3.760   0.918  0.5222 -1.9982  0.7314
 1196TIP3    H225224   5.631   3.750   1.060 -1.2109  0.8473  0.3934
 1197TIP3   OH225225   4.236   6.618   1.338  0.7087 -0.2479 -0.0724
 1197TIP3    H125226   4.279   6.696   1.302  1.2781 -0.1551  0.7786
 1197TIP3    H225227   4.246   6.551   1.271 -0.7019  0.6874 -1.2659
 1198TIP3   OH225228   6.630   6.492   7.850 -0.1738 -0.2879  0.2866
 1198TIP3    H125229   6.715   6.535   7.854 -1.0056  1.3276  1.8846
 1198TIP3    H225230   6.636   6.419   7.912  0.4021 -0.9553 -0.5224
 1199TIP3   OH225231   0.708   1.393   1.605 -0.3221 -0.2828 -0.0538
 1199TIP3    H125232   0.735   1.439   1.526  2.9932 -1.0651  0.4778
 1199TIP3    H225233   0.770   1.423   1.673 -2.3473 -0.4783  2.0063
 1200TIP3   OH225234   3.428   6.488   8.912 -0.7546  0.5977  0.2580
 1200TIP3    H125235   3.394   6.534   8.988  1.3060  0.7094  1.1729
 1200TIP3    H225236   3.477   6.555   8.863  1.4941 -0.3247  1.1191
 1201TIP3   OH225237   4.138   1.046   1.084  0.0951 -0.0754  0.7523
 1201TIP3    H125238   4.067   1.102   1.116  0.5299 -0.0070  1.6390
 1201TIP3    H225239   4.203   1.048   1.154  2.2806  2.1333 -1.1564
 1202TIP3   OH225240   3.584   2.926   0.019  0.3389 -0.6078  0.5549
 1202TIP3    H125241   3.492   2.942  -0.004  0.0067 -2.6799  0.2187
 1202TIP3    H225242   3.583   2.920   0.114  0.6253  1.8839  0.7765
 1203TIP3   OH225243   0.387   3.671   1.645 -0.7428  0.0134 -0.1249
 1203TIP3    H125244   0.314   3.612   1.628 -0.7412 -0.2576  0.7691
 1203TIP3    H225245   0.357   3.728   1.716 -0.0722 -0.1422  0.2983
 1204TIP3   OH225246   5.475   5.569   8.647  0.1639 -0.9903 -0.5064
 1204TIP3    H125247   5.394   5.616   8.663  0.2418 -1.1015  0.2430
 1204TIP3    H225248   5.493   5.583   8.554 -0.4110 -0.4930 -0.5467
 1205TIP3   OH225249   4.912   3.440   8.251  0.4067  0.1772  0.0535
 1205TIP3    H125250   4.880   3.368   8.305  3.5222 -0.3196  1.4110
 1205TIP3    H225251   4.918   3.404   8.163  0.0058 -0.5744  0.3273
 1206TIP3   OH225252   2.804   2.859   2.275 -0.2768  0.3695  0.4064
 1206TIP3    H125253   2.712   2.851   2.249 -0.4341  1.8155  0.4332
 1206TIP3    H225254   2.852   2.855   2.192 -0.2771 -1.1577  0.4508
 1207TIP3   OH225255   4.996   5.551   8.796 -0.1650  0.0961 -0.2717
 1207TIP3    H125256   4.977   5.550   8.702  0.9919  3.1443 -0.6633
 1207TIP3    H225257   5.092   5.551   8.801 -0.2121 -1.3688  0.9930
 1208TIP3   OH225258   4.126   0.574   8.261 -0.1508  0.3995 -0.3179
 1208TIP3    H125259   4.059   0.511   8.287 -1.7038  1.5550 -1.3388
 1208TIP3    H225260   4.163   0.605   8.344 -1.4457  0.3097  0.3120
 1209TIP3   OH225261   3.316   4.935   8.679 -0.4498 -0.2149 -0.2624
 1209TIP3    H125262   3.242   4.903   8.731 -0.1962 -1.1706 -0.4636
 1209TIP3    H225263   3.291   4.914   8.588  1.2924 -3.3517 -0.1769
 1210TIP3   OH225264   2.039   6.544   7.628  0.3619  0.2460 -0.5195
 1210TIP3    H125265   2.047   6.631   7.591 -1.6927  1.4372  1.5324
 1210TIP3    H225266   1.958   6.509   7.589  0.5278 -0.2410 -0.4347
 1211TIP3   OH225267   4.421   2.319   7.094 -0.2038  0.0383 -0.0247
 1211TIP3    H125268   4.427   2.414   7.087 -2.2231  0.4357  2.3377
 1211TIP3    H225269   4.410   2.289   7.003 -0.3229  2.1158 -0.7440
 1212TIP3   OH225270   1.039   4.932   0.658  0.2753  0.4701  0.1946
 1212TIP3    H125271   0.946   4.909   0.650  0.7394 -2.3481  1.4980
 1212TIP3    H225272   1.040   5.011   0.712 -1.3542  0.4867  0.2461
 1213TIP3   OH225273   2.826   6.155   7.677  0.3384 -0.2027 -0.6427
 1213TIP3    H125274   2.790   6.238   7.648 -1.6856 -0.4963  0.8127
 1213TIP3    H225275   2.758   6.117   7.733  2.3682 -1.4819  1.1409
 1214TIP3   OH225276   5.205   3.239   8.714 -0.1096  0.3957  0.4726
 1214TIP3    H125277   5.219   3.173   8.645 -1.2973  0.1477  0.4522
 1214TIP3    H225278   5.227   3.194   8.795 -0.9700 -0.0526  0.4630
 1215TIP3   OH225279   2.717   5.014   1.662  0.6962  0.1506 -0.2387
 1215TIP3    H125280   2.742   5.104   1.639  0.3317  0.3909  0.2685
 1215TIP3    H225281   2.621   5.016   1.665  0.7187  0.0311  0.8587
 1216TIP3   OH225282   4.277   6.149   7.527  1.0368  0.0178  0.3454
 1216TIP3    H125283   4.251   6.058   7.509  1.2487 -0.0193  0.2229
 1216TIP3    H225284   4.371   6.145   7.541  1.3241  0.4424 -1.2685
 1217TIP3   OH225285   2.766   4.293   2.171 -0.0304 -0.4035 -0.1019
 1217TIP3    H125286   2.812   4.300   2.254 -1.8463  0.8263  0.8629
 1217TIP3    H225287   2.706   4.219   2.183  0.1963 -0.6747 -0.5963
 1218TIP3   OH225288   0.993   4.737   0.458 -0.7389  0.4282 -0.4353
 1218TIP3    H125289   0.917   4.754   0.404 -0.9512  2.0931  0.3432
 1218TIP3    H225290   1.002   4.814   0.513 -0.1535 -0.9346  1.4711
 1219TIP3   OH225291   5.547   0.292   8.388 -0.8218 -0.2292 -0.3759
 1219TIP3    H125292   5.534   0.252   8.302  1.9611 -1.0496 -0.5162
 1219TIP3    H225293   5.630   0.256   8.419 -0.6612  1.6991  1.7201
 1220TIP3   OH225294   2.637   5.012   0.674  0.1080  0.3973  0.5820
 1220TIP3    H125295   2.630   5.045   0.764  0.9262 -0.0148  0.8081
 1220TIP3    H225296   2.598   5.081   0.620  0.5095  1.0960  1.1677
 1221TIP3   OH225297   2.495   6.026   8.741 -0.7444  0.3666  0.5773
 1221TIP3    H125298   2.523   6.053   8.654  0.1382 -2.1638 -0.0157
 1221TIP3    H225299   2.575   5.995   8.783 -1.3201  0.7058  1.9884
 1222TIP3   OH225300   5.666   6.289   0.678  0.2574 -0.0937  0.3130
 1222TIP3    H125301   5.610   6.299   0.756  1.1472  4.5622  0.6468
 1222TIP3    H225302   5.607   6.303   0.604  0.3341  1.7116  0.5375
 1223TIP3   OH225303   1.784   1.986   0.213  0.1145 -0.2726  0.5447
 1223TIP3    H125304   1.715   1.928   0.180 -0.5308  1.2710 -0.9257
 1223TIP3    H225305   1.861   1.965   0.160 -0.0946  0.1579  0.0710
 1224TIP3   OH225306   3.750   3.500   2.537  0.4362 -0.3544  1.1785
 1224TIP3    H125307   3.697   3.569   2.577 -1.7325  0.1706 -2.1815
 1224TIP3    H225308   3.692   3.424   2.536 -0.2794  0.0765 -2.0621
 1225TIP3   OH225309   4.902   0.971   0.860  0.1172  0.2158 -0.0040
 1225TIP3    H125310   4.883   0.909   0.790  0.2730  0.2527 -0.0785
 1225TIP3    H225311   4.973   0.931   0.910 -0.9049 -0.4567  0.9543
 1226TIP3   OH225312   0.981   5.504   0.177  0.2755 -0.1772  0.6376
 1226TIP3    H125313   0.978   5.446   0.101 -0.7809  2.4993 -1.5597
 1226TIP3    H225314   1.072   5.533   0.181 -0.0061  1.0724 -0.8714
 1227TIP3   OH225315   5.208   5.445   8.453  0.2714 -0.0217 -0.1362
 1227TIP3    H125316   5.208   5.450   8.357  1.4293  0.3620 -0.1323
 1227TIP3    H225317   5.263   5.518   8.481 -0.3176  0.0599  0.8423
 1228TIP3   OH225318   6.503   2.989   7.197  0.2398 -0.1857  0.5259
 1228TIP3    H125319   6.439   2.938   7.247  0.9787 -0.2667  1.4112
 1228TIP3    H225320   6.586   2.944   7.211  0.7620  0.7824  0.6544
 1229TIP3   OH225321   6.544   0.551   8.394 -0.4708  0.2535  0.5480
 1229TIP3    H125322   6.458   0.512   8.410 -0.0029 -0.1839  2.2777
 1229TIP3    H225323   6.525   0.641   8.367 -1.4866  0.1486  0.8719
 1230TIP3   OH225324   0.689   3.551   8.569 -0.0136 -0.0400 -0.4936
 1230TIP3    H125325   0.638   3.632   8.576 -1.0758 -0.7587  0.4427
 1230TIP3    H225326   0.780   3.580   8.573 -0.3791  1.0921  0.2246
 1231TIP3   OH225327   6.191   0.984   1.591 -0.8448 -0.2517  0.1185
 1231TIP3    H125328   6.174   1.069   1.632  0.9459  0.9684 -1.4848
 1231TIP3    H225329   6.110   0.965   1.543 -1.1839  0.6971  0.2844
 1232TIP3   OH225330   5.763   2.914   8.719 -0.2623  0.0162  0.0742
 1232TIP3    H125331   5.758   3.009   8.724 -0.5357 -0.0285  0.9196
 1232TIP3    H225332   5.673   2.886   8.704 -0.3750 -0.1476  0.9671
 1233TIP3   OH225333   5.437   1.316   0.726  0.1672  0.4141 -0.0180
 1233TIP3    H125334   5.360   1.348   0.679  0.7911 -0.0136 -1.3820
 1233TIP3    H225335   5.441   1.223   0.705  0.9449  0.3911  0.2007
 1234TIP3   OH225336   3.360   4.210   1.722 -0.6701 -0.0607 -0.2220
 1234TIP3    H125337   3.330   4.216   1.813 -3.0451 -0.3255 -0.9129
 1234TIP3    H225338   3.376   4.116   1.708 -0.5035 -0.0444 -0.1455
 1235TIP3   OH225339   1.709   4.073   7.619 -0.1206  0.6583  0.6867
 1235TIP3    H125340   1.718   4.167   7.637 -0.9776  0.7370  0.7208
 1235TIP3    H225341   1.701   4.067   7.524  1.8033  0.4483  0.4839
 1236TIP3   OH225342   6.166   3.662   0.267  0.1522  0.6209  0.3155
 1236TIP3    H125343   6.111   3.585   0.279  2.6986 -1.2578  0.6266
 1236TIP3    H225344   6.118   3.715   0.203 -2.4222 -0.3986  1.2446
 1237TIP3   OH225345   5.813   6.693   8.839 -0.1983 -0.4473 -0.0945
 1237TIP3    H125346   5.737   6.724   8.890 -0.6307 -2.8324  0.8234
 1237TIP3    H225347   5.845   6.772   8.795 -3.9393  0.4843 -1.5300
 1238TIP3   OH225348   1.425   4.569   1.508 -0.1738  0.6592 -0.1344
 1238TIP3    H125349   1.422   4.656   1.468 -0.4104 -0.5929 -3.1250
 1238TIP3    H225350   1.513   4.537   1.488  0.4995  0.7218  2.3613
 1239TIP3   OH225351   5.060   5.772   7.078  0.6077  0.0698 -0.0753
 1239TIP3    H125352   5.043   5.829   7.153  1.1799 -0.2523  0.2981
 1239TIP3    H225353   5.151   5.746   7.087  0.6579 -0.0430 -0.8380
 1240TIP3   OH225354   6.214   6.634   1.137  0.0957  0.4705 -0.2680
 1240TIP3    H125355   6.212   6.722   1.100  1.4401  0.8594  0.5434
 1240TIP3    H225356   6.227   6.647   1.231 -0.1063 -0.5867 -0.0800
 1241TIP3   OH225357   4.069   5.763   8.795  0.0999  0.5793 -0.9602
 1241TIP3    H125358   4.041   5.687   8.846  0.5481  1.1220  0.1224
 1241TIP3    H225359   4.140   5.802   8.847 -1.1233  2.6010 -0.6965
 1242TIP3   OH225360   2.755   2.603   1.316 -0.5341 -0.5978  0.1133
 1242TIP3    H125361   2.786   2.555   1.393  1.3289  1.7058  0.9554
 1242TIP3    H225362   2.706   2.677   1.353 -0.3938  0.0383 -0.9409
 1243TIP3   OH225363   4.292   2.604   7.685  0.1686 -0.3457  0.5267
 1243TIP3    H125364   4.222   2.566   7.632  2.0524 -1.3705 -1.3867
 1243TIP3    H225365   4.358   2.631   7.622  2.1404 -0.7314  2.3184
 1244TIP3   OH225366   5.756   4.720   0.515 -0.2909 -0.8817 -0.3489
 1244TIP3    H125367   5.754   4.700   0.608 -1.9361  1.2962  0.1586
 1244TIP3    H225368   5.702   4.652   0.474  0.7021 -2.0369  0.1734
 1245TIP3   OH225369   3.179   1.235   7.199 -0.0639  0.1372  0.4215
 1245TIP3    H125370   3.185   1.278   7.285 -3.2325 -0.9010  1.3006
 1245TIP3    H225371   3.093   1.260   7.166  1.4154  1.2865 -3.0242
 1246TIP3   OH225372   0.146   3.877   7.931  0.1122  0.2771 -0.0509
 1246TIP3    H125373   0.139   3.797   7.982  1.5101  0.6748  0.8079
 1246TIP3    H225374   0.156   3.947   7.995  1.4440  0.8428 -0.8176
 1247TIP3   OH225375   1.732   6.260   1.932  0.4521  0.3450  0.4848
 1247TIP3    H125376   1.710   6.167   1.918  0.5016  0.1365  1.6751
 1247TIP3    H225377   1.826   6.264   1.915  0.2179  0.4779 -0.9266
 1248TIP3   OH225378   1.356   0.868   7.577 -0.5062 -1.0215 -0.1814
 1248TIP3    H125379   1.379   0.921   7.500  0.2463 -0.4097  0.4524
 1248TIP3    H225380   1.433   0.873   7.633 -0.5237 -2.5740  0.0206
 1249TIP3   OH225381   3.879   1.036   6.888 -0.4125 -0.3285  0.3706
 1249TIP3    H125382   3.831   1.117   6.904 -1.6192 -1.0942  0.7963
 1249TIP3    H225383   3.934   1.025   6.966 -1.8678 -1.0033  1.3559
 1250TIP3   OH225384   3.367   3.310   8.119  0.2253  0.5482  0.1580
 1250TIP3    H125385   3.406   3.333   8.035  1.1988  0.1214  0.4841
 1250TIP3    H225386   3.440   3.307   8.181 -0.1306 -1.2815  0.5680
 1251TIP3   OH225387   0.210   5.187   1.205  0.6868  0.3124 -0.0839
 1251TIP3    H125388   0.302   5.164   1.216  1.0409  0.2602 -2.4525
 1251TIP3    H225389   0.163   5.103   1.205  0.5187  0.3775  1.7358
 1252TIP3   OH225390   0.391   1.866   2.467 -0.4451  0.7506  0.4835
 1252TIP3    H125391   0.304   1.887   2.501 -0.2263 -0.9795  2.3441
 1252TIP3    H225392   0.451   1.894   2.536  0.4692  1.5278 -0.5924
 1253TIP3   OH225393   2.320   0.313   7.786 -0.8295  0.5322 -0.0084
 1253TIP3    H125394   2.345   0.336   7.696  2.1260  1.7368  0.9953
 1253TIP3    H225395   2.309   0.397   7.830  0.3196  0.0153  1.3327
 1254TIP3   OH225396   6.327   4.328   1.798 -0.6349 -0.2426  0.2860
 1254TIP3    H125397   6.319   4.395   1.866  1.5387  2.4216 -1.8553
 1254TIP3    H225398   6.395   4.269   1.831  1.6364  1.9620 -0.0740
 1255TIP3   OH225399   0.296   6.052   7.984 -0.7959  0.4990 -0.0982
 1255TIP3    H125400   0.362   6.092   7.927 -0.9429  1.3877  0.3529
 1255TIP3    H225401   0.231   6.016   7.923 -1.3243  2.0703 -0.4991
 1256TIP3   OH225402   4.956   4.417   1.535 -0.3732  0.8377  0.5914
 1256TIP3    H125403   4.981   4.510   1.540  2.3158  0.1884  1.1843
 1256TIP3    H225404   4.991   4.388   1.451 -2.2630  0.5724 -0.1482
 1257TIP3   OH225405   4.299   5.170   1.640 -0.1634  0.5217 -0.7131
 1257TIP3    H125406   4.351   5.122   1.704 -1.2208  1.9864  1.3613
 1257TIP3    H225407   4.239   5.104   1.604 -0.9809  0.0388  1.3933
 1258TIP3   OH225408   3.053   2.000   0.302 -0.2150  0.0724 -0.5247
 1258TIP3    H125409   2.982   1.941   0.276  0.2679 -0.9643  0.4506
 1258TIP3    H225410   3.132   1.946   0.297  0.4953  1.1405 -1.3435
 1259TIP3   OH225411   0.284   3.957   2.649 -0.5689  0.1398 -0.2986
 1259TIP3    H125412   0.365   3.931   2.606  0.3340  1.9881  0.2122
 1259TIP3    H225413   0.248   3.875   2.683 -0.0788 -1.0354 -2.4100
 1260TIP3   OH225414   4.318   2.204   6.825  0.0399 -0.7707  0.1490
 1260TIP3    H125415   4.345   2.244   6.742 -0.0435  0.6334  0.7629
 1260TIP3    H225416   4.230   2.171   6.808 -0.1532 -0.0915 -0.2148
 1261TIP3   OH225417   3.487   4.485   0.188 -0.8310 -0.1607 -0.1321
 1261TIP3    H125418   3.518   4.563   0.142 -0.8531 -0.2260 -0.2602
 1261TIP3    H225419   3.396   4.475   0.159 -0.1408 -1.5747 -1.9674
 1262TIP3   OH225420   4.497   5.008   7.491 -0.2574  0.0804  0.1757
 1262TIP3    H125421   4.544   5.083   7.454  1.1877 -0.4092  0.9505
 1262TIP3    H225422   4.457   4.966   7.415  0.0825  0.8405 -0.4438
 1263TIP3   OH225423   2.233   1.012   7.785 -0.6745 -0.6632 -0.5556
 1263TIP3    H125424   2.266   1.094   7.822  0.0633 -1.6841  1.2278
 1263TIP3    H225425   2.149   0.997   7.829 -0.3537 -1.3081 -0.1371
 1264TIP3   OH225426   1.058   3.064   0.140 -0.1654 -0.2360 -0.1351
 1264TIP3    H125427   0.979   3.067   0.085 -1.9842 -1.9519  2.2214
 1264TIP3    H225428   1.080   2.971   0.145  0.4903 -0.0182  1.2815
 1265TIP3   OH225429   1.852   1.569   8.479  0.3121  0.2803  0.3543
 1265TIP3    H125430   1.934   1.541   8.518  0.2641  0.3097  0.4772
 1265TIP3    H225431   1.821   1.640   8.536  0.8537  1.1608 -0.4309
 1266TIP3   OH225432   6.347   2.459   7.943 -0.3992 -0.2248  0.3043
 1266TIP3    H125433   6.307   2.378   7.912  0.8097 -0.3870 -0.9202
 1266TIP3    H225434   6.438   2.436   7.963 -0.5182  0.4259  1.7641
 1267TIP3   OH225435   1.546   2.438   1.770  0.1527  0.7953 -0.2830
 1267TIP3    H125436   1.595   2.355   1.770  0.3154  0.8560 -1.9572
 1267TIP3    H225437   1.491   2.433   1.849 -1.2220 -1.7647 -1.2651
 1268TIP3   OH225438   1.646   4.991   1.366 -0.8730  0.1148  0.0449
 1268TIP3    H125439   1.732   5.009   1.404 -1.2030  0.4214  0.6600
 1268TIP3    H225440   1.664   4.976   1.274 -0.1918  0.4532  0.1132
 1269TIP3   OH225441   5.743   4.361   0.087 -0.0161  0.2569  0.3504
 1269TIP3    H125442   5.835   4.362   0.063  0.4072 -0.4160  1.7774
 1269TIP3    H225443   5.696   4.384   0.007  1.2684 -1.6781 -1.0403
 1270TIP3   OH225444   2.850   5.935   0.571  0.1811  0.2202 -0.2008
 1270TIP3    H125445   2.835   5.986   0.491  2.1621 -0.5970 -1.1863
 1270TIP3    H225446   2.853   6.000   0.641  3.1551  1.6750 -1.4756
 1271TIP3   OH225447   3.219   0.876   0.136 -0.0434 -0.2127  0.1792
 1271TIP3    H125448   3.177   0.962   0.128 -0.5475 -0.4811 -0.1032
 1271TIP3    H225449   3.292   0.891   0.196  0.4720  0.6319 -0.6226
 1272TIP3   OH225450   3.509   4.285   7.889  0.5372 -0.0973  0.1698
 1272TIP3    H125451   3.580   4.306   7.828 -0.3230  0.4595 -0.6595
 1272TIP3    H225452   3.486   4.194   7.869 -0.6013  0.4671 -1.2645
 1273TIP3   OH225453   5.764   2.464   8.011 -0.0488 -0.5413 -0.0195
 1273TIP3    H125454   5.740   2.530   7.946  0.9514 -1.4335 -1.3350
 1273TIP3    H225455   5.858   2.451   7.998  0.2236 -0.6427  1.7245
 1274TIP3   OH225456   0.478   2.012   7.546 -0.4495 -0.5819  0.3132
 1274TIP3    H125457   0.461   1.918   7.559 -1.9927 -0.2163  1.1794
 1274TIP3    H225458   0.566   2.015   7.509 -1.4308 -2.5669 -2.5516
 1275TIP3   OH225459   6.475   0.646   1.669 -0.7230 -0.5971  0.7787
 1275TIP3    H125460   6.507   0.556   1.668  2.0594  0.2914  1.2434
 1275TIP3    H225461   6.391   0.642   1.623  0.6357 -2.9486 -1.8395
 1276TIP3   OH225462   0.949   5.780   0.146 -0.4273  0.1443 -0.3236
 1276TIP3    H125463   1.014   5.836   0.190 -0.4976  1.5315 -1.8931
 1276TIP3    H225464   0.988   5.692   0.150  1.9608  1.0231 -1.8135
 1277TIP3   OH225465   5.549   5.287   8.539  0.5462 -1.1227  0.1362
 1277TIP3    H125466   5.645   5.292   8.539  0.6100 -1.5312  1.8534
 1277TIP3    H225467   5.521   5.374   8.568  0.2904 -0.4318 -2.0339
 1278TIP3   OH225468   4.631   5.790   0.778  0.0968 -0.3730 -0.0348
 1278TIP3    H125469   4.633   5.762   0.687  0.6739  0.0244 -0.1485
 1278TIP3    H225470   4.606   5.882   0.775  0.2242 -0.3305  0.2032
 1279TIP3   OH225471   2.317   0.407   1.053 -0.0392 -0.1675 -0.6057
 1279TIP3    H125472   2.386   0.354   1.093 -0.0499 -0.5471 -1.0863
 1279TIP3    H225473   2.364   0.478   1.008 -0.0768  0.9560  1.0501
 1280TIP3   OH225474   0.311   4.358   0.491  0.3397  0.0006 -0.1465
 1280TIP3    H125475   0.305   4.429   0.428  2.1870  0.0352 -0.3463
 1280TIP3    H225476   0.329   4.402   0.574  1.7530 -0.1978 -0.3175
 1281TIP3   OH225477   6.158   3.539   8.152 -0.1562  0.1513 -0.5143
 1281TIP3    H125478   6.113   3.513   8.232  0.9402  2.5165  0.9935
 1281TIP3    H225479   6.088   3.560   8.090 -1.0828  1.0174  0.7930
 1282TIP3   OH225480   3.307   4.186   0.482 -0.4613  0.5387  0.0150
 1282TIP3    H125481   3.261   4.247   0.540  0.2762 -1.2228  2.6516
 1282TIP3    H225482   3.398   4.216   0.483  0.2737 -1.4093  2.7479
 1283TIP3   OH225483   5.934   1.983   1.514 -0.4004  0.4446  0.3105
 1283TIP3    H125484   5.857   2.039   1.514 -1.5764 -1.0474  2.1890
 1283TIP3    H225485   5.934   1.942   1.427 -2.3401 -0.3088  0.6300
 1284TIP3   OH225486   2.305   2.772   1.512 -0.1453  0.6671  0.4487
 1284TIP3    H125487   2.238   2.757   1.445 -0.0891  2.0744  0.0530
 1284TIP3    H225488   2.285   2.708   1.580 -0.6065 -0.3481 -0.6009
 1285TIP3   OH225489   4.095   2.551   1.616 -0.5070  0.1820  0.2889
 1285TIP3    H125490   4.123   2.464   1.588  1.2580  1.2300 -1.4388
 1285TIP3    H225491   4.001   2.555   1.596 -0.4670 -1.0932 -0.1647
 1286TIP3   OH225492   1.124   5.425   1.676 -0.0634  0.0000  0.3376
 1286TIP3    H125493   1.197   5.484   1.658  0.1113  0.6362  2.7646
 1286TIP3    H225494   1.079   5.417   1.592  1.3649  1.5653 -0.6558
 1287TIP3   OH225495   6.713   5.161   7.686  0.0477  0.1642  0.6999
 1287TIP3    H125496   6.686   5.107   7.612 -1.4186  1.8558 -0.0619
 1287TIP3    H225497   6.709   5.251   7.654  1.0366  0.8465  2.3524
 1288TIP3   OH225498   5.525   2.612   0.353  0.1921  0.0794 -0.5606
 1288TIP3    H125499   5.508   2.519   0.338 -1.0154  0.3754 -1.1111
 1288TIP3    H225500   5.576   2.640   0.277  0.7761 -0.1827 -0.2698
 1289TIP3   OH225501   2.254   5.832   8.031  0.2774 -0.0346  0.2755
 1289TIP3    H125502   2.336   5.785   8.045 -0.0746 -1.6568 -2.3328
 1289TIP3    H225503   2.196   5.801   8.101  0.8387 -1.6212  0.0795
 1290TIP3   OH225504   5.663   5.383   6.988  0.8420 -0.1326  0.3111
 1290TIP3    H125505   5.568   5.380   7.003  0.5981 -1.6165 -1.1611
 1290TIP3    H225506   5.696   5.445   7.053 -1.1563  0.5740  0.7287
 1291TIP3   OH225507   4.980   0.287   1.516 -0.0960 -0.2735  0.4075
 1291TIP3    H125508   4.897   0.322   1.549 -0.5061  0.2511 -1.0684
 1291TIP3    H225509   4.976   0.302   1.421  1.5314 -0.5782  0.2557
 1292TIP3   OH225510   4.539   6.106   1.392  0.1905 -0.0515 -0.5149
 1292TIP3    H125511   4.464   6.095   1.333  0.4663  0.8140 -1.0542
 1292TIP3    H225512   4.502   6.148   1.470  0.1499  0.6707 -0.9086
 1293TIP3   OH225513   0.582   3.034   7.631  0.2321 -0.3711 -0.1931
 1293TIP3    H125514   0.587   3.019   7.537 -0.8154 -0.3906 -0.2510
 1293TIP3    H225515   0.622   2.956   7.670 -1.7149 -1.6087 -0.5763
 1294TIP3   OH225516   0.016   0.876   8.491  0.0349  0.0457 -1.2494
 1294TIP3    H125517  -0.048   0.926   8.440  0.1954  0.2598 -1.2416
 1294TIP3    H225518   0.041   0.935   8.562  0.2765 -0.0208 -1.2791
 1295TIP3   OH225519   2.224   4.366   7.164 -0.1342 -0.3627  0.6475
 1295TIP3    H125520   2.243   4.455   7.192  0.6860  0.3642 -1.9436
 1295TIP3    H225521   2.306   4.319   7.173  0.1766 -0.0837 -0.5538
 1296TIP3   OH225522   3.487   2.223   1.129  0.4758 -0.2254 -0.4435
 1296TIP3    H125523   3.397   2.252   1.145  0.2020 -0.3101 -1.7596
 1296TIP3    H225524   3.515   2.186   1.213 -0.4982  0.3533  0.1578
 1297TIP3   OH225525   5.630   2.441   6.925 -0.1462 -0.0532 -0.4414
 1297TIP3    H125526   5.650   2.355   6.888 -1.6746 -0.2708 -0.8120
 1297TIP3    H225527   5.712   2.490   6.916 -0.7589  0.5438 -5.8294
 1298TIP3   OH225528   6.310   0.013   6.908  0.2296 -0.4012 -0.2511
 1298TIP3    H125529   6.259   0.067   6.848  1.3419  0.4048 -0.5044
 1298TIP3    H225530   6.376  -0.029   6.852  0.7863 -0.2519  0.2843
 1299TIP3   OH225531   3.046   3.162   1.666 -0.2228  0.0603 -0.7775
 1299TIP3    H125532   3.091   3.238   1.702  1.5447 -1.7897  1.3138
 1299TIP3    H225533   3.115   3.095   1.660 -2.0578 -1.9765 -0.5175
 1300TIP3   OH225534   4.776   2.121   8.583 -0.0083 -0.2036  0.0182
 1300TIP3    H125535   4.803   2.053   8.521  1.8534  1.1285 -0.7129
 1300TIP3    H225536   4.812   2.202   8.547 -1.7147  1.1302  1.1369
 1301TIP3   OH225537   5.986   1.799   0.361 -0.1432 -0.1171  0.1508
 1301TIP3    H125538   5.943   1.741   0.424 -0.2949  0.7981  0.9070
 1301TIP3    H225539   5.976   1.886   0.398 -2.6443  0.8561 -2.4382
 1302TIP3   OH225540   1.272   0.706   8.590 -0.6526  0.3490 -0.1624
 1302TIP3    H125541   1.337   0.751   8.644  0.4487 -2.6386  1.1898
 1302TIP3    H225542   1.283   0.744   8.502  1.8109  1.0393  0.3772
 1303TIP3   OH225543   2.545   2.529   7.044 -0.5744 -0.5263  0.2053
 1303TIP3    H125544   2.551   2.617   7.005  1.1846 -0.3249  0.8294
 1303TIP3    H225545   2.484   2.540   7.117 -0.6054  0.1105  0.0919
 1304TIP3   OH225546   5.938   3.142   1.979  0.3359  0.3356  0.2757
 1304TIP3    H125547   5.990   3.176   1.905 -1.1814  1.7489 -0.2232
 1304TIP3    H225548   5.884   3.073   1.941  1.5400 -0.8578  0.7040
 1305TIP3   OH225549   1.251   3.827   0.858  0.8157  0.3984  0.0644
 1305TIP3    H125550   1.217   3.861   0.941  0.8983  2.2269 -0.6126
 1305TIP3    H225551   1.220   3.736   0.855 -0.7565  0.8518  1.2330
 1306TIP3   OH225552   0.927   0.743   7.862 -0.4740  0.3585  0.2786
 1306TIP3    H125553   0.987   0.780   7.797 -1.1706 -0.9752 -1.2114
 1306TIP3    H225554   0.974   0.667   7.898 -1.6096 -1.4706 -1.8158
 1307TIP3   OH225555   1.289   2.951   1.324  0.1714  0.2012  0.2603
 1307TIP3    H125556   1.287   2.857   1.306 -1.5198  0.2956 -0.2430
 1307TIP3    H225557   1.287   2.958   1.419  1.3691 -0.2626  0.3341
 1308TIP3   OH225558   4.510   1.386   7.156  0.2085 -0.1245 -0.3039
 1308TIP3    H125559   4.498   1.460   7.097  1.3536  0.1134 -0.2773
 1308TIP3    H225560   4.531   1.312   7.098 -0.2728 -0.2698 -0.2922
 1309TIP3   OH225561   6.479   0.335   1.658  0.7973 -0.2633 -0.1661
 1309TIP3    H125562   6.548   0.328   1.724  1.6972 -1.3231 -1.1778
 1309TIP3    H225563   6.507   0.277   1.587 -0.7465 -0.1026 -0.9572
 1310TIP3   OH225564   5.748   4.146   8.410 -0.0509 -0.4469  0.3752
 1310TIP3    H125565   5.751   4.170   8.317 -1.1997  0.1594  0.4749
 1310TIP3    H225566   5.811   4.075   8.418  0.0323 -0.5492 -0.8880
 1311TIP3   OH225567   0.431   3.187   8.210  0.7222 -0.1295 -0.3199
 1311TIP3    H125568   0.457   3.228   8.128 -0.4604  0.7841 -0.2610
 1311TIP3    H225569   0.452   3.252   8.277  0.6209 -0.4066 -0.0156
 1312TIP3   OH225570   6.471   6.165   0.406  0.1592  0.2706  0.0246
 1312TIP3    H125571   6.454   6.214   0.326  0.0119 -0.4343 -0.3839
 1312TIP3    H225572   6.422   6.212   0.474  0.7992  1.2418 -0.1612
 1313TIP3   OH225573   0.907   2.430   2.028 -0.5494 -0.6075 -0.0790
 1313TIP3    H125574   0.961   2.500   2.062  0.8208 -0.5706 -2.1415
 1313TIP3    H225575   0.897   2.450   1.935 -0.0204 -3.1497 -0.7693
 1314TIP3   OH225576   1.324   3.739   2.724  0.0748  0.3623 -0.4749
 1314TIP3    H125577   1.332   3.654   2.767  0.4421  0.0682 -1.1063
 1314TIP3    H225578   1.382   3.733   2.648  1.3561  1.7319  0.3300
 1315TIP3   OH225579   5.685   2.732   1.645 -0.2640 -0.3935 -0.3588
 1315TIP3    H125580   5.755   2.719   1.582  0.2210  2.5428 -0.5950
 1315TIP3    H225581   5.725   2.786   1.714 -0.4279 -4.2743  3.2187
 1316TIP3   OH225582   4.341   6.291   1.580  0.5666  0.1006 -0.5186
 1316TIP3    H125583   4.249   6.301   1.556  0.6144  0.2938 -0.6222
 1316TIP3    H225584   4.364   6.374   1.622  0.7517  0.1333 -0.6833
 1317TIP3   OH225585   1.868   6.675   2.168 -0.1293 -0.4503  0.6285
 1317TIP3    H125586   1.800   6.616   2.200  0.3745 -2.1934 -1.3129
 1317TIP3    H225587   1.935   6.617   2.133  1.3141  1.2729  0.3783
 1318TIP3   OH225588   2.259   4.338   0.926 -0.3098  0.0425  0.1707
 1318TIP3    H125589   2.217   4.397   0.989  0.8581 -0.1497  1.1787
 1318TIP3    H225590   2.271   4.256   0.974 -2.9717 -1.5028 -1.5638
 1319TIP3   OH225591   1.834   1.642   6.796  0.5041 -0.2152 -0.1174
 1319TIP3    H125592   1.751   1.689   6.799  1.0477  0.8923 -1.2671
 1319TIP3    H225593   1.885   1.677   6.870  0.1802 -0.4340  0.2082
 1320TIP3   OH225594   2.976   5.772   1.071  0.3511 -0.0087  0.3924
 1320TIP3    H125595   2.987   5.839   1.139  1.8522  2.3058 -1.9632
 1320TIP3    H225596   2.942   5.820   0.996  0.4850 -2.1368 -1.0931
 1321TIP3   OH225597   5.125   3.888   8.820  0.0708 -0.5782  0.6076
 1321TIP3    H125598   5.043   3.933   8.798  0.7884  0.2383 -0.5420
 1321TIP3    H225599   5.162   3.938   8.892  0.0055 -0.3788  0.5033
 1322TIP3   OH225600   2.712   3.257   8.255  0.4202 -0.2117 -0.0187
 1322TIP3    H125601   2.632   3.273   8.306  0.4440 -1.1409  0.3317
 1322TIP3    H225602   2.741   3.344   8.227 -2.7756  0.0252 -3.3980
 1323TIP3   OH225603   6.050   5.667   2.175 -0.0334 -0.0337  0.1274
 1323TIP3    H125604   6.128   5.613   2.162  0.2305  0.5237 -0.7156
 1323TIP3    H225605   6.082   5.744   2.222  0.1402  0.6454 -1.0466
 1324TIP3   OH225606   3.405   0.957   7.293 -0.3947 -0.3996  0.2993
 1324TIP3    H125607   3.439   1.022   7.355 -0.8651  0.0225  0.1269
 1324TIP3    H225608   3.371   1.010   7.220 -1.6378 -0.7848  0.5804
 1325TIP3   OH225609   3.516   3.780   0.315  0.8888  0.0051 -0.7847
 1325TIP3    H125610   3.535   3.873   0.300  0.5234  0.2047 -0.0640
 1325TIP3    H225611   3.462   3.779   0.394  1.1753 -0.8500 -0.5881
 1326TIP3   OH225612   5.841   3.846   8.291 -0.0321  0.7860 -0.3827
 1326TIP3    H125613   5.932   3.858   8.263  0.2028 -0.1566 -0.0806
 1326TIP3    H225614   5.806   3.781   8.230  0.1378 -0.4208  0.7671
 1327TIP3   OH225615   5.772   6.588   8.591  0.2765  0.3151  0.0453
 1327TIP3    H125616   5.684   6.617   8.616  0.1100  0.1305 -0.3124
 1327TIP3    H225617   5.826   6.606   8.667 -0.2099 -0.1854  0.5138
 1328TIP3   OH225618   1.340   3.415   1.843  0.2261  0.7713 -0.1302
 1328TIP3    H125619   1.426   3.456   1.830  0.3403  0.1254 -1.6369
 1328TIP3    H225620   1.354   3.352   1.913  1.5964 -0.8758 -1.7812
 1329TIP3   OH225621   1.913   2.442   1.305  0.5496  0.1766 -0.2016
 1329TIP3    H125622   1.864   2.368   1.340  2.1623 -2.0334 -2.2601
 1329TIP3    H225623   1.892   2.443   1.211  3.4347 -0.2281 -0.9657
 1330TIP3   OH225624   5.625   5.530   6.763  0.1704  0.2924  0.2698
 1330TIP3    H125625   5.552   5.588   6.783  1.0563  1.1496  1.1852
 1330TIP3    H225626   5.630   5.471   6.838 -1.0383 -1.3673 -0.8824
 1331TIP3   OH225627   1.579   1.055   8.673  0.2518  0.2819  0.0922
 1331TIP3    H125628   1.545   0.971   8.705  3.5381 -0.7487  1.2512
 1331TIP3    H225629   1.597   1.105   8.753 -1.0442  1.9146 -0.5725
 1332TIP3   OH225630   5.825   1.387   8.631  0.5232 -0.0794 -0.6623
 1332TIP3    H125631   5.864   1.387   8.719 -1.0561 -2.2028  0.1088
 1332TIP3    H225632   5.730   1.393   8.647  0.2972  3.7340 -2.4261
 1333TIP3   OH225633   1.264   3.031   1.585 -0.2406 -0.4074  0.1254
 1333TIP3    H125634   1.209   3.101   1.619 -0.8344  0.3475 -2.2022
 1333TIP3    H225635   1.288   2.979   1.662 -1.2281  1.3228  1.6734
 1334TIP3   OH225636   0.481   4.692   1.785  0.8636 -0.4330  0.1749
 1334TIP3    H125637   0.386   4.688   1.784  0.5889  2.9741  0.7592
 1334TIP3    H225638   0.503   4.737   1.866  3.1104 -2.0934  0.6028
 1335TIP3   OH225639   4.072   4.670   8.222  0.0206  0.6580  0.0003
 1335TIP3    H125640   4.037   4.659   8.310 -1.2108 -0.2724 -0.5687
 1335TIP3    H225641   4.154   4.622   8.222  1.2608  2.6039  1.2715
 1336TIP3   OH225642   1.772   5.943   8.383  0.3006  0.2243 -0.3808
 1336TIP3    H125643   1.767   6.032   8.419  2.8011 -0.3025  1.5794
 1336TIP3    H225644   1.857   5.910   8.414  0.6498 -1.9278 -3.2934
 1337TIP3   OH225645   3.351   2.187   7.297  0.3620  0.0108 -0.1414
 1337TIP3    H125646   3.376   2.159   7.384  1.1799 -1.5697 -0.8442
 1337TIP3    H225647   3.433   2.219   7.257 -0.1227  1.3347 -0.1437
 1338TIP3   OH225648   5.607   6.467   7.395 -0.0111  0.3011 -0.9165
 1338TIP3    H125649   5.675   6.535   7.392 -0.2205  0.5119 -0.9062
 1338TIP3    H225650   5.645   6.398   7.450  0.5182  0.0618 -1.5682
 1339TIP3   OH225651   1.301   0.115   1.646 -0.3384 -0.3673  0.1768
 1339TIP3    H125652   1.374   0.105   1.706  0.2592 -1.2699 -0.6723
 1339TIP3    H225653   1.301   0.209   1.625 -0.1254 -0.1638  1.0257
 1340TIP3   OH225654   3.092   2.753   1.584  0.6191 -0.4329 -0.0229
 1340TIP3    H125655   3.069   2.701   1.507  2.1872 -2.0913  0.5438
 1340TIP3    H225656   3.134   2.832   1.549 -0.3472 -0.2866 -0.8853
 1341TIP3   OH225657   2.317   3.046   7.224  0.8808 -0.4671  0.3999
 1341TIP3    H125658   2.280   3.129   7.194  2.0214  0.0287  0.2967
 1341TIP3    H225659   2.242   2.995   7.254 -0.3712 -0.9450 -3.0856
 1342TIP3   OH225660   5.229   6.816   7.588 -0.4421  0.2530 -0.6750
 1342TIP3    H125661   5.313   6.772   7.601 -0.6580 -0.8930 -2.7239
 1342TIP3    H225662   5.237   6.897   7.638  2.0796  0.4110 -1.1550
 1343TIP3   OH225663   3.273   6.483   1.113 -0.0161  0.5177  0.3162
 1343TIP3    H125664   3.369   6.480   1.115 -0.0006 -1.9002 -1.0853
 1343TIP3    H225665   3.253   6.560   1.059  1.0958  1.2431  0.8936
 1344TIP3   OH225666   0.922   2.015   0.501 -0.3487 -0.1336 -0.3913
 1344TIP3    H125667   1.009   2.001   0.537 -0.4152  0.4006 -0.0035
 1344TIP3    H225668   0.938   2.050   0.413 -0.1760 -0.5340 -0.5178
 1345TIP3   OH225669   2.050   6.467   6.377  0.3264  0.1407  0.2922
 1345TIP3    H125670   2.028   6.535   6.441 -0.9351 -1.4035  1.5932
 1345TIP3    H225671   1.992   6.395   6.398  1.4326 -1.2670 -1.2180
 1346TIP3   OH225672   4.060   4.980   8.347  0.4837  0.1675  0.3205
 1346TIP3    H125673   3.972   4.950   8.323 -0.2042  2.2768 -0.0157
 1346TIP3    H225674   4.118   4.934   8.286 -0.7157  1.1953 -1.7033
 1347TIP3   OH225675   5.306   2.476   8.269 -0.0914  0.2134 -0.1510
 1347TIP3    H125676   5.275   2.509   8.185 -1.4895 -0.8168 -0.0780
 1347TIP3    H225677   5.314   2.554   8.324  1.9041  1.0364 -1.5263
 1348TIP3   OH225678   3.811   2.861   7.802 -0.1082  0.0235  0.8326
 1348TIP3    H125679   3.794   2.877   7.709  1.2574  0.6659  0.6660
 1348TIP3    H225680   3.869   2.786   7.803 -0.8942 -0.5948  1.2430
 1349TIP3   OH225681   0.610   4.388   1.745  0.1186 -0.3332  0.7733
 1349TIP3    H125682   0.609   4.483   1.752  0.4257  0.0563 -2.8906
 1349TIP3    H225683   0.524   4.365   1.710 -0.1083 -1.4969  1.9993
 1350TIP3   OH225684   2.845   6.026   8.870 -0.1373 -0.3541  0.0559
 1350TIP3    H125685   2.916   6.036   8.934  1.5556 -0.6827 -1.6825
 1350TIP3    H225686   2.793   5.954   8.904  0.8561 -0.6731  0.9702
 1351TIP3   OH225687   1.501   6.093   8.191  0.1489  0.4152 -0.0803
 1351TIP3    H125688   1.533   6.169   8.239 -0.6742  1.2637 -0.8156
 1351TIP3    H225689   1.479   6.128   8.104 -0.2117 -0.6732 -0.4374
 1352TIP3   OH225690   4.505   3.291   1.294  0.1583  0.1861 -0.6828
 1352TIP3    H125691   4.493   3.204   1.256  0.4893 -0.2846  0.2572
 1352TIP3    H225692   4.533   3.274   1.384 -0.2506  1.2636 -0.3352
 1353TIP3   OH225693   3.175   1.014   1.718  0.5027 -0.3288 -0.7096
 1353TIP3    H125694   3.235   0.959   1.768 -0.0245  0.3763  0.7787
 1353TIP3    H225695   3.088   0.976   1.733  0.2258  0.4430 -0.2918
 1354TIP3   OH225696   5.904   3.203   1.314 -0.3420 -0.1145 -0.7892
 1354TIP3    H125697   5.811   3.217   1.328 -0.2062 -0.3261  0.4245
 1354TIP3    H225698   5.947   3.252   1.384  0.2711 -3.9103  1.8100
 1355TIP3   OH225699   2.138   4.126   8.077 -0.2883 -0.0981 -0.1814
 1355TIP3    H125700   2.186   4.194   8.126  0.3436  1.2662 -2.5411
 1355TIP3    H225701   2.189   4.046   8.092 -0.3315  0.1811  1.6440
 1356TIP3   OH225702   1.258   2.003   0.937  0.6264  0.4975  0.6402
 1356TIP3    H125703   1.293   2.031   1.022  1.5854 -4.4384  2.1865
 1356TIP3    H225704   1.329   1.953   0.897 -1.1645 -0.7602 -1.1571
 1357TIP3   OH225705   5.616   5.422   8.168 -0.4592  0.0120  0.8263
 1357TIP3    H125706   5.687   5.450   8.225 -1.4250 -0.8425  2.5160
 1357TIP3    H225707   5.660   5.396   8.087  0.9878  0.8496  1.3008
 1358TIP3   OH225708   5.913   2.983   0.939  0.1527 -0.0052 -0.0285
 1358TIP3    H125709   5.874   3.018   0.859  0.8504 -2.8697 -1.7917
 1358TIP3    H225710   5.839   2.949   0.989 -0.2559  1.4883  0.4306
 1359TIP3   OH225711   2.069   0.339   1.013 -0.4221 -0.4735  0.7086
 1359TIP3    H125712   2.011   0.413   1.026  0.2812 -0.2719  3.2334
 1359TIP3    H225713   2.156   0.372   1.036 -0.0856 -1.9938  1.8086
 1360TIP3   OH225714   6.439   6.592   7.293 -0.7882 -0.2222  0.2591
 1360TIP3    H125715   6.493   6.629   7.364 -2.2603  1.6089  0.4816
 1360TIP3    H225716   6.362   6.648   7.290  0.6883  2.1326 -5.1519
 1361TIP3   OH225717   1.947   2.081   1.581 -0.3570  0.2514  0.1150
 1361TIP3    H125718   1.978   1.999   1.619  0.0788  0.3097 -0.1057
 1361TIP3    H225719   2.014   2.105   1.517 -1.4937 -0.3102 -1.3552
 1362TIP3   OH225720   6.816   4.990   7.871 -0.2659  0.0358  0.7896
 1362TIP3    H125721   6.852   5.045   7.940  1.1110 -0.6351  0.6562
 1362TIP3    H225722   6.761   5.048   7.819  1.0496  1.2735  0.7320
 1363TIP3   OH225723   2.319   2.816   7.695 -0.5630 -0.4410 -0.1816
 1363TIP3    H125724   2.398   2.866   7.676  0.4592 -2.4697 -1.5712
 1363TIP3    H225725   2.249   2.864   7.650  0.3083  0.0303 -1.0760
 1364TIP3   OH225726   4.359   3.958   0.708  0.2620  0.2167 -0.0687
 1364TIP3    H125727   4.304   3.887   0.741  0.1584 -0.2398 -1.1515
 1364TIP3    H225728   4.411   3.916   0.639  0.0809  1.2298 -0.8384
 1365TIP3   OH225729   5.656   5.106   6.687 -0.1865  0.1422  0.1537
 1365TIP3    H125730   5.674   5.015   6.663  2.6684  1.0016 -1.5405
 1365TIP3    H225731   5.638   5.149   6.603  0.5183  1.4826  0.6531
 1366TIP3   OH225732   1.608   0.947   7.287  0.1826 -0.2689 -0.0415
 1366TIP3    H125733   1.585   1.013   7.352  1.0958 -0.0904  0.1046
 1366TIP3    H225734   1.644   0.996   7.213  0.9136 -0.5931  0.0896
 1367TIP3   OH225735   5.084   2.253   0.843  0.1066  0.1699 -0.0538
 1367TIP3    H125736   5.150   2.308   0.802 -0.4006  0.5639 -0.3479
 1367TIP3    H225737   5.001   2.287   0.811 -0.2484 -0.2196  0.4390
 1368TIP3   OH225738   6.005   0.296   0.279  0.2482 -0.1535 -0.2743
 1368TIP3    H125739   6.003   0.257   0.192  0.4344 -0.2272 -0.2449
 1368TIP3    H225740   5.913   0.301   0.305  0.2826 -2.8815  0.7590
 1369TIP3   OH225741   1.343   4.721   1.015 -0.3064  0.2759 -0.4265
 1369TIP3    H125742   1.418   4.689   1.065 -0.0129  0.1730 -0.9198
 1369TIP3    H225743   1.350   4.676   0.931 -1.6233 -0.6710 -0.0550
 1370TIP3   OH225744   1.048   0.972   1.892  1.1567 -0.6334  0.0968
 1370TIP3    H125745   1.102   0.940   1.820 -0.0432 -0.3145 -0.9938
 1370TIP3    H225746   0.978   0.908   1.900 -0.5514  0.9230 -1.2602
 1371TIP3   OH225747   0.515   0.509   1.853 -0.0439  0.1868  0.2511
 1371TIP3    H125748   0.552   0.533   1.938  0.6832  1.2078 -0.3299
 1371TIP3    H225749   0.505   0.414   1.858 -0.2941  0.2540  1.5780
 1372TIP3   OH225750   3.803   6.661   0.012 -0.6216 -0.1975  0.0328
 1372TIP3    H125751   3.776   6.613  -0.066 -2.9975 -0.2702  0.8079
 1372TIP3    H225752   3.812   6.594   0.080  2.7847 -0.3319 -0.3589
 1373TIP3   OH225753   3.041   4.668   0.272 -0.1654 -0.2127  0.1549
 1373TIP3    H125754   3.090   4.614   0.210 -0.8267 -1.6731  0.8533
 1373TIP3    H225755   3.043   4.756   0.234 -1.1433 -1.1687 -2.3249
 1374TIP3   OH225756   2.003   1.166   1.540 -0.1288  0.0346  0.1957
 1374TIP3    H125757   2.042   1.081   1.520  0.3724  0.4965 -0.8582
 1374TIP3    H225758   1.978   1.202   1.455 -1.7603  0.2875  0.7470
 1375TIP3   OH225759   3.659   3.978   0.553  0.0250 -0.3851 -0.5083
 1375TIP3    H125760   3.629   4.002   0.466  0.6537 -0.8931 -0.8812
 1375TIP3    H225761   3.726   4.044   0.575 -0.7223  0.2332 -0.0487
 1376TIP3   OH225762   6.776   2.425   7.369 -0.2507  0.0969  0.3789
 1376TIP3    H125763   6.796   2.456   7.281  0.9775  2.9805  1.5559
 1376TIP3    H225764   6.853   2.372   7.393 -0.5622 -0.6471 -0.2043
 1377TIP3   OH225765   4.980   6.755   8.202  0.7990  0.7119  0.1133
 1377TIP3    H125766   4.928   6.815   8.149  1.5942 -0.0118 -1.5616
 1377TIP3    H225767   4.916   6.705   8.252 -0.5781 -2.2123 -4.0171
 1378TIP3   OH225768   0.060   4.673   6.884 -0.0345 -0.5535  0.2382
 1378TIP3    H125769   0.151   4.698   6.902 -0.5816  1.0183  1.0046
 1378TIP3    H225770   0.067   4.593   6.831  1.7571 -1.3092  1.5172
 1379TIP3   OH225771   2.093   2.945   1.953  0.2974 -0.2708 -0.2968
 1379TIP3    H125772   2.107   3.032   1.989 -0.9159  0.7151 -2.0424
 1379TIP3    H225773   2.141   2.945   1.870  1.3568 -1.7496  0.2694
 1380TIP3   OH225774   3.445   5.098   1.502  0.3298  0.1361 -0.0460
 1380TIP3    H125775   3.540   5.093   1.503  0.3071 -0.7952 -0.6948
 1380TIP3    H225776   3.416   5.019   1.546 -0.1578  0.6717  0.6219
 1381TIP3   OH225777   3.356   1.848   1.704 -0.4050  0.5276  0.1225
 1381TIP3    H125778   3.451   1.849   1.717 -0.5177  0.3705  1.0013
 1381TIP3    H225779   3.341   1.912   1.634  0.4239 -0.0458 -0.5999
 1382TIP3   OH225780   2.411   5.673   7.506 -0.3792 -0.3606 -0.0068
 1382TIP3    H125781   2.355   5.609   7.462 -0.9647  1.0222 -1.3575
 1382TIP3    H225782   2.360   5.702   7.582 -0.5164 -0.7646  0.0580
 1383TIP3   OH225783   1.652   0.315   1.190 -0.0184 -0.2917 -0.5884
 1383TIP3    H125784   1.662   0.331   1.096  3.2114 -1.9003 -0.6491
 1383TIP3    H225785   1.683   0.395   1.231 -0.2275 -0.0593 -0.8768
 1384TIP3   OH225786   4.094   3.087   0.879 -0.0035  0.3610  0.0336
 1384TIP3    H125787   4.113   3.171   0.919  0.2772  0.4002 -0.1727
 1384TIP3    H225788   4.106   3.102   0.785  0.7203 -0.0692  0.0448
 1385TIP3   OH225789   0.155   3.174   1.208  0.3226 -0.5422  0.4379
 1385TIP3    H125790   0.164   3.166   1.303  1.3188  0.3447  0.4394
 1385TIP3    H225791   0.085   3.238   1.196  0.6714 -0.1204  0.6018
 1386TIP3   OH225792   5.201   4.418   7.828 -0.4435 -0.6722  0.5337
 1386TIP3    H125793   5.241   4.416   7.915  1.1403  2.7469  0.0712
 1386TIP3    H225794   5.111   4.446   7.844 -0.0284  0.4272  1.1175
 1387TIP3   OH225795   2.610   4.175   0.756 -0.2009 -0.1391  0.1735
 1387TIP3    H125796   2.619   4.243   0.823  3.4196  1.6022 -1.7833
 1387TIP3    H225797   2.656   4.099   0.792  1.6559  0.7633 -0.1739
 1388TIP3   OH225798   2.974   5.217   8.870  0.5086  0.0216  0.0164
 1388TIP3    H125799   2.923   5.297   8.882  0.1156 -0.3193  0.6772
 1388TIP3    H225800   2.909   5.147   8.871  0.7832 -0.2714 -1.1466
 1389TIP3   OH225801   6.055   1.172   6.787 -0.5894  0.6519 -0.6607
 1389TIP3    H125802   6.056   1.084   6.824 -1.7500  1.5282  1.7001
 1389TIP3    H225803   6.132   1.215   6.825 -0.9533  1.1262 -0.4459
 1390TIP3   OH225804   0.986   5.431   6.952  0.2066  0.5556 -0.0946
 1390TIP3    H125805   0.997   5.434   7.047 -0.2740 -0.7633  0.0313
 1390TIP3    H225806   0.985   5.522   6.924  0.3820  0.9556  1.1641
 1391TIP3   OH225807   2.396   3.445   0.934 -0.2331 -0.5489  0.9238
 1391TIP3    H125808   2.401   3.424   1.027  1.3297 -2.3711  0.5029
 1391TIP3    H225809   2.344   3.525   0.930  2.5230  1.6383  3.6995
 1392TIP3   OH225810   1.183   5.389   6.331  0.3469 -0.0033 -0.9656
 1392TIP3    H125811   1.273   5.413   6.309  0.2195 -0.5222 -2.1201
 1392TIP3    H225812   1.192   5.307   6.379  0.6059  0.9812  0.7553
 1393TIP3   OH225813   1.120   2.318   7.025  0.2592  0.1945 -0.4068
 1393TIP3    H125814   1.090   2.400   6.986 -0.3569  0.5363  0.7582
 1393TIP3    H225815   1.206   2.338   7.060  0.5496  0.0499 -1.0105
 1394TIP3   OH225816   5.581   6.751   0.127  0.0083 -0.2673  0.0318
 1394TIP3    H125817   5.570   6.698   0.206 -1.8843 -1.6026 -1.0598
 1394TIP3    H225818   5.591   6.840   0.160  0.1765 -0.8890  1.8008
 1395TIP3   OH225819   6.562   5.452   7.319 -0.0756 -0.2022  0.2495
 1395TIP3    H125820   6.546   5.457   7.225 -2.2551  0.1459  0.5857
 1395TIP3    H225821   6.576   5.358   7.335  0.0664 -0.2979 -0.3853
 1396TIP3   OH225822   5.433   3.209   6.755 -0.1804 -0.5352  0.2126
 1396TIP3    H125823   5.430   3.218   6.850  3.1579 -1.4037  0.5412
 1396TIP3    H225824   5.415   3.116   6.740  0.4259 -0.6438  0.1284
 1397TIP3   OH225825   4.041   1.030   0.651 -0.4781 -0.5406  0.0943
 1397TIP3    H125826   3.947   1.049   0.645 -0.8144 -1.2472  2.0664
 1397TIP3    H225827   4.045   0.949   0.701  1.1918 -0.7923 -0.3886
 1398TIP3   OH225828   3.965   5.804   1.278 -0.1319 -0.2721 -0.4146
 1398TIP3    H125829   3.975   5.813   1.183 -2.8247 -0.5830 -0.8115
 1398TIP3    H225830   3.955   5.710   1.293 -0.2679 -0.1838  0.0921
 1399TIP3   OH225831   1.876   3.984   7.868  0.3893 -0.0990  0.3984
 1399TIP3    H125832   1.919   4.048   7.812 -1.1302  0.0519 -0.6410
 1399TIP3    H225833   1.849   4.034   7.945  2.3397 -0.2764  1.2541
 1400TIP3   OH225834   6.286   3.204   0.244 -0.0423  0.1227  0.0515
 1400TIP3    H125835   6.280   3.295   0.213  0.0230 -0.2185 -0.9916
 1400TIP3    H225836   6.380   3.185   0.244 -0.0123  0.2510  0.8729
 1401TIP3   OH225837   1.686   5.565   0.539  0.1545  0.1468  1.1285
 1401TIP3    H125838   1.721   5.561   0.627  1.1978 -1.5049  0.6758
 1401TIP3    H225839   1.672   5.474   0.514  1.2981  0.4789 -0.9396
 1402TIP3   OH225840   5.395   4.804   8.289 -0.1373  0.1946 -0.3341
 1402TIP3    H125841   5.489   4.789   8.293 -0.2534 -1.2195 -1.9552
 1402TIP3    H225842   5.357   4.717   8.277 -1.6733  0.7210  0.3626
 1403TIP3   OH225843   1.918   6.351   8.390 -0.2244 -0.1264  0.6096
 1403TIP3    H125844   1.961   6.269   8.412 -2.0247 -1.1584  0.4625
 1403TIP3    H225845   1.975   6.392   8.326 -0.1997 -2.1836 -0.7583
 1404TIP3   OH225846   5.508   5.932   0.433  0.2458  0.2969  0.7500
 1404TIP3    H125847   5.515   5.921   0.338 -0.1500  1.2136  0.6063
 1404TIP3    H225848   5.598   5.940   0.463  0.3174  1.3411  0.2773
 1405TIP3   OH225849   1.460   6.197   2.440 -0.4834 -0.1107 -0.0537
 1405TIP3    H125850   1.374   6.211   2.479 -0.0098 -0.2357  1.0875
 1405TIP3    H225851   1.448   6.216   2.347 -1.6949  0.0453  0.1183
 1406TIP3   OH225852   4.922   6.731   0.443  0.1739 -0.3469  0.4534
 1406TIP3    H125853   4.846   6.745   0.387 -3.2268 -1.8436  4.1959
 1406TIP3    H225854   4.950   6.642   0.424  0.5005 -0.0912 -0.3228
 1407TIP3   OH225855   5.686   4.774   8.364 -0.3098 -0.0850 -0.0152
 1407TIP3    H125856   5.705   4.680   8.362 -0.2241 -0.0698  0.1030
 1407TIP3    H225857   5.744   4.811   8.297  0.6002  0.0581  0.8377
 1408TIP3   OH225858   2.801   6.213   0.666 -0.3254 -0.3604  0.0912
 1408TIP3    H125859   2.743   6.287   0.651 -1.0422 -0.5446  1.6738
 1408TIP3    H225860   2.887   6.252   0.680 -0.8905  0.3212  1.9744
 1409TIP3   OH225861   3.410   5.739   8.774  0.1624  0.0893 -0.1083
 1409TIP3    H125862   3.445   5.668   8.827  2.3753  0.6682 -0.6963
 1409TIP3    H225863   3.441   5.720   8.685 -1.1937  0.5675 -0.7187
 1410TIP3   OH225864   1.273   4.384   7.464 -0.0545  0.4443 -0.3812
 1410TIP3    H125865   1.179   4.367   7.462 -0.2110  1.2607 -0.3239
 1410TIP3    H225866   1.306   4.330   7.536 -0.4833  0.1845 -0.3772
 1411TIP3   OH225867   5.972   3.499   8.869 -0.4976 -0.3136  0.2875
 1411TIP3    H125868   5.991   3.513   8.962  0.1792  1.9057 -0.1312
 1411TIP3    H225869   5.889   3.544   8.854  0.3641  1.0482 -0.5660
 1412TIP3   OH225870   3.564   1.248   0.871 -0.6177 -0.0505 -0.1837
 1412TIP3    H125871   3.610   1.180   0.822 -1.3776  1.1940 -2.7892
 1412TIP3    H225872   3.474   1.217   0.877 -1.1356  0.9510 -2.0183
 1413TIP3   OH225873   4.498   3.414   0.054 -0.1840 -0.0139 -0.5704
 1413TIP3    H125874   4.571   3.353   0.049 -0.5057 -0.3934 -0.7468
 1413TIP3    H225875   4.485   3.430   0.147  0.9620  1.0890 -0.5808
 1414TIP3   OH225876   5.197   4.371   0.299 -0.7992  0.4350  0.5565
 1414TIP3    H125877   5.269   4.395   0.358  0.3406  1.8749 -1.3108
 1414TIP3    H225878   5.239   4.362   0.213 -2.2416 -2.4782  0.0297
 1415TIP3   OH225879   6.642   5.930   8.374  0.2554  0.3130 -0.0980
 1415TIP3    H125880   6.617   6.020   8.353  0.2821  0.4804  0.5675
 1415TIP3    H225881   6.695   5.902   8.299  0.8871  1.1196  0.0291
 1416TIP3   OH225882   2.581   1.222   6.934  0.0491  0.2588  0.2222
 1416TIP3    H125883   2.625   1.139   6.918 -1.2746 -0.3245 -0.5095
 1416TIP3    H225884   2.492   1.209   6.904 -0.3326  1.7885  0.5757
 1417TIP3   OH225885   3.933   3.351   8.283  0.1392 -0.3168  0.1068
 1417TIP3    H125886   3.885   3.320   8.206  0.0455 -2.7295  1.0422
 1417TIP3    H225887   3.922   3.446   8.281 -0.5937 -0.3714 -2.3494
 1418TIP3   OH225888   2.039   0.945   8.810  0.3519  0.2309 -0.4060
 1418TIP3    H125889   2.127   0.922   8.781 -0.2348 -0.5314 -1.6282
 1418TIP3    H225890   2.025   1.033   8.774  0.8345  0.6200  0.3275
 1419TIP3   OH225891   3.239   6.594   2.119  0.2012 -0.7988  0.1644
 1419TIP3    H125892   3.324   6.590   2.075 -0.3632  1.1599 -1.2229
 1419TIP3    H225893   3.251   6.661   2.187 -0.5005  0.3453 -0.7946
 1420TIP3   OH225894   3.267   4.855   7.314 -0.0114 -0.3982  0.2792
 1420TIP3    H125895   3.179   4.817   7.316 -0.6855  1.1272  1.0593
 1420TIP3    H225896   3.275   4.890   7.225 -0.8084  0.7851  0.6499
 1421TIP3   OH225897   2.661   5.670   1.377 -0.3476  0.2530 -0.0541
 1421TIP3    H125898   2.620   5.689   1.293  0.1589  0.4667 -0.2586
 1421TIP3    H225899   2.591   5.680   1.441 -0.2911  2.1443 -0.2252
 1422TIP3   OH225900   4.636   4.252   7.569  0.3445  0.6730  0.0364
 1422TIP3    H125901   4.635   4.272   7.663  2.7306  0.7342  0.1044
 1422TIP3    H225902   4.701   4.311   7.532  1.0175 -0.8165 -1.2858
 1423TIP3   OH225903   2.718   6.192   7.064  0.5997  0.7420 -0.1093
 1423TIP3    H125904   2.666   6.211   7.142 -0.1534 -1.7176  0.0787
 1423TIP3    H225905   2.653   6.186   6.994  0.9470  0.2670 -0.3935
 1424TIP3   OH225906   5.280   3.991   7.436 -0.2522  0.0115  0.4779
 1424TIP3    H125907   5.363   4.020   7.472 -1.1376  1.7330  1.2153
 1424TIP3    H225908   5.241   3.937   7.505 -0.3746  0.3714  0.6894
 1425TIP3   OH225909   0.971   2.441   8.560  0.0775  0.1313  0.4511
 1425TIP3    H125910   1.052   2.391   8.557 -0.5121 -0.8644  0.6085
 1425TIP3    H225911   0.905   2.382   8.523 -0.0932  1.9312 -2.4086
 1426TIP3   OH225912   0.823   0.585   7.375 -0.7545  0.0683 -0.0650
 1426TIP3    H125913   0.871   0.510   7.410 -0.2315  0.4116 -0.0360
 1426TIP3    H225914   0.854   0.594   7.285 -0.5003  0.4988  0.0580
 1427TIP3   OH225915   1.839   2.748   6.975  0.2290  0.4818  0.1231
 1427TIP3    H125916   1.764   2.768   7.030  0.2341 -0.8452  0.6617
 1427TIP3    H225917   1.901   2.819   6.991 -0.3963  0.9242  0.6351
 1428TIP3   OH225918   3.974   2.845   1.238  0.4583 -0.8982 -0.1393
 1428TIP3    H125919   4.049   2.903   1.246 -0.3004  0.2914 -1.1696
 1428TIP3    H225920   3.942   2.835   1.328 -0.0867  1.2811 -0.0357
 1429TIP3   OH225921   2.517   6.702   0.982 -0.4283  0.5161 -0.5728
 1429TIP3    H125922   2.472   6.705   0.897  0.6483  1.3322 -1.1399
 1429TIP3    H225923   2.551   6.790   0.994  0.7193  0.0170 -0.0163
 1430TIP3   OH225924   2.709   2.329   1.063  0.2326 -0.0136 -0.4868
 1430TIP3    H125925   2.666   2.392   1.007 -1.7329 -1.0772 -0.2752
 1430TIP3    H225926   2.654   2.250   1.058  1.3234 -0.9428  1.0132
 1431TIP3   OH225927   5.982   1.475   8.856  0.2967 -0.2566 -0.4005
 1431TIP3    H125928   5.913   1.424   8.900  0.7464 -0.2666  0.3170
 1431TIP3    H225929   5.979   1.560   8.900  1.7124 -0.7251  0.6797
 1432TIP3   OH225930   0.924   4.308   8.576  0.2499  0.2401  0.0722
 1432TIP3    H125931   0.900   4.219   8.549 -0.2257  0.6626 -0.9336
 1432TIP3    H225932   0.865   4.327   8.649  1.4577 -0.8594  1.4184
 1433TIP3   OH225933   0.755   4.922   8.150  0.7235  0.2526  0.1422
 1433TIP3    H125934   0.843   4.946   8.180  1.2132 -1.4657  0.1827
 1433TIP3    H225935   0.706   4.907   8.231  0.7128  0.1115  0.1087
 1434TIP3   OH225936   3.386   6.059   7.966  0.1093  0.1535  0.2125
 1434TIP3    H125937   3.442   6.093   7.898  0.6030 -2.2001 -0.6618
 1434TIP3    H225938   3.435   6.073   8.047  1.8640 -1.4832 -0.4853
 1435TIP3   OH225939   0.920   0.826   0.246 -0.5733  0.2978 -0.1815
 1435TIP3    H125940   0.978   0.750   0.248 -1.6354 -0.6202 -1.5973
 1435TIP3    H225941   0.832   0.789   0.255 -1.0073  1.5733  1.1220
 1436TIP3   OH225942   5.301   3.059   1.719  0.3737 -0.2785  0.7820
 1436TIP3    H125943   5.369   3.115   1.757  1.2210 -1.3277  0.8391
 1436TIP3    H225944   5.341   2.973   1.714 -0.1595 -0.4583 -1.2699
 1437TIP3   OH225945   0.728   0.530   1.599 -0.4779 -0.2883 -0.0212
 1437TIP3    H125946   0.657   0.552   1.659 -0.3785 -1.1043  0.3977
 1437TIP3    H225947   0.712   0.440   1.573  0.1735 -0.3446 -0.2582
 1438TIP3   OH225948   6.157   1.270   8.882  0.5672 -0.9663 -0.4140
 1438TIP3    H125949   6.157   1.364   8.901 -1.9658 -0.9609 -0.0387
 1438TIP3    H225950   6.089   1.260   8.815  0.2770 -2.6056  0.0896
 1439TIP3   OH225951   2.430   4.740   6.917  0.1091  0.0232  0.0350
 1439TIP3    H125952   2.382   4.800   6.973  1.9915  1.0010  0.6964
 1439TIP3    H225953   2.472   4.679   6.977  0.2099 -0.4124 -0.4676
 1440TIP3   OH225954   0.347   2.645   1.585  0.4624  0.0909  0.4153
 1440TIP3    H125955   0.442   2.639   1.577  0.7415 -1.3913  3.4507
 1440TIP3    H225956   0.315   2.557   1.563  0.1658 -0.3530  2.4198
 1441TIP3   OH225957   5.241   1.433   7.050 -0.0488 -0.0490  0.0266
 1441TIP3    H125958   5.189   1.476   7.117 -0.2449  2.6268 -1.6836
 1441TIP3    H225959   5.246   1.497   6.979  1.7734 -1.9768 -1.7256
 1442TIP3   OH225960   2.626   5.419   1.112  0.1986 -0.8874  0.6600
 1442TIP3    H125961   2.543   5.451   1.147 -0.4351 -1.4521 -0.2727
 1442TIP3    H225962   2.660   5.491   1.060 -0.2517 -1.0415  0.1530
 1443TIP3   OH225963   1.787   5.155   7.934 -0.0295  0.6147  0.3018
 1443TIP3    H125964   1.808   5.246   7.915  1.1910  0.3544  0.3009
 1443TIP3    H225965   1.693   5.148   7.920  0.1296  1.4680 -1.3600
 1444TIP3   OH225966   5.971   4.595   0.144 -0.1811 -0.5304  0.1123
 1444TIP3    H125967   6.010   4.545   0.073 -1.1231  0.1310 -0.8999
 1444TIP3    H225968   5.992   4.545   0.223  3.5006  0.2600 -0.2044
 1445TIP3   OH225969   1.190   3.101   7.680 -0.2276  0.1254  0.1155
 1445TIP3    H125970   1.255   3.131   7.744  0.8710  1.2517 -1.4586
 1445TIP3    H225971   1.155   3.181   7.642 -1.6781 -0.5040  0.0452
 1446TIP3   OH225972   4.574   1.837   8.023 -0.3623  0.5785  0.1602
 1446TIP3    H125973   4.487   1.799   8.009  0.5532 -2.3142  1.3844
 1446TIP3    H225974   4.577   1.856   8.116  0.1635  1.1171  0.0398
 1447TIP3   OH225975   1.516   5.185   0.996  0.0274 -0.4084  0.4465
 1447TIP3    H125976   1.447   5.175   1.062  0.1567 -0.6323  0.5470
 1447TIP3    H225977   1.564   5.263   1.023 -0.3193 -0.1211  0.2555
 1448TIP3   OH225978   1.957   4.926   8.844 -0.1541  0.2921  0.1147
 1448TIP3    H125979   1.910   4.936   8.926  1.3517  0.4261  1.0014
 1448TIP3    H225980   2.024   4.860   8.863 -0.4479 -0.4575 -1.3167
 1449TIP3   OH225981   3.094   3.700   7.995 -0.3375 -0.1318 -0.0366
 1449TIP3    H125982   3.083   3.778   8.051 -0.7030 -0.7758  0.8253
 1449TIP3    H225983   3.074   3.627   8.054 -0.7793 -0.8323 -1.0414
 1450TIP3   OH225984   5.001   2.052   7.448  0.1048 -0.2989 -0.5610
 1450TIP3    H125985   4.985   1.969   7.404  0.1008 -1.2873  1.2362
 1450TIP3    H225986   5.016   2.029   7.539 -0.5807  1.7368  0.1174
 1451TIP3   OH225987   6.637   4.946   7.529  0.1114 -0.0955 -0.3506
 1451TIP3    H125988   6.689   4.884   7.479  0.1704  0.5040 -1.0612
 1451TIP3    H225989   6.550   4.942   7.489 -0.0848 -0.2647  0.0881
 1452TIP3   OH225990   2.990   0.150   1.600  0.3025 -0.1574 -0.8395
 1452TIP3    H125991   2.898   0.124   1.599 -0.1601  1.3577 -0.3439
 1452TIP3    H225992   2.999   0.211   1.527  0.9788 -0.4581 -1.0173
 1453TIP3   OH225993   3.839   5.759   6.816 -0.0433 -0.7484  0.0422
 1453TIP3    H125994   3.879   5.820   6.754  0.7539 -1.5798 -0.2919
 1453TIP3    H225995   3.749   5.750   6.786 -0.3355  0.6945  0.4427
 1454TIP3   OH225996   1.550   3.180   1.566 -0.1560  0.3162  0.7574
 1454TIP3    H125997   1.594   3.128   1.633 -0.5084 -0.0043  0.7429
 1454TIP3    H225998   1.461   3.145   1.562  0.3727 -0.9811 -1.2182
 1455TIP3   OH225999   4.085   2.579   7.302  0.1168 -0.1743 -0.3097
 1455TIP3    H126000   4.150   2.551   7.367 -0.8219 -0.7550  0.4003
 1455TIP3    H226001   4.042   2.498   7.276 -2.0141  0.4382  1.0718
 1456TIP3   OH226002   3.263   6.352   2.270 -0.0537  0.7247 -0.0221
 1456TIP3    H126003   3.212   6.412   2.216  1.0771  0.2724 -1.6632
 1456TIP3    H226004   3.353   6.361   2.237  0.2105 -1.5996 -0.0923
 1457TIP3   OH226005   1.893   0.797   0.852  0.4289 -0.7132 -0.0562
 1457TIP3    H126006   1.848   0.800   0.767 -1.0454 -1.5934  0.6546
 1457TIP3    H226007   1.950   0.874   0.851 -0.3312 -0.1216 -1.4389
 1458TIP3   OH226008   0.972   3.429   0.854  0.0969 -0.2642 -0.4298
 1458TIP3    H126009   0.960   3.334   0.856 -0.7773 -0.1643 -0.5990
 1458TIP3    H226010   0.944   3.459   0.941  1.3766 -0.2646 -0.0025
 1459TIP3   OH226011   0.285   0.059   7.143  0.1501 -0.1847  0.0781
 1459TIP3    H126012   0.343   0.134   7.128  0.7661 -0.4776  0.9271
 1459TIP3    H226013   0.334  -0.016   7.109  1.1482 -0.7178  2.4378
 1460TIP3   OH226014   1.377   2.282   0.778  0.3413  0.0639 -0.1157
 1460TIP3    H126015   1.344   2.302   0.866 -1.6733  1.5459 -1.1218
 1460TIP3    H226016   1.393   2.367   0.738 -2.5768 -0.3318 -2.4695
 1461TIP3   OH226017   1.082   1.564   8.602 -0.0587 -0.3389 -0.1703
 1461TIP3    H126018   1.160   1.575   8.547 -0.2133 -1.7121 -0.7142
 1461TIP3    H226019   1.074   1.469   8.612 -0.6566 -0.1537  1.3455
 1462TIP3   OH226020   6.428   3.267   1.578 -0.1226  0.1423  0.4169
 1462TIP3    H126021   6.491   3.214   1.530  1.3020  2.6448 -0.6653
 1462TIP3    H226022   6.453   3.257   1.670  0.6439 -0.3640  0.1586
 1463TIP3   OH226023   6.115   4.243   0.388 -0.3203  0.2618 -0.1640
 1463TIP3    H126024   6.185   4.308   0.379 -0.5935  1.3221  3.7665
 1463TIP3    H226025   6.036   4.294   0.404 -1.0646 -1.0099  0.4031
 1464TIP3   OH226026   2.574   6.128   7.771 -0.8526  0.0781 -0.1020
 1464TIP3    H126027   2.584   6.219   7.800 -0.4292 -0.1741  0.5442
 1464TIP3    H226028   2.511   6.134   7.698 -1.0535  0.8496  0.1196
 1465TIP3   OH226029   6.453   1.574   8.391  0.3675  0.0166  0.1863
 1465TIP3    H126030   6.459   1.515   8.466  1.2427  2.2146  1.9552
 1465TIP3    H226031   6.366   1.614   8.399  0.4688  0.2689  0.0570
 1466TIP3   OH226032   0.688   4.670   0.521 -0.1002 -0.0955  0.3157
 1466TIP3    H126033   0.717   4.579   0.524  0.9823  0.2503  1.8530
 1466TIP3    H226034   0.593   4.665   0.530 -0.3440 -1.1528 -2.1840
 1467TIP3   OH226035   2.826   3.491   8.108  0.4464  0.1866  0.1080
 1467TIP3    H126036   2.851   3.572   8.153  1.1989  0.0387 -0.0188
 1467TIP3    H226037   2.910   3.449   8.086  0.1974  0.9927 -2.8154
 1468TIP3   OH226038   2.145   3.689   0.117 -0.3735 -0.0939  0.5570
 1468TIP3    H126039   2.061   3.692   0.070 -1.1861 -0.3902  1.9402
 1468TIP3    H226040   2.185   3.774   0.100 -1.5232  0.5345  0.8587
 1469TIP3   OH226041   1.669   4.175   7.316 -0.0596  0.0288  0.2177
 1469TIP3    H126042   1.621   4.243   7.362  0.1854  0.2167  0.1936
 1469TIP3    H226043   1.722   4.222   7.251 -0.0268 -0.1960  0.0799
 1470TIP3   OH226044   2.366   6.310   6.638  0.6052  0.7717 -0.0368
 1470TIP3    H126045   2.446   6.364   6.642  0.8694  0.3855 -0.0811
 1470TIP3    H226046   2.324   6.337   6.556  0.9449  0.6197 -0.2632
 1471TIP3   OH226047   0.878   0.865   7.040  0.0144  0.4622 -0.5959
 1471TIP3    H126048   0.875   0.778   7.081  0.0461  0.6133 -0.2697
 1471TIP3    H226049   0.963   0.868   6.997 -0.5219 -0.1795 -1.7527
 1472TIP3   OH226050   1.879   0.384   7.049 -0.4038  0.2417  0.5861
 1472TIP3    H126051   1.853   0.297   7.079 -1.4752  1.0467  2.1503
 1472TIP3    H226052   1.859   0.385   6.956  0.7177 -1.5512  0.2831
 1473TIP3   OH226053   1.222   0.366   8.089 -0.6845  0.2113  0.4295
 1473TIP3    H126054   1.308   0.338   8.119 -0.8558  0.4708  1.1842
 1473TIP3    H226055   1.232   0.460   8.072 -0.7304  0.1740  0.1978
 1474TIP3   OH226056   4.026   4.916   7.561  0.4992  0.3064  0.4872
 1474TIP3    H126057   3.931   4.916   7.574  0.3061  1.4621 -0.7134
 1474TIP3    H226058   4.051   4.824   7.563 -0.6121  0.0023  1.0175
 1475TIP3   OH226059   0.871   6.643   1.172 -0.2023 -0.3963 -0.1418
 1475TIP3    H126060   0.961   6.627   1.142 -0.0815  1.2337 -0.7528
 1475TIP3    H226061   0.877   6.722   1.226 -1.1268 -0.8532  0.6727
 1476TIP3   OH226062   5.095   1.972   7.703 -0.8878  0.3975 -0.2435
 1476TIP3    H126063   5.066   1.893   7.747 -1.2861  0.2973 -0.6765
 1476TIP3    H226064   5.160   2.010   7.762 -0.6153 -0.3049 -0.0789
 1477TIP3   OH226065   2.075   0.467   0.539  0.3624 -0.1768  0.7348
 1477TIP3    H126066   2.069   0.379   0.574 -0.3894 -0.4887 -0.1150
 1477TIP3    H226067   1.984   0.500   0.540 -0.2344 -1.1394 -3.0875
 1478TIP3   OH226068   4.524   3.388   0.376 -0.7278 -0.0859  0.0327
 1478TIP3    H126069   4.488   3.312   0.423 -0.3829 -0.5611 -0.4591
 1478TIP3    H226070   4.616   3.390   0.400 -1.0785  1.2655  1.4656
 1479TIP3   OH226071   3.343   6.348   8.079  0.2013 -0.2068  0.0276
 1479TIP3    H126072   3.354   6.443   8.074 -0.5521 -0.1452 -0.6378
 1479TIP3    H226073   3.428   6.313   8.055 -0.2371  0.2848 -2.5654
 1480TIP3   OH226074   5.758   6.705   7.353  0.0963 -0.3054  0.5819
 1480TIP3    H126075   5.833   6.680   7.299 -0.3091 -0.8165  0.2472
 1480TIP3    H226076   5.797   6.752   7.427  0.5986  1.0418 -0.5026
 1481TIP3   OH226077   0.498   3.343   1.604  0.1895 -0.3078 -0.1649
 1481TIP3    H126078   0.418   3.297   1.630 -0.1849  1.7065  2.6596
 1481TIP3    H226079   0.569   3.286   1.634 -0.2591  0.3134  2.2730
 1482TIP3   OH226080   2.533   0.816   1.994 -1.0596 -0.1583  0.0955
 1482TIP3    H126081   2.619   0.792   1.958 -1.6573 -1.8772 -0.2922
 1482TIP3    H226082   2.530   0.911   1.986  0.6758 -0.0797 -0.1706
 1483TIP3   OH226083   6.047   0.474   1.490 -0.2888  0.0769 -0.1923
 1483TIP3    H126084   6.079   0.390   1.524  0.2303  0.5630  0.5572
 1483TIP3    H226085   6.092   0.485   1.407  1.3720  0.6424  0.7416
 1484TIP3   OH226086   6.818   6.248   8.319 -0.7682 -0.0478  0.2021
 1484TIP3    H126087   6.887   6.182   8.331 -1.7853 -0.8379  2.1645
 1484TIP3    H226088   6.851   6.326   8.364 -0.5612  0.0540 -0.1186
 1485TIP3   OH226089   3.156   0.416   1.746  0.4277  0.4271  0.4746
 1485TIP3    H126090   3.186   0.507   1.743 -1.9949  1.2899 -1.0254
 1485TIP3    H226091   3.089   0.415   1.814 -0.7686  0.2562 -0.6503
 1486TIP3   OH226092   4.471   3.755   7.603  0.0797  0.1675  0.5100
 1486TIP3    H126093   4.424   3.697   7.543 -0.0650  0.3568  0.4400
 1486TIP3    H226094   4.524   3.696   7.657 -0.0477 -0.0286  0.4212
 1487TIP3   OH226095   2.392   0.612   6.165 -0.4989  0.1454  0.3697
 1487TIP3    H126096   2.479   0.573   6.169  1.2428  3.5545 -1.1085
 1487TIP3    H226097   2.383   0.659   6.248  0.7248  2.7534 -0.8639
 1488TIP3   OH226098   2.452   2.264   7.744 -0.1372 -0.5194  0.0168
 1488TIP3    H126099   2.368   2.221   7.733  0.3662 -1.5157 -0.0259
 1488TIP3    H226100   2.469   2.306   7.660 -0.9126  0.2952  0.2521
 1489TIP3   OH226101   4.074   1.537   0.061 -0.1037 -0.0008 -0.2454
 1489TIP3    H126102   4.005   1.543   0.126 -0.4400  2.5528 -0.7385
 1489TIP3    H226103   4.027   1.533  -0.023  0.3478 -0.3457 -0.4875
 1490TIP3   OH226104   3.403   3.866   7.832 -0.3201  0.0811 -0.0534
 1490TIP3    H126105   3.458   3.912   7.769 -0.3205 -1.4169 -1.1988
 1490TIP3    H226106   3.404   3.922   7.910  1.3426  0.9759 -0.6633
 1491TIP3   OH226107   0.507   4.861   8.310  0.2207 -0.8781  0.2114
 1491TIP3    H126108   0.486   4.931   8.372 -0.6998 -0.1791 -0.8349
 1491TIP3    H226109   0.530   4.786   8.364  1.4419  0.2728  1.3784
 1492TIP3   OH226110   1.181   1.946   1.381 -0.0268 -0.7538 -0.3339
 1492TIP3    H126111   1.240   1.901   1.441  1.0639 -0.8763 -1.4615
 1492TIP3    H226112   1.119   1.878   1.353  0.4711 -1.1037 -0.6027
 1493TIP3   OH226113   6.464   6.571   1.020  0.4728  0.3059 -0.0473
 1493TIP3    H126114   6.370   6.583   1.036  0.8139  0.7466  1.9143
 1493TIP3    H226115   6.481   6.480   1.043  0.3220 -0.1789 -1.7212
 1494TIP3   OH226116   3.957   5.757   2.101  0.5880 -0.4465  0.4740
 1494TIP3    H126117   4.044   5.720   2.085  0.5021 -0.4303 -0.0414
 1494TIP3    H226118   3.897   5.686   2.081  0.5109 -0.7653  1.7638
 1495TIP3   OH226119   2.798   3.139   8.556  0.0273 -0.0780  0.3657
 1495TIP3    H126120   2.716   3.178   8.525  1.3720  1.9816 -0.8399
 1495TIP3    H226121   2.866   3.200   8.529  2.0581 -1.9625  0.8715
 1496TIP3   OH226122   1.451   4.536   7.218 -0.2288  0.2620 -0.3327
 1496TIP3    H126123   1.502   4.485   7.280  1.0576  0.4561 -1.1959
 1496TIP3    H226124   1.371   4.558   7.265  0.7042  0.4003  1.2452
 1497TIP3   OH226125   3.680   1.354   1.475 -0.5093 -0.4215 -0.7181
 1497TIP3    H126126   3.757   1.388   1.521  0.8475 -0.2267 -2.9972
 1497TIP3    H226127   3.606   1.378   1.531  1.1119 -1.6473  2.1821
 1498TIP3   OH226128   5.828   4.341   0.561 -0.1744  0.1817  0.2943
 1498TIP3    H126129   5.777   4.351   0.481  1.2367 -0.3250 -0.7049
 1498TIP3    H226130   5.775   4.282   0.616 -2.0255  1.9552  0.5678
 1499TIP3   OH226131   6.579   2.417   7.649  0.2559 -0.1153 -0.3327
 1499TIP3    H126132   6.589   2.512   7.643  0.2765 -0.0536  0.6381
 1499TIP3    H226133   6.649   2.389   7.708  1.5942 -1.0001 -2.2135
 1500TIP3   OH226134   4.666   4.821   8.639  0.0585 -0.6693 -0.4698
 1500TIP3    H126135   4.589   4.879   8.641  0.7337  0.4859 -3.1825
 1500TIP3    H226136   4.650   4.764   8.564  0.9248 -1.8661  0.2291
 1501TIP3   OH226137   4.436   5.872   2.297  0.3032 -0.5335  0.4623
 1501TIP3    H126138   4.366   5.808   2.290 -0.4276  0.3781 -0.9442
 1501TIP3    H226139   4.473   5.878   2.209 -0.5019  1.8880  0.2113
 1502TIP3   OH226140   2.892   4.332   2.404  0.6835  0.1223  0.0217
 1502TIP3    H126141   2.843   4.349   2.484  0.0966  0.5324 -0.4152
 1502TIP3    H226142   2.947   4.410   2.393  1.1905 -0.1899  0.3333
 1503TIP3   OH226143   5.871   0.106   8.683 -0.3762  0.1207 -0.3044
 1503TIP3    H126144   5.945   0.084   8.626 -0.7042  2.3770 -1.7333
 1503TIP3    H226145   5.798   0.119   8.623 -1.3628  0.1914  0.8808
 1504TIP3   OH226146   1.335   5.350   0.847 -0.4599  0.7219  0.0890
 1504TIP3    H126147   1.412   5.309   0.807  1.0714  2.7155  0.8610
 1504TIP3    H226148   1.320   5.299   0.927 -1.0109 -0.6854 -0.8556
 1505TIP3   OH226149   4.084   5.701   0.209 -0.2483 -0.7423  0.5813
 1505TIP3    H126150   4.173   5.729   0.233  0.1570 -0.9676 -0.5493
 1505TIP3    H226151   4.098   5.631   0.145 -1.2289 -0.1822 -0.2831
 1506TIP3   OH226152   1.358   6.482   1.239 -1.0649 -0.8437 -0.4309
 1506TIP3    H126153   1.399   6.413   1.186 -0.2304 -0.5054 -0.2237
 1506TIP3    H226154   1.409   6.561   1.221 -0.6572 -0.7553  1.0063
 1507TIP3   OH226155   5.668   2.406   0.201 -0.2773  0.0068  0.2905
 1507TIP3    H126156   5.730   2.337   0.178  1.0702  0.6765  1.7493
 1507TIP3    H226157   5.624   2.372   0.279 -1.8107 -0.4549 -0.7133
 1508TIP3   OH226158   3.886   1.114   8.520 -0.5720  0.1740  0.9518
 1508TIP3    H126159   3.981   1.105   8.510 -0.7056 -1.4329  0.8690
 1508TIP3    H226160   3.849   1.057   8.452 -1.5549 -1.1583  2.5093
 1509TIP3   OH226161   4.520   5.239   0.477  0.4969  0.6726 -0.0191
 1509TIP3    H126162   4.458   5.167   0.463  0.4909  0.3041  1.7556
 1509TIP3    H226163   4.472   5.302   0.530  0.6919  1.7744 -1.0999
 1510TIP3   OH226164   1.158   2.978   2.007 -0.1639 -0.2031 -0.1877
 1510TIP3    H126165   1.125   2.890   2.025 -1.2809  0.0937 -0.6544
 1510TIP3    H226166   1.251   2.967   1.990  0.0441 -1.0664  1.3562
 1511TIP3   OH226167   5.239   4.204   8.404  0.0323 -0.2657  0.1993
 1511TIP3    H126168   5.298   4.278   8.392 -1.2976  0.5573 -2.2020
 1511TIP3    H226169   5.290   4.127   8.378  0.0929  0.4491 -1.9976
 1512TIP3   OH226170   1.574   0.133   0.220 -0.3021  0.2822  0.0533
 1512TIP3    H126171   1.617   0.218   0.235 -0.8633  0.8947 -1.6135
 1512TIP3    H226172   1.632   0.070   0.263  0.6771  1.4006  0.4441
 1513TIP3   OH226173   1.720   0.001   0.616 -0.1452  0.0065 -0.0885
 1513TIP3    H126174   1.757  -0.020   0.702 -0.6911 -0.2640  0.0876
 1513TIP3    H226175   1.748   0.091   0.599  0.2478 -0.0544  0.2195
 1514TIP3   OH226176   1.009   1.592   1.505 -0.4188 -0.2879  0.0936
 1514TIP3    H126177   0.942   1.656   1.530  0.0117 -0.4129  1.7260
 1514TIP3    H226178   0.967   1.536   1.440 -2.1066 -0.6783  1.4470
 1515TIP3   OH226179   3.671   1.541   1.283  0.0103 -0.3315 -0.0727
 1515TIP3    H126180   3.639   1.526   1.194 -2.0062  1.0902  0.3437
 1515TIP3    H226181   3.661   1.456   1.327 -0.6433 -0.6098 -0.7343
 1516TIP3   OH226182   2.688   1.221   0.040  0.4161  0.1405  0.5736
 1516TIP3    H126183   2.618   1.245   0.101 -0.2701 -1.7482  0.6119
 1516TIP3    H226184   2.751   1.292   0.047 -0.5507  0.9175  2.0559
 1517TIP3   OH226185   3.556   5.591   2.324  0.1063  0.7417 -0.0273
 1517TIP3    H126186   3.624   5.544   2.373 -1.2235 -2.3651 -0.8888
 1517TIP3    H226187   3.476   5.578   2.376 -0.3829  1.7794 -0.5011
 1518TIP3   OH226188   0.037   4.224   6.551 -0.5264  0.4444 -0.0063
 1518TIP3    H126189   0.085   4.141   6.559 -0.6266  0.5028  1.8179
 1518TIP3    H226190   0.065   4.261   6.468 -0.0904 -1.1829 -0.6156
 1519TIP3   OH226191   4.688   1.953   7.781 -0.0476  0.6942  0.4680
 1519TIP3    H126192   4.646   1.919   7.861  0.6475  3.4075  2.1456
 1519TIP3    H226193   4.781   1.956   7.803  0.4252 -0.2725 -1.2311
 1520TIP3   OH226194   6.665   5.540   2.190 -0.8409 -0.6421 -0.0897
 1520TIP3    H126195   6.594   5.552   2.126 -1.0216  0.0333  0.2275
 1520TIP3    H226196   6.668   5.445   2.205 -1.6218 -0.6895 -0.1758
 1521TIP3   OH226197   5.966   3.258   7.695  0.0762  0.1629  0.4338
 1521TIP3    H126198   6.018   3.270   7.774  1.3013  2.7776 -0.6490
 1521TIP3    H226199   6.031   3.254   7.624 -1.0356 -0.8964 -0.5708
 1522TIP3   OH226200   3.144   1.470   7.358  0.2717  0.5069  0.8756
 1522TIP3    H126201   3.063   1.480   7.408  0.8501  4.9660  1.3558
 1522TIP3    H226202   3.212   1.506   7.415  1.5315  2.5278 -1.6935
 1523TIP3   OH226203   2.288   0.692   8.351  0.1813  0.1320  0.7326
 1523TIP3    H126204   2.201   0.730   8.343  0.3659  0.3575 -0.3970
 1523TIP3    H226205   2.275   0.599   8.332  0.3034  0.3112 -0.2740
 1524TIP3   OH226206   4.637   3.661   2.189 -0.0396 -0.3553 -0.0197
 1524TIP3    H126207   4.714   3.611   2.215  0.1295 -1.1282 -1.8137
 1524TIP3    H226208   4.609   3.619   2.108 -1.2637  1.0625 -0.3595
 1525TIP3   OH226209   2.798   4.391   0.192 -0.4578  0.0118  0.4758
 1525TIP3    H126210   2.813   4.472   0.144  1.4092 -0.9562 -0.6996
 1525TIP3    H226211   2.865   4.390   0.260  0.1331 -0.9214 -0.0885
 1526TIP3   OH226212   3.343   1.568   0.604  0.4630 -0.2857 -0.1025
 1526TIP3    H126213   3.404   1.495   0.592 -0.8333 -1.9036  2.4037
 1526TIP3    H226214   3.302   1.579   0.518  1.6622 -1.6158 -0.8806
 1527TIP3   OH226215   5.935   6.156   0.380  0.9874 -0.3299 -0.2088
 1527TIP3    H126216   5.945   6.183   0.471  0.7478 -0.3238 -0.1824
 1527TIP3    H226217   5.923   6.238   0.332 -1.5648 -0.4401  0.1073
 1528TIP3   OH226218   6.646   6.163   6.981  0.2992 -0.0687 -0.8832
 1528TIP3    H126219   6.731   6.173   6.939  1.1614 -0.0236  0.7559
 1528TIP3    H226220   6.635   6.244   7.031  0.1269 -0.7870  0.2865
 1529TIP3   OH226221   1.842   3.309   0.816 -0.4089  0.3666 -0.5992
 1529TIP3    H126222   1.815   3.290   0.906 -0.4921  0.2406 -0.6497
 1529TIP3    H226223   1.766   3.285   0.763 -0.2846  0.2437 -0.7214
 1530TIP3   OH226224   6.724   6.414   8.769 -0.5889 -0.5138 -0.0462
 1530TIP3    H126225   6.669   6.351   8.722 -0.6575  0.3495 -1.1824
 1530TIP3    H226226   6.692   6.412   8.859 -1.3016 -1.3055 -0.3067
 1531TIP3   OH226227   5.458   1.844   7.491  0.3960  0.0847  0.1739
 1531TIP3    H126228   5.363   1.843   7.497  0.4013 -0.7337  0.2318
 1531TIP3    H226229   5.480   1.763   7.444  1.1450 -0.5607  1.5742
 1532TIP3   OH226230   2.116   1.427   7.572 -0.0707  0.2667 -0.8101
 1532TIP3    H126231   2.175   1.494   7.539 -0.9645  0.7654 -1.4441
 1532TIP3    H226232   2.038   1.475   7.600 -0.7721 -0.4923 -1.3870
 1533TIP3   OH226233   5.114   6.182   0.854 -0.6484 -0.2964 -0.4076
 1533TIP3    H126234   5.120   6.221   0.941 -0.5628  0.2649 -0.6546
 1533TIP3    H226235   5.160   6.099   0.861 -0.1038  0.0218 -0.0691
 1534TIP3   OH226236   3.223   4.713   8.112 -0.1775  0.0738  0.5084
 1534TIP3    H126237   3.205   4.635   8.058  2.0076 -0.0139 -0.1903
 1534TIP3    H226238   3.306   4.693   8.155 -0.6827  1.1588  2.0626
 1535TIP3   OH226239   6.637   3.041   8.138  0.1902  0.8834 -0.5342
 1535TIP3    H126240   6.729   3.030   8.162  0.1140  1.3802  0.0156
 1535TIP3    H226241   6.620   2.972   8.074  1.1452  1.2419 -1.1966
 1536TIP3   OH226242   1.097   4.965   2.107  0.5464 -0.3922  0.0508
 1536TIP3    H126243   1.042   4.887   2.103  0.0299 -0.0247 -0.1909
 1536TIP3    H226244   1.171   4.940   2.162 -0.9103 -0.2598  2.1784
 1537TIP3   OH226245   4.741   0.274   6.568 -0.7240  0.1652  0.1211
 1537TIP3    H126246   4.741   0.178   6.566 -0.6698  0.1542  0.6431
 1537TIP3    H226247   4.688   0.299   6.492  0.4633 -0.2582 -0.8800
 1538TIP3   OH226248   1.926   3.126   1.173 -0.3983 -0.4612  0.0752
 1538TIP3    H126249   2.015   3.135   1.207 -0.7625 -1.2184  1.2720
 1538TIP3    H226250   1.929   3.046   1.120 -0.2598 -0.2236 -0.2827
 1539TIP3   OH226251   2.079   3.900   7.608  0.0649  0.4307  0.5457
 1539TIP3    H126252   2.052   3.821   7.654  1.2635 -0.6683 -0.5549
 1539TIP3    H226253   2.138   3.944   7.669 -0.2190  0.2165  0.9776
 1540TIP3   OH226254   0.597   6.191   7.491  0.3096 -0.3217 -0.6113
 1540TIP3    H126255   0.514   6.235   7.476  0.6869  0.3639 -0.7013
 1540TIP3    H226256   0.573   6.110   7.537 -0.1610  1.4641  2.6001
 1541TIP3   OH226257   5.779   0.776   8.245 -0.0774 -0.1188  0.1711
 1541TIP3    H126258   5.707   0.813   8.194  0.3179  1.3826  0.6653
 1541TIP3    H226259   5.805   0.698   8.196  0.4901  1.4229 -2.1078
 1542TIP3   OH226260   1.689   2.890   7.658  0.6454 -0.5504 -0.0285
 1542TIP3    H126261   1.622   2.874   7.724  0.0245  0.2994 -0.4323
 1542TIP3    H226262   1.647   2.868   7.575  1.3843 -1.5086 -0.1654
 1543TIP3   OH226263   4.125   5.709   6.088  0.2430 -0.6377  0.3768
 1543TIP3    H126264   4.041   5.673   6.058 -0.0306 -0.7824  1.2822
 1543TIP3    H226265   4.140   5.667   6.173  0.7836  0.0774  0.6444
 1544TIP3   OH226266   0.232   4.346   2.471  0.0006  0.1088 -0.0215
 1544TIP3    H126267   0.139   4.360   2.453 -0.1689 -0.2689  0.5309
 1544TIP3    H226268   0.277   4.382   2.395 -0.5798  0.6320 -0.1220
 1545TIP3   OH226269   0.816   0.225   0.748 -0.3820  0.3737 -0.0749
 1545TIP3    H126270   0.782   0.311   0.773  1.6397  0.9007  1.0484
 1545TIP3    H226271   0.806   0.172   0.827  2.0969  0.8072  0.6129
 1546TIP3   OH226272   2.042   2.003   8.662  0.8368  0.0463 -0.1717
 1546TIP3    H126273   2.095   2.060   8.607  0.3016  0.4943 -0.2376
 1546TIP3    H226274   1.954   2.042   8.659  1.0318  0.7680  1.9163
 1547TIP3   OH226275   3.200   0.969   1.047 -0.3118  0.3639  0.5412
 1547TIP3    H126276   3.225   1.015   0.967  0.5050 -1.1570 -0.1081
 1547TIP3    H226277   3.278   0.974   1.103 -0.3320  0.0559  0.5983
 1548TIP3   OH226278   4.398   4.281   7.386 -0.4966  0.0114  0.6194
 1548TIP3    H126279   4.447   4.344   7.334 -1.1313 -0.1196 -0.1628
 1548TIP3    H226280   4.463   4.243   7.445  0.6636 -1.0676 -1.2267
 1549TIP3   OH226281   4.040   6.234   1.551  0.1303  0.1070 -0.3125
 1549TIP3    H126282   4.050   6.246   1.645  0.1568  0.3867 -0.3497
 1549TIP3    H226283   3.990   6.153   1.542 -0.3690  0.3838 -0.0428
 1550TIP3   OH226284   1.918   1.137   0.138  0.5606 -0.2581  0.1648
 1550TIP3    H126285   1.846   1.075   0.130  0.7082 -0.3822 -0.2419
 1550TIP3    H226286   1.906   1.197   0.065  0.5455  0.0634  0.4288
 1551TIP3   OH226287   4.758   1.814   1.619  0.1487  0.3226  0.0273
 1551TIP3    H126288   4.846   1.822   1.582  0.0088 -3.1119 -1.4625
 1551TIP3    H226289   4.772   1.783   1.708  0.4670  0.2574 -0.0433
 1552TIP3   OH226290   1.765   1.899   0.761 -0.1547  0.1226 -0.3591
 1552TIP3    H126291   1.697   1.854   0.710  2.4985 -0.7961 -3.3719
 1552TIP3    H226292   1.753   1.992   0.740 -1.0230  0.0692 -0.1304
 1553TIP3   OH226293   2.465   4.472   1.968 -0.0390 -0.3608  0.6316
 1553TIP3    H126294   2.531   4.446   2.032 -0.7045  0.0026  1.4783
 1553TIP3    H226295   2.382   4.454   2.010 -0.4970 -0.5065 -0.3023
 1554TIP3   OH226296   5.778   2.431   7.678 -0.1356  0.6574 -1.0758
 1554TIP3    H126297   5.852   2.396   7.727 -0.1680  1.0964 -0.7074
 1554TIP3    H226298   5.813   2.451   7.591  0.3971  1.6995 -0.6295
 1555TIP3   OH226299   6.009   2.388   1.311 -0.7030 -0.4700 -0.3125
 1555TIP3    H126300   6.059   2.428   1.382  0.3018 -0.1445 -1.1880
 1555TIP3    H226301   6.046   2.300   1.303 -0.0366 -0.1261 -1.1630
 1556TIP3   OH226302   3.554   0.705   8.318  0.8462  0.2783 -0.0972
 1556TIP3    H126303   3.537   0.707   8.413  0.2068  0.8979 -0.2182
 1556TIP3    H226304   3.495   0.638   8.285 -1.1115  2.0904 -0.4487
 1557TIP3   OH226305   4.120   1.674   1.055 -0.0865  0.0974 -0.3906
 1557TIP3    H126306   4.139   1.654   1.146  0.0793 -1.0816 -0.6754
 1557TIP3    H226307   4.205   1.693   1.016 -0.0119 -0.6021 -0.5784
 1558TIP3   OH226308   4.309   4.189   0.865 -0.3073 -0.0178 -0.1514
 1558TIP3    H126309   4.337   4.128   0.797  0.9466  0.5853 -0.2106
 1558TIP3    H226310   4.261   4.136   0.928  2.6230 -1.5844  0.9626
 1559TIP3   OH226311   1.580   1.967   2.464 -0.4426 -0.0577 -1.0460
 1559TIP3    H126312   1.624   1.949   2.547  0.1827 -0.3471 -1.4324
 1559TIP3    H226313   1.570   2.063   2.462  0.5409  0.0502 -1.1346
 1560TIP3   OH226314   4.591   5.423   6.954  0.2512  0.1538  0.3611
 1560TIP3    H126315   4.503   5.460   6.964  1.0217  1.5956  2.3399
 1560TIP3    H226316   4.599   5.406   6.860 -1.7818  0.9299  0.0026
 1561TIP3   OH226317   4.468   0.623   8.176  0.2829  0.8806 -0.1031
 1561TIP3    H126318   4.524   0.700   8.164 -1.2239  1.8763 -0.9959
 1561TIP3    H226319   4.386   0.646   8.133 -1.5487  0.2035  2.7837
 1562TIP3   OH226320   4.040   1.111   0.346 -0.1166 -0.6431  0.1303
 1562TIP3    H126321   4.058   1.084   0.436  0.2809 -1.5875 -0.2140
 1562TIP3    H226322   3.952   1.079   0.329 -0.2556 -0.3169  0.2395
 1563TIP3   OH226323   4.612   4.142   0.715 -0.1362 -0.1654  0.1808
 1563TIP3    H126324   4.674   4.122   0.785 -1.1832 -1.4479  0.7740
 1563TIP3    H226325   4.528   4.113   0.748 -0.4515 -2.1512 -2.1394
 1564TIP3   OH226326   0.851   3.179   8.883  0.3233  0.0948 -0.0513
 1564TIP3    H126327   0.802   3.233   8.945 -0.1835 -1.3609  0.8709
 1564TIP3    H226328   0.797   3.101   8.872  1.6073 -0.7783 -0.3682
 1565TIP3   OH226329   6.472   4.859   0.546 -0.0934  0.5561  0.7529
 1565TIP3    H126330   6.385   4.845   0.584  0.0204 -2.7429  0.0874
 1565TIP3    H226331   6.454   4.895   0.459 -0.7271  0.9577  1.0413
 1566TIP3   OH226332   5.980   1.616   1.290  0.6401 -0.7402 -0.2446
 1566TIP3    H126333   5.913   1.679   1.261 -0.3507 -0.6407  2.0696
 1566TIP3    H226334   5.967   1.540   1.234 -1.4704 -0.7196  0.1361
 1567TIP3   OH226335   2.547   4.472   8.239 -0.0046 -0.3733 -0.2688
 1567TIP3    H126336   2.458   4.436   8.239  0.3930 -1.4176  0.9388
 1567TIP3    H226337   2.541   4.549   8.296 -0.0458 -0.6865  0.1530
 1568TIP3   OH226338   4.956   5.550   8.519  0.3760  0.0662  0.1930
 1568TIP3    H126339   4.970   5.619   8.455  1.9132  1.4633  1.9131
 1568TIP3    H226340   5.028   5.488   8.503 -0.1056 -0.3524 -0.3670
 1569TIP3   OH226341   3.766   6.282   0.848  0.1636 -0.3882  0.0820
 1569TIP3    H126342   3.791   6.207   0.794  1.9189  0.8440 -0.9337
 1569TIP3    H226343   3.742   6.350   0.786 -0.5836  0.1804  0.9587
 1570TIP3   OH226344   0.798   2.653   1.303 -0.2019  0.2686 -0.4272
 1570TIP3    H126345   0.812   2.745   1.281 -2.2647  0.6966 -0.1758
 1570TIP3    H226346   0.721   2.628   1.252  0.3836 -1.3786 -0.5710
 1571TIP3   OH226347   1.777   3.977   0.014  0.3978  0.4180 -0.2644
 1571TIP3    H126348   1.776   3.998  -0.080  2.0196  0.3473 -0.3173
 1571TIP3    H226349   1.690   4.003   0.045  0.2303  1.4994 -1.5631
 1572TIP3   OH226350   1.589   1.538   8.485 -0.4568 -0.5787  0.1017
 1572TIP3    H126351   1.680   1.517   8.506 -0.4028  2.0451  3.4182
 1572TIP3    H226352   1.594   1.594   8.408  0.6685 -0.8725 -0.0587
 1573TIP3   OH226353   1.779   3.484   8.773  0.6444  0.5105  0.6571
 1573TIP3    H126354   1.816   3.572   8.769  1.8596  0.0391  1.0938
 1573TIP3    H226355   1.840   3.435   8.829 -0.0759 -0.5763  0.5127
 1574TIP3   OH226356   1.219   1.218   0.040  0.0482 -0.2445  0.2077
 1574TIP3    H126357   1.138   1.266   0.058  1.5794  2.8898 -0.5530
 1574TIP3    H226358   1.270   1.225   0.121  0.9725  0.9787 -0.4463
 1575TIP3   OH226359   0.198   3.458   1.444  0.0409 -0.2033 -0.2891
 1575TIP3    H126360   0.111   3.419   1.447  0.2582 -0.7777 -0.9453
 1575TIP3    H226361   0.248   3.411   1.510 -0.2720  0.4713  0.4386
 1576TIP3   OH226362   5.785   0.088   1.088 -0.6799  0.1530 -0.4066
 1576TIP3    H126363   5.698   0.073   1.125 -0.3556 -1.8235 -0.3363
 1576TIP3    H226364   5.797   0.019   1.023  0.4319  1.0399 -1.2033
 1577TIP3   OH226365   4.673   3.839   0.589 -0.2437  0.0945  0.3488
 1577TIP3    H126366   4.664   3.925   0.631  0.7540  0.1957  0.3841
 1577TIP3    H226367   4.642   3.777   0.655 -0.2164  0.3725  0.6244
 1578TIP3   OH226368   6.211   0.279   6.561 -0.0510 -0.2505 -0.2291
 1578TIP3    H126369   6.230   0.195   6.519 -2.5811 -1.2860  0.4747
 1578TIP3    H226370   6.152   0.324   6.500 -0.3194  0.1153  0.2916
 1579TIP3   OH226371   3.839   3.513   0.903 -0.2039  0.0036  0.2929
 1579TIP3    H126372   3.915   3.474   0.947 -1.3860 -1.9604  0.7165
 1579TIP3    H226373   3.777   3.530   0.973 -0.2352  1.4842 -0.0682
 1580TIP3   OH226374   5.581   4.017   6.989 -0.8257  0.1669  0.3470
 1580TIP3    H126375   5.602   4.071   7.065 -2.9115 -0.0881  1.1715
 1580TIP3    H226376   5.602   3.928   7.016 -1.3342  0.1049  0.5498
 1581TIP3   OH226377   0.689   4.345   2.012  0.4011 -0.1056 -0.0102
 1581TIP3    H126378   0.668   4.362   1.920 -1.0878  1.4546  0.5805
 1581TIP3    H226379   0.708   4.431   2.049 -0.0173 -0.5948  1.3850
 1582TIP3   OH226380   1.608   4.564   8.773  0.5619 -0.3856  0.4939
 1582TIP3    H126381   1.538   4.514   8.814  0.3037 -2.2204 -1.9645
 1582TIP3    H226382   1.588   4.656   8.794 -1.4663 -0.9894  1.4351
 1583TIP3   OH226383   0.221   2.612   7.388 -0.2658  0.2398 -0.4686
 1583TIP3    H126384   0.170   2.530   7.390 -0.8503  0.5517 -1.6519
 1583TIP3    H226385   0.207   2.646   7.300  1.2373  0.8406 -0.4885
 1584TIP3   OH226386   4.638   0.654   1.031 -0.4365  0.0222 -0.2288
 1584TIP3    H126387   4.643   0.583   1.095  1.2971  0.2716 -0.0180
 1584TIP3    H226388   4.669   0.614   0.949 -1.0711  0.1207 -0.5252
 1585TIP3   OH226389   3.957   4.196   0.296 -0.5027  0.2467 -0.0130
 1585TIP3    H126390   3.915   4.120   0.254 -2.3282  0.8276  0.6914
 1585TIP3    H226391   3.892   4.266   0.290  0.9135  1.6186 -0.0986
 1586TIP3   OH226392   0.567   4.300   6.776  0.1044 -0.3470 -0.0556
 1586TIP3    H126393   0.618   4.374   6.744 -0.9442  0.0091 -0.9554
 1586TIP3    H226394   0.633   4.239   6.811  1.0401  0.6140 -0.0854
 1587TIP3   OH226395   6.315   0.893   1.118 -0.2337  0.0080  0.3847
 1587TIP3    H126396   6.292   0.983   1.092  0.7268 -0.3104 -1.7917
 1587TIP3    H226397   6.232   0.853   1.144 -0.5552  1.7620  2.3585
 1588TIP3   OH226398   6.581   4.463   1.901 -0.3133 -0.0404  0.0260
 1588TIP3    H126399   6.633   4.417   1.968 -1.8377 -1.2155  0.4573
 1588TIP3    H226400   6.547   4.393   1.845 -1.9772  0.6109  0.1648
 1589TIP3   OH226401   5.753   4.028   1.912  0.1150  0.4268 -0.0498
 1589TIP3    H126402   5.780   4.023   2.004 -0.7722  1.1727  0.2734
 1589TIP3    H226403   5.755   3.937   1.881 -1.5562 -0.1305  1.3128
 1590TIP3   OH226404   3.405   4.387   1.981 -0.2691 -0.3838 -0.4260
 1590TIP3    H126405   3.317   4.359   1.956 -0.3615  0.0342 -0.5782
 1590TIP3    H226406   3.459   4.366   1.904 -0.5255  0.7618 -0.9534
 1591TIP3   OH226407   0.081   4.384   6.783 -0.7858  0.5935 -0.6941
 1591TIP3    H126408   0.069   4.342   6.698  1.3428  1.7293 -1.6354
 1591TIP3    H226409   0.102   4.313   6.843 -1.3039 -0.1099 -1.3297
 1592TIP3   OH226410   0.260   2.730   8.257 -0.2838 -0.2745  0.5423
 1592TIP3    H126411   0.294   2.817   8.279  0.8829 -0.2511 -1.1508
 1592TIP3    H226412   0.282   2.719   8.164  0.4595 -2.7796  0.9646
 1593TIP3   OH226413   4.188   4.263   7.192 -0.2453 -0.7405  0.0089
 1593TIP3    H126414   4.208   4.273   7.099  0.9538 -0.0306  0.3177
 1593TIP3    H226415   4.274   4.267   7.236 -0.9529  1.4845  1.3405
 1594TIP3   OH226416   2.628   4.844   0.316  0.5466  0.2913 -0.7937
 1594TIP3    H126417   2.639   4.934   0.343 -0.5098  0.0135  0.6963
 1594TIP3    H226418   2.577   4.849   0.234  0.4687  1.0340 -0.7005
 1595TIP3   OH226419   1.059   4.855   7.345  0.0329  0.1663 -0.4117
 1595TIP3    H126420   0.989   4.798   7.376  0.0998  1.5093  2.6157
 1595TIP3    H226421   1.130   4.795   7.322  0.2788 -1.1047  3.0934
 1596TIP3   OH226422   3.776   5.563   1.077  0.0612  0.6036 -0.0907
 1596TIP3    H126423   3.784   5.591   0.986  0.0975  0.2971 -0.1817
 1596TIP3    H226424   3.845   5.498   1.088 -0.6796 -0.2189 -0.1736
 1597TIP3   OH226425   2.407   2.833   8.314  0.3630  0.3544  0.4334
 1597TIP3    H126426   2.398   2.912   8.369 -2.4210 -0.4053  1.2757
 1597TIP3    H226427   2.443   2.767   8.373  0.4551  0.3875  0.4140
 1598TIP3   OH226428   5.197   4.601   8.336 -0.6817 -0.1368  0.2235
 1598TIP3    H126429   5.142   4.678   8.323  0.4375  0.9445  1.5538
 1598TIP3    H226430   5.154   4.553   8.407 -1.0284 -0.3977 -0.1613
 1599TIP3   OH226431   6.286   4.864   8.152  0.3848 -0.4173 -0.1690
 1599TIP3    H126432   6.296   4.768   8.149  0.1750 -0.4923  0.9588
 1599TIP3    H226433   6.313   4.888   8.241 -0.2286  0.4914 -0.2172
 1600TIP3   OH226434   3.110   0.753   8.829 -0.5626 -0.4641 -0.4538
 1600TIP3    H126435   3.045   0.806   8.783  2.5381  1.2730 -3.2044
 1600TIP3    H226436   3.133   0.804   8.906 -0.5669  0.1897 -0.8814
 1601TIP3   OH226437   1.897   3.961   7.264 -0.1638  0.0069 -0.1477
 1601TIP3    H126438   1.805   3.954   7.240 -0.0751  1.0196 -0.8167
 1601TIP3    H226439   1.903   4.043   7.313  0.3530 -0.1360  0.0361
 1602TIP3   OH226440   6.490   0.138   7.385  0.1544 -0.3425 -0.0393
 1602TIP3    H126441   6.419   0.168   7.441 -0.5210  0.0966 -1.0873
 1602TIP3    H226442   6.450   0.129   7.298  1.2818 -0.4576 -0.5716
 1603TIP3   OH226443   4.238   3.939   0.454  0.1231 -1.1972  0.1393
 1603TIP3    H126444   4.220   3.927   0.361 -0.7786 -1.0019  0.2794
 1603TIP3    H226445   4.265   4.031   0.461 -1.4833 -0.6894  0.2845
 1604TIP3   OH226446   3.553   3.504   7.449 -0.5867  0.0329  0.2776
 1604TIP3    H126447   3.488   3.542   7.389 -1.1871 -2.3378 -0.6984
 1604TIP3    H226448   3.614   3.576   7.466 -2.0449  1.6296 -0.8076
 1605TIP3   OH226449   2.275   6.422   7.507  0.3259 -0.3730  0.3892
 1605TIP3    H126450   2.200   6.462   7.549  0.1104 -1.0537  0.6671
 1605TIP3    H226451   2.237   6.362   7.442  0.6410 -0.0142 -0.1319
 1606TIP3   OH226452   6.418   1.297   0.952 -0.3670  0.0318  0.0848
 1606TIP3    H126453   6.366   1.249   1.016  0.5436  0.8847  1.4927
 1606TIP3    H226454   6.354   1.325   0.886 -1.6103  0.5328  1.4507
 1607TIP3   OH226455   0.085   1.154   0.534  0.2102 -0.6099  0.0340
 1607TIP3    H126456   0.012   1.117   0.583 -0.5453 -0.9795 -1.3271
 1607TIP3    H226457   0.126   1.216   0.595 -0.6847 -1.0496  1.1171
 1608TIP3   OH226458   1.372   1.376   7.982  0.1170 -0.5081 -0.1338
 1608TIP3    H126459   1.464   1.397   8.000  0.0470  0.4706 -0.8053
 1608TIP3    H226460   1.372   1.343   7.892 -0.0406 -1.6534  0.2732
 1609TIP3   OH226461   2.370   1.297   8.479 -0.1711 -0.8298  0.6052
 1609TIP3    H126462   2.425   1.352   8.535 -0.5351 -0.3599  0.5150
 1609TIP3    H226463   2.420   1.287   8.398 -0.2803 -0.2741  0.4647
 1610TIP3   OH226464   5.285   6.626   0.625  0.3323  0.1669  0.0918
 1610TIP3    H126465   5.361   6.650   0.678  0.0858 -0.1386  0.5902
 1610TIP3    H226466   5.226   6.701   0.632  0.5097  0.3312 -0.1534
 1611TIP3   OH226467   5.340   4.588   7.645 -0.7446  0.2749  0.2620
 1611TIP3    H126468   5.307   4.521   7.705  2.0674 -0.6305  0.9240
 1611TIP3    H226469   5.324   4.552   7.558  0.7539 -1.3428  0.6077
 1612TIP3   OH226470   4.109   5.707   8.518  0.4544 -0.1301 -0.2343
 1612TIP3    H126471   4.055   5.743   8.589  0.7962 -0.2202  0.0753
 1612TIP3    H226472   4.196   5.696   8.557  0.9295  0.8187 -0.9774
 1613TIP3   OH226473   4.143   3.844   7.950  0.0464  0.2340  0.1136
 1613TIP3    H126474   4.171   3.763   7.907 -1.2267  0.6907 -1.7244
 1613TIP3    H226475   4.080   3.816   8.016 -1.9263 -0.2224 -1.8562
 1614TIP3   OH226476   6.445   2.354   8.525  0.0143 -0.3942 -0.6653
 1614TIP3    H126477   6.525   2.397   8.555 -0.0300 -0.5607 -0.3116
 1614TIP3    H226478   6.383   2.364   8.597 -0.1051 -0.7508 -0.7163
 1615TIP3   OH226479   0.825   6.586   8.467  0.0853 -0.7149 -0.6527
 1615TIP3    H126480   0.868   6.644   8.404 -1.7996  0.8908 -0.5820
 1615TIP3    H226481   0.761   6.538   8.414  0.7746 -1.8473 -0.4878
 1616TIP3   OH226482   3.400   3.937   0.963  0.6306  0.4271 -0.8316
 1616TIP3    H126483   3.460   3.983   1.022  1.1300 -1.8145  0.5569
 1616TIP3    H226484   3.315   3.978   0.978  1.1488  1.2557 -0.0828
 1617TIP3   OH226485   6.819   0.573   1.485 -0.0893 -0.0965  0.6044
 1617TIP3    H126486   6.874   0.605   1.414  0.1034  0.1184  0.8528
 1617TIP3    H226487   6.732   0.609   1.466  0.3547  1.4838  1.4766
 1618TIP3   OH226488   4.926   2.773   0.441  0.6112 -0.2564  0.2469
 1618TIP3    H126489   4.891   2.862   0.447 -0.5739 -0.6806 -0.0247
 1618TIP3    H226490   4.851   2.719   0.415  1.9458 -0.8429 -2.9232
 1619TIP3   OH226491   2.143   5.284   8.117  0.2928  0.2582 -0.4847
 1619TIP3    H126492   2.181   5.365   8.083  0.5603  0.5861  0.5605
 1619TIP3    H226493   2.162   5.219   8.050  2.5084  0.4560 -0.1520
 1620TIP3   OH226494   5.802   2.182   0.676  0.2230  0.5784 -0.5650
 1620TIP3    H126495   5.735   2.129   0.718 -3.0123  3.0649 -2.1408
 1620TIP3    H226496   5.826   2.247   0.742  0.8234 -0.0511 -0.1455
 1621TIP3   OH226497   2.747   3.797   8.503 -0.3047 -0.1036  0.7704
 1621TIP3    H126498   2.675   3.796   8.567 -0.6499  0.4984  0.4076
 1621TIP3    H226499   2.793   3.715   8.517 -1.9517 -1.2185  0.0103
 1622TIP3   OH226500   6.236   3.220   7.528 -0.3089  0.0595  0.7285
 1622TIP3    H126501   6.218   3.146   7.470  0.7076 -1.2026  1.9422
 1622TIP3    H226502   6.331   3.218   7.540 -0.5231 -0.0608  2.8108
 1623TIP3   OH226503   1.503   3.996   6.852 -0.1783  0.0992  0.0682
 1623TIP3    H126504   1.582   3.941   6.857 -0.5841 -0.9134 -2.8421
 1623TIP3    H226505   1.519   4.054   6.778 -0.7881  2.3519  1.5951
 1624TIP3   OH226506   3.416   5.605   7.214 -0.3506 -0.0356 -0.2898
 1624TIP3    H126507   3.463   5.674   7.166 -0.0330  2.1585  2.8684
 1624TIP3    H226508   3.484   5.556   7.259 -0.7804 -0.3591  0.0185
 1625TIP3   OH226509   5.978   4.649   0.739 -0.3862 -0.1806 -0.0336
 1625TIP3    H126510   5.912   4.599   0.786  1.2731 -2.7779 -0.2684
 1625TIP3    H226511   6.031   4.583   0.694  4.5396  1.2634  2.8640
 1626TIP3   OH226512   5.035   1.669   7.086 -0.1869  0.1472 -0.3339
 1626TIP3    H126513   4.956   1.630   7.048 -0.7055  1.6717 -0.8929
 1626TIP3    H226514   5.071   1.723   7.017  1.1193 -0.1684  0.0761
 1627TIP3   OH226515   3.155   1.745   2.012  0.3664 -0.1802  0.0160
 1627TIP3    H126516   3.184   1.752   2.104  0.8557 -1.4751 -0.0102
 1627TIP3    H226517   3.217   1.684   1.973 -0.7898 -0.8953 -0.7642
 1628TIP3   OH226518   0.897   2.487   0.968  0.3281  0.5399 -0.0733
 1628TIP3    H126519   0.944   2.570   0.961 -0.9031  1.1978 -0.6992
 1628TIP3    H226520   0.812   2.503   0.927 -1.1808 -0.0854  2.5640
 1629TIP3   OH226521   2.277   4.202   0.150  0.3924 -0.1197 -0.0736
 1629TIP3    H126522   2.263   4.229   0.060  1.1768 -1.0506 -0.4827
 1629TIP3    H226523   2.355   4.250   0.178 -0.9461  1.7049  0.7957
 1630TIP3   OH226524   5.553   0.544   7.427  0.0008 -0.2989 -0.4577
 1630TIP3    H126525   5.593   0.458   7.412 -0.5362 -0.8452  1.0193
 1630TIP3    H226526   5.467   0.524   7.465  0.7600  0.8339  2.1176
 1631TIP3   OH226527   6.655   1.370   0.472  0.1573 -0.1291  0.1800
 1631TIP3    H126528   6.722   1.417   0.422 -0.3649  0.2415 -0.1779
 1631TIP3    H226529   6.705   1.314   0.531  0.8127 -1.1848 -1.2954
 1632TIP3   OH226530   4.145   1.018   8.518 -0.5716 -0.0861  0.8053
 1632TIP3    H126531   4.221   1.003   8.574 -0.0690  0.9382  0.4382
 1632TIP3    H226532   4.162   0.965   8.440 -1.8474 -2.4736  2.0338
 1633TIP3   OH226533   1.869   1.696   0.173 -0.4960  0.0761 -0.5656
 1633TIP3    H126534   1.924   1.647   0.112 -0.1881 -1.7399  1.0522
 1633TIP3    H226535   1.803   1.737   0.119  0.5605 -0.3426 -2.2385
 1634TIP3   OH226536   5.147   0.351   1.738 -0.2435  0.3053 -0.1407
 1634TIP3    H126537   5.136   0.324   1.647 -1.3704 -2.8850  0.7842
 1634TIP3    H226538   5.063   0.330   1.779  0.4655  1.0177  1.7705
 1635TIP3   OH226539   0.931   3.363   7.782 -0.1563 -0.1006  0.1293
 1635TIP3    H126540   0.919   3.456   7.765 -1.4156 -0.0422  1.2334
 1635TIP3    H226541   0.966   3.328   7.700  2.9176  1.7679  0.4943
 1636TIP3   OH226542   0.570   2.615   7.230  0.2241  0.6240  0.5072
 1636TIP3    H126543   0.541   2.706   7.235 -2.0281 -0.0645  1.1863
 1636TIP3    H226544   0.510   2.574   7.168  1.9164 -0.1915 -0.6678
 1637TIP3   OH226545   1.413   0.943   0.299 -0.0650 -0.4785 -0.7203
 1637TIP3    H126546   1.345   0.894   0.344  0.8849 -1.8757 -0.7303
 1637TIP3    H226547   1.483   0.879   0.286  1.6332  1.1213  0.1194
 1638TIP3   OH226548   4.910   0.876   7.934 -0.2936 -0.4675 -0.0699
 1638TIP3    H126549   4.998   0.863   7.968  0.5867 -0.3116 -2.1427
 1638TIP3    H226550   4.879   0.788   7.913  0.3888 -0.3486 -1.6737
 1639TIP3   OH226551   6.583   3.850   0.215 -0.1738 -0.7319  0.3816
 1639TIP3    H126552   6.500   3.878   0.175 -0.1122 -0.0835  0.7021
 1639TIP3    H226553   6.562   3.840   0.308  0.4074  0.7156  0.6987
 1640TIP3   OH226554   0.180   4.641   8.501 -0.0408  0.1215  0.4140
 1640TIP3    H126555   0.230   4.575   8.550  0.2005  0.9409  1.2941
 1640TIP3    H226556   0.178   4.717   8.559 -2.1192  0.1978  0.3045
 1641TIP3   OH226557   3.934   4.371   8.575  0.0665 -1.0510 -0.4733
 1641TIP3    H126558   3.964   4.447   8.525  1.8048 -1.7138 -0.4905
 1641TIP3    H226559   3.866   4.332   8.520  0.0855 -0.2616 -1.0765
 1642TIP3   OH226560   6.454   5.245   8.662 -0.1014 -0.0536 -0.2020
 1642TIP3    H126561   6.406   5.255   8.580 -1.0520  1.4371  0.4916
 1642TIP3    H226562   6.533   5.298   8.649  0.2022 -0.5605 -0.4687
 1643TIP3   OH226563   6.073   5.919   7.900 -0.4741  0.6874  0.3016
 1643TIP3    H126564   6.088   6.012   7.912 -0.8534  0.7875  0.0035
 1643TIP3    H226565   6.053   5.886   7.988  1.4897  0.5423  0.7311
 1644TIP3   OH226566   0.309   1.018   1.812  0.2649  0.3022  0.5076
 1644TIP3    H126567   0.280   0.946   1.868  1.0737 -1.1900 -0.9113
 1644TIP3    H226568   0.391   0.987   1.773  2.1414  3.0845  1.9119
 1645TIP3   OH226569   3.250   3.849   1.637 -0.3857  0.3353  0.4494
 1645TIP3    H126570   3.268   3.806   1.553 -0.4454 -0.9596  1.0685
 1645TIP3    H226571   3.330   3.897   1.657  1.1360 -2.3344  1.3800
 1646TIP3   OH226572   4.612   4.248   0.432 -0.2427  0.5972  0.3338
 1646TIP3    H126573   4.654   4.179   0.381  1.4641  0.8212  1.3534
 1646TIP3    H226574   4.629   4.224   0.523 -2.2451  0.8021  0.7959
 1647TIP3   OH226575   4.994   0.424   2.053  0.4424  0.3278  0.3266
 1647TIP3    H126576   4.967   0.367   1.980  0.1721  0.0834  0.6125
 1647TIP3    H226577   5.035   0.365   2.116  1.7493  0.7127 -0.1422
 1648TIP3   OH226578   6.643   5.517   7.067  0.0120 -0.3348 -0.0461
 1648TIP3    H126579   6.688   5.563   6.996 -0.0028 -3.1285 -2.0447
 1648TIP3    H226580   6.708   5.453   7.097 -1.1165 -1.4499  0.0824
 1649TIP3   OH226581   3.107   0.179   0.998 -0.3229  0.3552  0.4702
 1649TIP3    H126582   3.143   0.220   0.919 -0.6716 -0.1840  0.0156
 1649TIP3    H226583   3.070   0.251   1.048  0.6091  0.8068  0.5294
 1650TIP3   OH226584   3.967   6.125   7.856  0.6857  0.0927 -0.3209
 1650TIP3    H126585   3.900   6.144   7.790 -0.3061  0.9658  0.8802
 1650TIP3    H226586   4.011   6.209   7.870  1.4872 -0.2896 -0.5091
 1651TIP3   OH226587   0.823   4.285   1.192  0.3323 -0.5444 -0.1114
 1651TIP3    H126588   0.891   4.244   1.246  0.6932  2.9731  2.5443
 1651TIP3    H226589   0.742   4.268   1.240  0.3670  0.8840  0.5049
 1652TIP3   OH226590   2.939   2.157   8.498  0.6284 -0.2231 -0.2614
 1652TIP3    H126591   2.950   2.121   8.410  0.6216 -3.2797  0.8800
 1652TIP3    H226592   2.869   2.221   8.489 -0.2208 -1.3451 -2.2815
 1653TIP3   OH226593   4.472   1.480   1.410 -0.1818 -0.0412 -0.1445
 1653TIP3    H126594   4.551   1.512   1.367  2.1131 -2.1382  2.1285
 1653TIP3    H226595   4.438   1.412   1.352 -0.4023  0.9547 -1.1972
 1654TIP3   OH226596   0.555   1.482   0.418 -0.0872 -0.4824  0.1228
 1654TIP3    H126597   0.591   1.538   0.349  0.1160 -0.4343  0.2674
 1654TIP3    H226598   0.613   1.405   0.420  0.1242 -0.3184  0.4837
 1655TIP3   OH226599   3.092   5.216   0.410 -0.0767 -0.1008 -0.0202
 1655TIP3    H126600   3.042   5.158   0.467 -0.3731  0.2170  0.0514
 1655TIP3    H226601   3.032   5.289   0.391  0.8683  1.0817  1.3292
 1656TIP3   OH226602   6.168   0.496   8.851  0.7110 -0.0151  0.1055
 1656TIP3    H126603   6.217   0.570   8.814  0.6082  1.3678  2.5147
 1656TIP3    H226604   6.080   0.504   8.814  0.7076  1.0715  0.3184
 1657TIP3   OH226605   5.753   5.714   7.816  0.1366 -0.0454  0.0334
 1657TIP3    H126606   5.830   5.658   7.808 -0.8315 -1.3206 -0.6309
 1657TIP3    H226607   5.753   5.767   7.736  1.0193  0.9083  0.6352
 1658TIP3   OH226608   4.919   5.882   0.856  0.1742  0.3472 -0.5430
 1658TIP3    H126609   4.846   5.850   0.803 -0.3726  1.2296 -0.3352
 1658TIP3    H226610   4.895   5.971   0.880 -0.0476 -0.3183  2.0150
 1659TIP3   OH226611   0.916   5.556   0.617  0.0345  1.0149 -0.3962
 1659TIP3    H126612   1.001   5.521   0.642 -1.6271 -2.7445  0.8453
 1659TIP3    H226613   0.930   5.595   0.531  2.8496 -0.1584 -0.5829
 1660TIP3   OH226614   4.864   5.765   2.019 -0.0184 -0.0007  0.0617
 1660TIP3    H126615   4.833   5.834   1.961 -0.6016 -0.6909 -0.4784
 1660TIP3    H226616   4.921   5.809   2.082  0.4302  0.8142 -0.8805
 1661TIP3   OH226617   1.637   2.428   0.112  0.0690  0.1770 -0.0908
 1661TIP3    H126618   1.588   2.495   0.064 -0.3482 -0.5013 -0.6383
 1661TIP3    H226619   1.684   2.379   0.044 -0.1041 -0.4618  0.2399
 1662TIP3   OH226620   0.437   2.582   0.431  0.1644  0.2023 -0.1719
 1662TIP3    H126621   0.493   2.550   0.501 -2.0728 -0.9917  1.1871
 1662TIP3    H226622   0.384   2.506   0.406  0.4799  0.7540 -2.7849
 1663TIP3   OH226623   2.762   3.826   0.586  0.1478  0.4126  0.3241
 1663TIP3    H126624   2.785   3.734   0.588  2.2056  0.8329 -1.0416
 1663TIP3    H226625   2.667   3.827   0.573  0.3107 -1.5564 -1.5726
 1664TIP3   OH226626   0.100   0.437   0.190  0.3214 -0.2108 -0.1249
 1664TIP3    H126627   0.112   0.528   0.217 -0.3503  0.4804 -1.9657
 1664TIP3    H226628   0.025   0.406   0.241 -0.2343  0.6803 -0.3727
 1665TIP3   OH226629   5.310   0.959   8.560 -0.0870  0.4017 -0.3082
 1665TIP3    H126630   5.219   0.933   8.547  0.5980 -2.0217 -0.8900
 1665TIP3    H226631   5.350   0.952   8.473  1.0989 -0.6742  0.2831
 1666TIP3   OH226632   5.687   6.455   7.863 -0.1579 -0.5279 -0.0774
 1666TIP3    H126633   5.617   6.463   7.928  0.2402  0.1094  0.2920
 1666TIP3    H226634   5.649   6.403   7.792 -0.5814 -1.2879  0.6873
 1667TIP3   OH226635   1.542   4.738   7.513  0.2263 -0.6762  0.2463
 1667TIP3    H126636   1.482   4.687   7.568 -0.3979  0.5534  0.7275
 1667TIP3    H226637   1.484   4.798   7.465  0.6602 -2.1076 -2.2459
 1668TIP3   OH226638   1.921   2.486   0.717 -0.2137  0.0577 -0.7698
 1668TIP3    H126639   1.997   2.509   0.663  1.0304 -2.5563 -0.2670
 1668TIP3    H226640   1.851   2.543   0.684  2.3015  4.0664  0.0492
 1669TIP3   OH226641   1.403   5.048   8.689 -0.3071  0.5373 -0.1955
 1669TIP3    H126642   1.351   5.072   8.612  0.1271  0.5915 -0.4739
 1669TIP3    H226643   1.423   5.132   8.731  1.3944  0.7133 -1.2876
 1670TIP3   OH226644   1.800   3.087   8.253 -0.0943 -0.0316 -0.0665
 1670TIP3    H126645   1.823   3.162   8.198 -1.7850  1.4508  1.1209
 1670TIP3    H226646   1.878   3.071   8.306 -0.0020  1.5228  0.3154
 1671TIP3   OH226647   4.378   6.298   2.108  0.1946 -0.5843  0.0005
 1671TIP3    H126648   4.385   6.255   2.023  2.5197  0.1173 -0.2308
 1671TIP3    H226649   4.355   6.389   2.087  1.0396 -0.3442  0.0792
 1672TIP3   OH226650   2.846   4.711   1.020  0.0319 -0.4390 -0.1676
 1672TIP3    H126651   2.752   4.700   1.031  0.2923 -0.3352  3.5007
 1672TIP3    H226652   2.857   4.803   0.994 -0.8774 -0.1830  0.3246
 1673TIP3   OH226653   2.945   3.242   7.146 -0.0183 -0.3462  0.1103
 1673TIP3    H126654   2.882   3.314   7.146  0.1670 -0.1777  0.8567
 1673TIP3    H226655   3.029   3.283   7.164  0.3387 -0.5503 -1.0484
 1674TIP3   OH226656   1.102   5.362   7.952 -0.3061 -0.3898 -0.2868
 1674TIP3    H126657   1.037   5.430   7.937 -1.0364 -1.2716 -1.2419
 1674TIP3    H226658   1.060   5.301   8.011  0.1855 -0.2512  0.2151
 1675TIP3   OH226659   3.333   5.909   8.521 -0.0221  0.4838 -0.0843
 1675TIP3    H126660   3.307   5.957   8.443 -0.2876  1.0697  0.3675
 1675TIP3    H226661   3.255   5.905   8.576 -1.0074 -3.2170 -1.4447
 1676TIP3   OH226662   4.593   3.178   7.266 -0.6815  0.0372 -0.0426
 1676TIP3    H126663   4.645   3.247   7.225  0.2644 -0.7526 -0.1964
 1676TIP3    H226664   4.545   3.137   7.194 -0.0615 -0.4627 -0.1776
 1677TIP3   OH226665   0.288   6.078   7.234 -0.6137  0.3650  0.0801
 1677TIP3    H126666   0.280   6.015   7.162  1.2479 -1.0126  0.9819
 1677TIP3    H226667   0.368   6.127   7.213 -1.0345  1.1669  0.3329
 1678TIP3   OH226668   2.354   0.267   0.691 -0.2219 -0.2363  0.2803
 1678TIP3    H126669   2.264   0.269   0.725 -0.0607  0.7636  0.6627
 1678TIP3    H226670   2.396   0.344   0.729  2.1701 -2.9802  3.9412
 1679TIP3   OH226671   2.921   3.606   7.794  0.1474  0.2235 -0.3236
 1679TIP3    H126672   2.892   3.524   7.835 -0.3685  0.1383 -0.8399
 1679TIP3    H226673   2.973   3.650   7.861 -1.3268  0.4550  0.7183
 1680TIP3   OH226674   2.385   0.057   8.744  0.6138  0.4698 -0.1153
 1680TIP3    H126675   2.471   0.055   8.786  1.0530 -0.7969 -1.0155
 1680TIP3    H226676   2.403   0.041   8.651 -0.4555  1.7918 -0.5900
 1681TIP3   OH226677   2.609   2.654   7.725  0.0061 -0.0186  0.0094
 1681TIP3    H126678   2.617   2.569   7.683  0.8922 -0.0544  0.2340
 1681TIP3    H226679   2.606   2.635   7.819  0.0805  0.1895  0.0548
 1682TIP3   OH226680   2.823   1.067   0.334 -0.1680 -0.4081  0.0899
 1682TIP3    H126681   2.821   1.163   0.332  1.9734 -0.2755  1.0838
 1682TIP3    H226682   2.772   1.044   0.412  1.6966  0.1609  1.5710
 1683TIP3   OH226683   5.040   1.365   2.457 -0.1880  0.6191  0.4717
 1683TIP3    H126684   5.041   1.283   2.507 -0.5927  0.3995  0.1306
 1683TIP3    H226685   4.952   1.400   2.471  0.7295  2.2707  2.6300
 1684TIP3   OH226686   1.391   1.818   1.480  0.1552 -0.2082 -0.9284
 1684TIP3    H126687   1.461   1.831   1.416  1.8992 -1.4747  0.5969
 1684TIP3    H226688   1.413   1.735   1.522 -1.2707  0.2716  0.8783
 1685TIP3   OH226689   5.443   5.052   0.862  0.0689  0.3242  0.3397
 1685TIP3    H126690   5.431   5.087   0.774 -2.2663 -1.2851 -0.0591
 1685TIP3    H226691   5.537   5.040   0.870  0.3862  1.0144 -1.7172
 1686TIP3   OH226692   3.921   0.097   8.912 -0.1769  0.3051 -0.3844
 1686TIP3    H126693   3.896   0.173   8.965  1.3987  0.7836 -0.2635
 1686TIP3    H226694   3.846   0.038   8.918  0.4342 -0.3760  3.7168
 1687TIP3   OH226695   0.454   1.521   7.426  0.4804 -0.1693  0.6913
 1687TIP3    H126696   0.503   1.442   7.450  0.0106 -0.1460  1.7933
 1687TIP3    H226697   0.440   1.513   7.332  1.3552 -0.8801  0.6040
 1688TIP3   OH226698   6.361   1.552   7.986 -0.0442  0.1005  0.1363
 1688TIP3    H126699   6.271   1.580   8.005 -0.5408 -1.4915  0.2593
 1688TIP3    H226700   6.368   1.554   7.891  0.4271  2.0376  0.1715
 1689TIP3   OH226701   5.350   1.765   8.291 -0.3489  0.0517  0.3929
 1689TIP3    H126702   5.339   1.800   8.380 -1.3884 -0.7810  0.6177
 1689TIP3    H226703   5.384   1.838   8.240 -2.6152  1.4680  0.7952
 1690TIP3   OH226704   3.334   5.077   7.677 -0.4002  0.2480  0.0295
 1690TIP3    H126705   3.390   5.136   7.727 -0.3501 -0.7168  1.1616
 1690TIP3    H226706   3.393   5.038   7.612 -0.5028  1.6318 -0.9498
 1691TIP3   OH226707   2.847   1.078   7.232 -0.4412 -0.4327 -0.4689
 1691TIP3    H126708   2.808   1.163   7.254 -2.4740 -1.4466  0.0962
 1691TIP3    H226709   2.881   1.045   7.315  1.0583  0.1252 -0.8291
 1692TIP3   OH226710   3.028   0.383   8.191 -0.3447 -0.3750 -0.1742
 1692TIP3    H126711   2.979   0.302   8.203 -1.0282  0.2791  1.8713
 1692TIP3    H226712   3.111   0.368   8.236  0.1016 -0.3968 -0.9816
 1693TIP3   OH226713   6.395   6.695   0.228  0.6642  0.5546  0.4640
 1693TIP3    H126714   6.356   6.752   0.161  0.0676 -1.7286 -1.2612
 1693TIP3    H226715   6.476   6.741   0.253 -0.4126  2.7680  0.1637
 1694TIP3   OH226716   6.471   3.195   8.312 -0.1522 -0.2872 -0.3592
 1694TIP3    H126717   6.555   3.165   8.277  0.7200  0.4524  1.0042
 1694TIP3    H226718   6.406   3.152   8.258  1.1087  0.4666 -2.6075
 1695TIP3   OH226719   5.819   5.779   8.784 -0.2717 -0.1781 -0.4093
 1695TIP3    H126720   5.747   5.775   8.847 -0.6458  0.2140 -0.7982
 1695TIP3    H226721   5.896   5.754   8.834 -0.4569  0.7401  0.3736
 1696TIP3   OH226722   5.265   4.441   7.419 -0.2136  0.3779 -0.5439
 1696TIP3    H126723   5.193   4.488   7.376 -0.3449 -0.6319 -1.4609
 1696TIP3    H226724   5.276   4.362   7.367  0.8055 -0.0324  0.2746
 1697TIP3   OH226725   3.170   0.096   6.396  0.2310 -0.3806 -0.1258
 1697TIP3    H126726   3.210   0.018   6.434  0.8972 -1.1570 -2.2513
 1697TIP3    H226727   3.237   0.129   6.335 -1.8104 -1.0408 -2.9429
 1698TIP3   OH226728   0.038   0.247   6.755  1.0667  0.2427  0.2024
 1698TIP3    H126729  -0.006   0.198   6.686 -0.0562  0.6563  0.5974
 1698TIP3    H226730   0.015   0.339   6.737  2.3481  0.5484  0.0213
 1699TIP3   OH226731   0.727   1.799   0.430 -0.8307 -0.2713  0.1970
 1699TIP3    H126732   0.731   1.890   0.460  2.0868 -0.6235  1.1575
 1699TIP3    H226733   0.649   1.763   0.472 -0.9063  1.2343  1.4202
 1700TIP3   OH226734   1.649   4.153   8.065  0.8631  0.4397  0.3673
 1700TIP3    H126735   1.659   4.086   8.132  0.6119  1.4346  1.4224
 1700TIP3    H226736   1.696   4.228   8.099  0.3375  1.1098 -0.3528
 1701TIP3   OH226737   4.725   6.145   7.381  0.3317  0.1294 -0.1089
 1701TIP3    H126738   4.817   6.132   7.404  0.2315 -1.1026 -0.3281
 1701TIP3    H226739   4.727   6.204   7.306  1.0296 -0.9164 -0.9373
 1702TIP3   OH226740   4.030   1.907   8.640 -0.1309  0.0475  0.0531
 1702TIP3    H126741   3.989   1.930   8.557  0.3447  0.7894  0.0176
 1702TIP3    H226742   4.037   1.812   8.637 -2.4837 -0.2082  0.3625
 1703TIP3   OH226743   3.482   1.184   7.401  0.3070 -0.3891  0.0807
 1703TIP3    H126744   3.520   1.258   7.354 -0.0282  0.4968  1.1336
 1703TIP3    H226745   3.484   1.211   7.493 -0.5928 -1.3364  0.4024
 1704TIP3   OH226746   0.672   6.026   2.645 -0.3930  0.5958  0.1049
 1704TIP3    H126747   0.672   6.009   2.551  1.0452  1.5169 -0.0848
 1704TIP3    H226748   0.634   5.946   2.683 -0.6713  0.0689 -1.2140
 1705TIP3   OH226749   2.188   3.298   0.485  0.5233  0.0093 -0.3568
 1705TIP3    H126750   2.131   3.268   0.557 -1.1659  1.7330 -0.8948
 1705TIP3    H226751   2.254   3.229   0.477 -0.6478 -1.3994  1.2556
 1706TIP3   OH226752   4.373   5.985   7.870  0.3409 -0.3983  0.2807
 1706TIP3    H126753   4.366   6.008   7.777  1.9702 -0.8858  0.0169
 1706TIP3    H226754   4.289   5.943   7.890  0.3267 -1.1787 -1.2350
 1707TIP3   OH226755   1.195   2.853   7.802 -0.2982 -0.4656 -0.2724
 1707TIP3    H126756   1.175   2.932   7.751  0.9675  0.0786  0.0305
 1707TIP3    H226757   1.145   2.864   7.883  1.3894  1.0957  0.6687
 1708TIP3   OH226758   3.295   2.115   8.506  0.0676  0.2357  0.1727
 1708TIP3    H126759   3.312   2.204   8.537  1.5929  0.1352 -0.3067
 1708TIP3    H226760   3.307   2.120   8.411 -1.7175 -0.0853 -0.0999
 1709TIP3   OH226761   3.346   3.626   8.753  0.4556 -0.0237 -0.0406
 1709TIP3    H126762   3.387   3.652   8.836 -0.3787  1.6083 -0.1010
 1709TIP3    H226763   3.379   3.538   8.737  1.9055  0.2438  1.2055
 1710TIP3   OH226764   2.668   1.067   1.228  0.2969  0.0743 -0.2995
 1710TIP3    H126765   2.662   1.139   1.291 -0.0175  0.0146 -0.2598
 1710TIP3    H226766   2.762   1.054   1.215  0.3565  1.1121 -1.0172
 1711TIP3   OH226767   5.468   6.678   7.651 -0.4227 -0.5258  0.2627
 1711TIP3    H126768   5.467   6.585   7.627  1.6384 -0.2348 -1.2602
 1711TIP3    H226769   5.553   6.690   7.692 -0.9895  0.5505  1.1454
 1712TIP3   OH226770   5.634   3.528   2.266 -0.6803  0.2162  0.6930
 1712TIP3    H126771   5.644   3.469   2.340 -0.5958 -0.3346  0.2524
 1712TIP3    H226772   5.553   3.500   2.223  0.1245 -0.5576 -0.3760
 1713TIP3   OH226773   1.028   3.097   1.240  0.1701  0.3539 -0.1757
 1713TIP3    H126774   1.018   3.172   1.299 -0.0860  0.0989  0.1105
 1713TIP3    H226775   1.116   3.064   1.258 -0.2261 -0.2575  0.7046
 1714TIP3   OH226776   4.947   6.189   8.780 -0.4509  0.1856 -0.1811
 1714TIP3    H126777   5.037   6.197   8.750  0.3011 -0.7170  1.7001
 1714TIP3    H226778   4.924   6.275   8.813  0.1209  0.1345  0.3568
 1715TIP3   OH226779   1.752   3.473   7.752  0.9531 -0.7266 -0.0745
 1715TIP3    H126780   1.773   3.516   7.834 -0.2223 -0.4218  0.0886
 1715TIP3    H226781   1.715   3.389   7.778 -0.5838 -0.1259 -0.2133
 1716TIP3   OH226782   0.859   4.012   2.254 -0.4314 -0.0569 -0.9656
 1716TIP3    H126783   0.901   3.929   2.235 -0.0045 -0.1058  0.1404
 1716TIP3    H226784   0.859   4.019   2.349 -0.8883  0.9907 -1.0192
 1717TIP3   OH226785   2.797   0.335   0.727  0.0733 -0.6562 -0.8513
 1717TIP3    H126786   2.860   0.337   0.655  0.1486  1.9871 -0.8120
 1717TIP3    H226787   2.757   0.422   0.726  1.1521  0.1248  3.2126
 1718TIP3   OH226788   0.305   6.577   7.659 -0.1499  0.1427  0.0422
 1718TIP3    H126789   0.331   6.518   7.729  0.6164  1.0991  0.5836
 1718TIP3    H226790   0.369   6.561   7.589  0.8192  1.1682  0.6593
 1719TIP3   OH226791   2.360   5.781   7.172  0.4407 -0.3157 -0.0121
 1719TIP3    H126792   2.390   5.834   7.098  0.0122 -0.6792 -0.4533
 1719TIP3    H226793   2.357   5.692   7.138  0.6023 -0.5469  0.5599
 1720TIP3   OH226794   5.721   1.923   0.793  0.2657 -0.2894  0.0640
 1720TIP3    H126795   5.694   1.957   0.878 -1.4229 -3.4322  0.9727
 1720TIP3    H226796   5.764   1.840   0.814 -2.2796 -2.3407 -2.1434
 1721TIP3   OH226797   0.034   2.829   1.509 -1.0639  0.3450  0.1066
 1721TIP3    H126798   0.015   2.911   1.554  0.4738  0.8212 -0.0286
 1721TIP3    H226799   0.023   2.849   1.416 -1.1926  0.2516  0.1014
 1722TIP3   OH226800   6.192   5.169   0.676 -0.3927 -0.5155  0.1451
 1722TIP3    H126801   6.181   5.080   0.644 -0.8778 -0.9415  1.4501
 1722TIP3    H226802   6.287   5.182   0.678 -0.3130 -1.0864  0.2036
 1723TIP3   OH226803   0.737   3.842   1.198  0.7550  0.0986 -0.7306
 1723TIP3    H126804   0.642   3.847   1.197  0.6595 -1.1296  0.0024
 1723TIP3    H226805   0.761   3.875   1.285  0.9655 -0.1293 -0.7031
 1724TIP3   OH226806   2.671   2.308   6.974  0.3612 -0.4619  0.4278
 1724TIP3    H126807   2.702   2.332   6.886 -1.2315  1.3580  0.3060
 1724TIP3    H226808   2.651   2.392   7.016 -0.0475 -1.3619  2.1138
 1725TIP3   OH226809   0.253   0.648   8.707  0.0152  0.0463  0.5204
 1725TIP3    H126810   0.180   0.592   8.682  2.0177 -2.5930  0.1074
 1725TIP3    H226811   0.234   0.674   8.797 -3.3200  2.9274 -0.7848
 1726TIP3   OH226812   1.985   2.199   7.170  0.0620 -0.5108  0.2172
 1726TIP3    H126813   1.892   2.178   7.175  0.2185 -1.4799 -0.5785
 1726TIP3    H226814   2.013   2.207   7.261 -0.6566 -0.8675  0.4776
 1727TIP3   OH226815   2.573   0.167   0.909 -0.3662  0.0649 -0.0179
 1727TIP3    H126816   2.623   0.217   0.845  0.6098 -1.1345 -0.2201
 1727TIP3    H226817   2.566   0.225   0.985 -0.7553  1.1560 -0.8626
 1728TIP3   OH226818   4.937   2.806   8.063  0.1623  0.4887 -0.2496
 1728TIP3    H126819   4.863   2.773   8.013  0.1740  0.7444 -0.4372
 1728TIP3    H226820   5.005   2.740   8.051  0.7171  1.2990 -1.9059
 1729TIP3   OH226821   5.350   0.163   7.758  0.2853 -0.1861 -0.3538
 1729TIP3    H126822   5.420   0.182   7.695 -1.8267 -0.1957 -2.8508
 1729TIP3    H226823   5.318   0.249   7.785  0.6305 -0.1936  0.1040
 1730TIP3   OH226824   6.209   6.170   1.162 -0.3887  0.4618  0.5699
 1730TIP3    H126825   6.195   6.080   1.190  0.6297  0.6704  1.8504
 1730TIP3    H226826   6.170   6.223   1.232  0.2672  1.0048  0.5362
 1731TIP3   OH226827   1.098   3.269   2.339 -0.5601 -0.0117  0.5073
 1731TIP3    H126828   1.114   3.282   2.432  1.0109 -0.2227  0.2961
 1731TIP3    H226829   1.016   3.315   2.322  0.1466  1.7271  1.5809
 1732TIP3   OH226830   5.565   6.718   8.702 -0.2209 -0.2811 -0.2733
 1732TIP3    H126831   5.478   6.715   8.664  0.3819 -2.2596 -1.6668
 1732TIP3    H226832   5.551   6.743   8.793 -2.1270  0.3809 -0.7110
 1733TIP3   OH226833   1.730   6.374   0.918 -0.5643 -0.7844  0.7758
 1733TIP3    H126834   1.803   6.333   0.871  1.9976  0.7586  3.1070
 1733TIP3    H226835   1.702   6.307   0.981 -2.1144 -1.8157 -0.8905
 1734TIP3   OH226836   0.028   6.263   6.415  0.1529 -0.0223  0.6471
 1734TIP3    H126837  -0.007   6.308   6.338  0.2520 -1.3636 -0.2061
 1734TIP3    H226838   0.028   6.330   6.483 -1.1449  0.8537 -0.1605
 1735TIP3   OH226839   4.837   3.291   7.220  0.3641 -0.1434 -0.0043
 1735TIP3    H126840   4.932   3.282   7.225  0.3990  0.3987  0.4523
 1735TIP3    H226841   4.823   3.383   7.195 -0.0627  0.3445  1.8632
 1736TIP3   OH226842   5.073   1.256   0.627 -0.0403 -0.4490  0.4399
 1736TIP3    H126843   5.078   1.351   0.629  2.3385 -0.4433 -1.5585
 1736TIP3    H226844   4.984   1.236   0.658 -1.7703  2.5793 -2.0339
 1737TIP3   OH226845   1.845   0.163   1.615 -0.0360  0.0171  0.1451
 1737TIP3    H126846   1.877   0.221   1.545  1.3968  0.7308  1.3366
 1737TIP3    H226847   1.866   0.209   1.696 -2.1833 -0.5242  1.0813
 1738TIP3   OH226848   2.121   3.971   0.068  0.0748  0.3390 -0.3223
 1738TIP3    H126849   2.048   3.992   0.125 -0.0767 -1.8301  0.3798
 1738TIP3    H226850   2.180   4.045   0.076 -2.1878  2.3621 -1.2652
 1739TIP3   OH226851   4.878   6.204   6.930 -0.7840  0.2106 -0.4378
 1739TIP3    H126852   4.955   6.215   6.875 -0.3917 -0.5624 -0.0504
 1739TIP3    H226853   4.912   6.202   7.019 -1.3948  1.2801 -0.1555
 1740TIP3   OH226854   6.267   2.236   1.396  0.1461  0.4349  0.3315
 1740TIP3    H126855   6.310   2.177   1.458  1.1710  0.6980 -0.1237
 1740TIP3    H226856   6.298   2.324   1.420  1.2077  0.4653 -1.0646
 1741TIP3   OH226857   0.098   6.341   7.190  0.4118 -0.4884 -0.2835
 1741TIP3    H126858   0.005   6.340   7.168 -0.1578  1.1213  1.8032
 1741TIP3    H226859   0.101   6.337   7.285  2.3381  1.8448 -0.1293
 1742TIP3   OH226860   6.249   1.003   7.821 -0.4652  0.4352  0.4105
 1742TIP3    H126861   6.169   1.001   7.769 -1.4227  1.3302  1.7606
 1742TIP3    H226862   6.271   1.096   7.827  0.3444  0.2428  0.5629
 1743TIP3   OH226863   6.254   5.100   2.506  0.3374 -0.2351  0.5571
 1743TIP3    H126864   6.254   5.037   2.578 -1.0862 -0.9796 -0.0370
 1743TIP3    H226865   6.334   5.151   2.518 -0.4274  0.4889  3.3577
 1744TIP3   OH226866   3.600   2.362   6.685 -0.3912  0.6111  0.2379
 1744TIP3    H126867   3.663   2.425   6.651  1.7697 -0.8886  1.2587
 1744TIP3    H226868   3.521   2.378   6.633  1.1489  1.7815 -1.9366
 1745TIP3   OH226869   2.361   5.526   1.204 -0.2490  0.6118 -0.1755
 1745TIP3    H126870   2.321   5.440   1.190  1.3587  0.1573 -2.7304
 1745TIP3    H226871   2.297   5.574   1.256 -1.4475 -1.9176  0.8927
 1746TIP3   OH226872   0.870   2.888   1.174  0.2313  0.4630  0.2655
 1746TIP3    H126873   0.918   2.969   1.191 -0.8266  1.3197 -0.6458
 1746TIP3    H226874   0.929   2.836   1.119 -0.5143  2.3295 -2.5298
 1747TIP3   OH226875   2.797   2.084   7.791  0.4973  0.3234 -0.1221
 1747TIP3    H126876   2.884   2.071   7.752  0.7667 -1.3321  0.9071
 1747TIP3    H226877   2.807   2.054   7.881 -1.0316  0.5674  0.1581
 1748TIP3   OH226878   3.918   5.144   6.474  0.2046 -0.2818 -0.4774
 1748TIP3    H126879   3.943   5.236   6.472  1.4955 -0.6370 -2.0594
 1748TIP3    H226880   3.838   5.140   6.421 -1.1862  0.2308  1.4467
 1749TIP3   OH226881   6.316   2.870   0.260 -0.1976 -0.9276 -0.0105
 1749TIP3    H126882   6.226   2.882   0.292 -0.7320  2.3569 -2.1932
 1749TIP3    H226883   6.365   2.839   0.336 -2.1822  2.1558  2.8451
 1750TIP3   OH226884   5.936   6.299   0.615  0.2129 -0.0206 -0.2186
 1750TIP3    H126885   5.987   6.246   0.676  0.1163  1.1353  0.9018
 1750TIP3    H226886   5.845   6.289   0.643  0.0823 -0.1376 -0.6821
 1751TIP3   OH226887   3.000   3.021   0.756 -0.0413  0.1580 -0.0211
 1751TIP3    H126888   3.037   2.985   0.836  1.9066  2.7220  0.3687
 1751TIP3    H226889   2.909   3.042   0.778 -1.5173 -4.5378 -0.4158
 1752TIP3   OH226890   0.227   2.232   8.192  0.1451  0.2306 -0.2831
 1752TIP3    H126891   0.312   2.258   8.227 -0.1177 -1.0976  1.4966
 1752TIP3    H226892   0.224   2.270   8.104  2.6320  0.1436 -0.4608
 1753TIP3   OH226893   1.602   0.886   7.723 -0.6502  0.4672  0.6805
 1753TIP3    H126894   1.638   0.815   7.778 -1.8756 -1.0570 -0.3896
 1753TIP3    H226895   1.679   0.928   7.685  0.1073 -0.7160  0.8430
 1754TIP3   OH226896   5.988   5.482   7.242  0.9158  0.4852  0.3887
 1754TIP3    H126897   6.035   5.558   7.207  2.3163 -0.8431 -0.7733
 1754TIP3    H226898   6.055   5.433   7.289  0.0260 -0.0407  1.1164
 1755TIP3   OH226899   5.295   1.254   8.494  0.0103  0.0658  0.2237
 1755TIP3    H126900   5.248   1.293   8.567  1.9295 -1.0737  2.1786
 1755TIP3    H226901   5.257   1.167   8.485 -0.3380  0.2639 -0.2849
 1756TIP3   OH226902   4.570   0.079   1.388  0.2690  0.2100 -0.2465
 1756TIP3    H126903   4.478   0.053   1.390 -0.2276  1.8683  1.1044
 1756TIP3    H226904   4.609   0.038   1.465 -0.0745  1.8012  0.8257
 1757TIP3   OH226905   2.829   2.089   0.528  0.9311  0.5042 -0.3357
 1757TIP3    H126906   2.755   2.083   0.467  0.9461  2.9853 -0.6829
 1757TIP3    H226907   2.788   2.100   0.614  0.9282 -1.2419 -0.0749
 1758TIP3   OH226908   1.329   3.129   7.369  0.3541 -0.0473  0.2328
 1758TIP3    H126909   1.309   3.222   7.378  0.6830 -0.0691  1.3468
 1758TIP3    H226910   1.252   3.091   7.328 -0.2141  0.5355  0.7493
 1759TIP3   OH226911   3.826   3.403   2.134 -0.1128  0.2212 -0.5875
 1759TIP3    H126912   3.789   3.442   2.213 -0.6866 -1.4369  0.0099
 1759TIP3    H226913   3.892   3.342   2.166 -1.7385 -1.9771 -1.2064
 1760TIP3   OH226914   6.217   1.943   1.792 -0.1685 -0.6955 -0.4116
 1760TIP3    H126915   6.285   1.899   1.742 -0.7017 -1.8239 -0.1847
 1760TIP3    H226916   6.195   2.021   1.741  2.0848  0.3295  0.0832
 1761TIP3   OH226917   3.349   6.418   6.448 -0.3148 -0.7224 -0.1498
 1761TIP3    H126918   3.434   6.460   6.431 -0.6840 -0.3808 -1.2559
 1761TIP3    H226919   3.360   6.329   6.415 -0.6632 -0.4070 -1.1429
 1762TIP3   OH226920   1.157   2.554   0.538 -0.0580  0.2926 -0.4493
 1762TIP3    H126921   1.166   2.588   0.448  0.0250 -1.8921 -1.3328
 1762TIP3    H226922   1.213   2.476   0.540  0.3908  0.6115  1.7052
 1763TIP3   OH226923   2.982   4.735   7.793  0.0210 -0.6266  0.0383
 1763TIP3    H126924   2.981   4.650   7.750 -1.9401 -0.7352  0.2168
 1763TIP3    H226925   3.013   4.796   7.726 -4.1822 -0.5531 -2.1222
 1764TIP3   OH226926   0.714   3.641   7.457 -0.1562  0.0323  0.3066
 1764TIP3    H126927   0.635   3.627   7.404 -0.1599  1.7707 -0.1895
 1764TIP3    H226928   0.765   3.561   7.444 -1.7506 -1.0889  0.5468
 1765TIP3   OH226929   1.475   2.757   0.774 -0.4747  0.1691 -0.3815
 1765TIP3    H126930   1.491   2.795   0.860 -0.6528 -1.6484  0.4954
 1765TIP3    H226931   1.459   2.833   0.717  2.7048  1.6404  0.4450
 1766TIP3   OH226932   4.600   5.346   7.600 -0.0737  0.1412  0.1554
 1766TIP3    H126933   4.666   5.296   7.554  0.4412 -1.8117  2.7689
 1766TIP3    H226934   4.648   5.418   7.640 -0.2722  1.0071 -1.1228
 1767TIP3   OH226935   4.493   0.265   0.267  0.2865 -0.0050  0.3838
 1767TIP3    H126936   4.556   0.323   0.224  1.0458 -0.6821  0.5679
 1767TIP3    H226937   4.503   0.282   0.360 -0.4425  0.5203  0.3791
 1768TIP3   OH226938   5.532   6.728   0.432 -0.0216 -0.1613  0.2402
 1768TIP3    H126939   5.438   6.733   0.451  0.1962  0.9079  1.1273
 1768TIP3    H226940   5.547   6.636   0.410 -1.7596  0.1171 -2.5776
 1769TIP3   OH226941   3.916   5.398   2.293  0.2175  0.8355 -0.2083
 1769TIP3    H126942   3.898   5.336   2.222  0.7616  0.9410 -0.4405
 1769TIP3    H226943   4.004   5.430   2.275 -0.4514  2.5293 -0.7561
 1770TIP3   OH226944   1.632   5.993   2.251 -0.3926 -0.5186 -0.4347
 1770TIP3    H126945   1.689   6.070   2.256  0.2861 -1.0863  1.0237
 1770TIP3    H226946   1.686   5.926   2.208 -0.5965 -0.5192 -0.6936
 1771TIP3   OH226947   4.806   3.910   7.673  0.4875  0.4844 -0.1810
 1771TIP3    H126948   4.806   3.837   7.611  1.2582 -1.8677  2.3542
 1771TIP3    H226949   4.877   3.966   7.644  0.0620  0.1228 -2.0559
 1772TIP3   OH226950   0.304   0.726   6.507  0.1162  0.5009 -0.2323
 1772TIP3    H126951   0.313   0.822   6.506  2.1987  0.3671 -2.5755
 1772TIP3    H226952   0.228   0.709   6.452 -0.8918  0.7778  1.0087
 1773TIP3   OH226953   1.277   4.227   0.159 -0.5759 -0.9226  0.3719
 1773TIP3    H126954   1.219   4.301   0.178  1.3401  0.6159  0.5852
 1773TIP3    H226955   1.248   4.158   0.219 -1.9099 -0.0832  0.7440
 1774TIP3   OH226956   0.144   2.990   2.274 -0.5389 -0.5203  0.6151
 1774TIP3    H126957   0.118   2.907   2.236  2.0924 -0.9351 -0.5319
 1774TIP3    H226958   0.237   2.978   2.296  0.5532  2.6399 -1.4834
 1775TIP3   OH226959   6.253   5.509   1.080  0.3904  0.4977  0.3545
 1775TIP3    H126960   6.270   5.424   1.041  0.2661  0.6837 -0.1094
 1775TIP3    H226961   6.322   5.520   1.146 -0.6543 -0.7732  1.7358
 1776TIP3   OH226962   5.996   6.315   7.346 -0.2270  0.2576  0.6340
 1776TIP3    H126963   5.998   6.221   7.326 -0.6467  0.1120  1.2220
 1776TIP3    H226964   6.087   6.337   7.367  0.2896  0.4869 -1.6187
 1777TIP3   OH226965   4.566   2.968   0.399  0.0712  0.6082  0.1947
 1777TIP3    H126966   4.517   2.893   0.366  1.7102 -0.2953 -0.3116
 1777TIP3    H226967   4.652   2.960   0.357  1.1787  1.2124  2.2280
 1778TIP3   OH226968   3.774   3.138   8.501 -0.4183  0.2211  0.5558
 1778TIP3    H126969   3.836   3.207   8.527 -0.0991  0.3247 -0.4456
 1778TIP3    H226970   3.785   3.129   8.407  0.3193 -1.9564  0.7869
 1779TIP3   OH226971   3.814   0.069   7.178 -0.0210 -0.2053 -0.2507
 1779TIP3    H126972   3.781   0.048   7.265 -1.2697 -0.0020 -0.6412
 1779TIP3    H226973   3.855  -0.012   7.148  0.2379 -0.3387  0.4401
 1780TIP3   OH226974   1.406   6.273   1.088 -0.7759  0.1991  0.0080
 1780TIP3    H126975   1.358   6.314   1.016  2.3531 -0.5366 -2.7726
 1780TIP3    H226976   1.355   6.196   1.110 -2.4731  1.1207 -0.5204
 1781TIP3   OH226977   0.584   2.515   1.139  0.4144 -0.1874 -0.0841
 1781TIP3    H126978   0.496   2.511   1.104  0.7326 -1.9582 -0.8050
 1781TIP3    H226979   0.640   2.535   1.064  0.4961  3.5472  0.7724
 1782TIP3   OH226980   1.386   1.354   0.500 -0.3035  0.0937  0.9395
 1782TIP3    H126981   1.415   1.444   0.488 -3.2513  0.8202 -2.5476
 1782TIP3    H226982   1.327   1.357   0.575 -0.0508  0.9542  1.1116
 1783TIP3   OH226983   2.589   4.877   0.979  0.0978 -0.2009 -0.6299
 1783TIP3    H126984   2.667   4.909   0.932  0.9780  0.8575  1.3853
 1783TIP3    H226985   2.578   4.941   1.050 -1.7465 -1.1755 -0.0047
 1784TIP3   OH226986   2.519   6.387   8.256  0.1313 -0.0010  0.0129
 1784TIP3    H126987   2.545   6.445   8.184  0.3920 -0.8755 -0.6052
 1784TIP3    H226988   2.448   6.334   8.220  1.6356 -1.8834 -0.2850
 1785TIP3   OH226989   5.633   4.282   0.984 -0.3546  0.8758  0.3035
 1785TIP3    H126990   5.613   4.320   1.070  1.0465 -1.2131  1.6420
 1785TIP3    H226991   5.587   4.198   0.983  0.3511  0.4784 -0.6363
 1786TIP3   OH226992   5.484   2.885   6.639 -0.1308 -0.4593 -0.9264
 1786TIP3    H126993   5.390   2.898   6.625 -0.4263 -0.9084  0.4956
 1786TIP3    H226994   5.522   2.971   6.623 -1.1206  0.3746  0.8780
 1787TIP3   OH226995   4.517   5.063   1.810  0.5793  0.4221  0.2758
 1787TIP3    H126996   4.575   5.139   1.802 -0.5422  1.1271 -1.5815
 1787TIP3    H226997   4.476   5.074   1.896  1.8616  0.8546  0.8580
 1788TIP3   OH226998   2.806   4.032   8.756 -0.2636  0.0944 -0.2538
 1788TIP3    H126999   2.773   4.120   8.738 -0.4471  0.3015  1.0256
 1788TIP3    H227000   2.900   4.038   8.740 -0.1557  0.7432  0.5672
 1789TIP3   OH227001   2.003   4.323   1.255  0.5091 -0.3405 -0.3434
 1789TIP3    H127002   2.043   4.409   1.244 -1.6629  0.7038 -0.5040
 1789TIP3    H227003   1.910   4.337   1.236  0.2766 -2.9654 -1.6132
 1790TIP3   OH227004   5.169   1.628   8.799 -0.1597  0.0387  0.3228
 1790TIP3    H127005   5.260   1.600   8.808 -0.0897 -0.1682 -0.8172
 1790TIP3    H227006   5.136   1.632   8.888  1.2399  1.0393  0.8301
 1791TIP3   OH227007   1.267   6.046   1.921  0.0562  0.3612  0.1539
 1791TIP3    H127008   1.177   6.039   1.891  0.0376 -0.9914  0.4925
 1791TIP3    H227009   1.319   6.049   1.840 -0.2892  1.3442 -0.0413
 1792TIP3   OH227010   5.182   4.615   8.846 -0.0311  0.2240  0.4002
 1792TIP3    H127011   5.109   4.652   8.898 -0.4295  1.0323 -0.6842
 1792TIP3    H227012   5.147   4.611   8.757  1.1475  0.2942 -0.0722
 1793TIP3   OH227013   3.364   1.110   7.038 -0.4777 -0.2072 -0.2097
 1793TIP3    H127014   3.282   1.141   7.076 -0.0923 -0.5712  0.9586
 1793TIP3    H227015   3.388   1.178   6.975 -1.6116 -0.0475 -0.4971
 1794TIP3   OH227016   5.851   2.003   6.704 -0.1816 -0.3434 -0.4297
 1794TIP3    H127017   5.945   1.994   6.723 -0.3980  0.4137  1.1884
 1794TIP3    H227018   5.830   1.926   6.651  0.8557 -1.8225  1.1894
 1795TIP3   OH227019   3.409   4.692   2.366 -0.0662 -0.5257 -0.2155
 1795TIP3    H127020   3.405   4.597   2.380  0.0227 -1.0455 -3.0198
 1795TIP3    H227021   3.318   4.720   2.364 -0.1014 -0.5969  0.4130
 1796TIP3   OH227022   1.352   4.016   1.301 -0.4680  0.7380 -0.0315
 1796TIP3    H127023   1.435   4.050   1.333 -0.4071 -0.0066  0.6433
 1796TIP3    H227024   1.292   4.027   1.375 -0.3265 -1.0224  0.3767
 1797TIP3   OH227025   3.108   0.418   7.711  0.3720 -0.3812  0.1374
 1797TIP3    H127026   3.128   0.363   7.787 -0.9837 -1.3948 -0.1870
 1797TIP3    H227027   3.083   0.502   7.748  1.4712 -0.2802  0.6990
 1798TIP3   OH227028   4.632   3.043   8.418  0.2179 -0.4359 -0.1670
 1798TIP3    H127029   4.537   3.045   8.408  0.0952  1.3707  0.9094
 1798TIP3    H227030   4.646   3.014   8.508  0.4736  2.7560  0.9420
 1799TIP3   OH227031   0.459   3.875   8.336  0.5947 -0.5815  0.1063
 1799TIP3    H127032   0.550   3.891   8.310  0.1628 -0.7298 -1.5984
 1799TIP3    H227033   0.416   3.960   8.328  0.3507 -0.7222 -0.0769
 1800TIP3   OH227034   3.062   2.035   8.233 -0.4234  0.1361 -0.5698
 1800TIP3    H127035   3.157   2.042   8.242 -0.5795  0.1330  1.6069
 1800TIP3    H227036   3.033   2.124   8.216 -0.1225  0.3852  0.1593
 1801TIP3   OH227037   3.478   2.043   8.686  0.3684  0.0217 -0.4609
 1801TIP3    H127038   3.434   2.074   8.765  0.5337 -0.3725 -0.2106
 1801TIP3    H227039   3.426   2.080   8.614 -0.7608 -0.9196 -0.1759
 1802TIP3   OH227040   4.678   1.139   1.478 -0.3063  0.3337  0.0146
 1802TIP3    H127041   4.608   1.086   1.516  1.0410 -1.5096  0.0578
 1802TIP3    H227042   4.725   1.079   1.421  0.2928  1.9592 -1.2705
 1803TIP3   OH227043   1.123   2.633   0.275  0.0073 -0.7159 -0.2424
 1803TIP3    H127044   1.157   2.669   0.193  1.7369 -1.4747  0.0820
 1803TIP3    H227045   1.046   2.582   0.250 -0.0126 -0.2001 -1.2574
 1804TIP3   OH227046   0.098   6.203   8.749 -0.3145 -0.2531  0.0744
 1804TIP3    H127047   0.066   6.114   8.733 -1.0829  0.1392 -0.6307
 1804TIP3    H227048   0.022   6.259   8.736  0.3419  0.5807 -0.3009
 1805TIP3   OH227049   2.055   5.926   7.518  0.2687 -0.4698  0.1808
 1805TIP3    H127050   2.105   5.925   7.436 -0.2710 -0.7722 -0.1507
 1805TIP3    H227051   2.116   5.890   7.584  1.0766  0.7889  0.1451
 1806TIP3   OH227052   5.020   3.406   1.880 -0.4564  0.0876  0.0772
 1806TIP3    H127053   5.106   3.386   1.916 -1.0710 -2.2477  0.4129
 1806TIP3    H227054   4.986   3.476   1.936  1.1294  0.9284  0.0307
 1807TIP3   OH227055   1.305   5.226   7.813  0.4179  0.6426 -0.5559
 1807TIP3    H127056   1.371   5.169   7.852 -0.3153 -0.9037 -1.4819
 1807TIP3    H227057   1.264   5.269   7.888  0.1510 -1.0093  0.2974
 1808TIP3   OH227058   4.245   3.569   0.828  0.0450 -0.4933  0.1406
 1808TIP3    H127059   4.308   3.618   0.880  2.5286 -4.2409  1.1145
 1808TIP3    H227060   4.253   3.605   0.740  2.1242  0.4991  0.6677
 1809TIP3   OH227061   0.441   2.300   2.619  0.4794  0.0423 -0.5164
 1809TIP3    H127062   0.402   2.362   2.681 -0.0863 -2.0089  1.2658
 1809TIP3    H227063   0.533   2.326   2.615  0.4490  0.4795  0.9104
 1810TIP3   OH227064   2.941   0.365   1.931  0.0238 -0.2381  0.2070
 1810TIP3    H127065   2.964   0.365   2.023  0.9641 -0.7322 -0.0252
 1810TIP3    H227066   2.894   0.282   1.917  0.3964 -0.4321  0.1121
 1811TIP3   OH227067   1.268   4.115   8.682 -0.2095  0.1486 -0.2657
 1811TIP3    H127068   1.353   4.086   8.715 -0.7995 -0.3714  0.8861
 1811TIP3    H227069   1.258   4.071   8.597  0.6805  0.2479 -0.4253
 1812TIP3   OH227070   4.704   4.254   1.392 -0.0301  0.6818 -0.8732
 1812TIP3    H127071   4.699   4.246   1.297 -0.9854  0.1044 -0.7872
 1812TIP3    H227072   4.619   4.290   1.418  0.6055  1.8641 -0.3165
 1813TIP3   OH227073   4.995   1.437   0.329  0.1715 -0.1321 -0.2599
 1813TIP3    H127074   4.911   1.449   0.373 -0.3912  1.6828 -1.6980
 1813TIP3    H227075   5.010   1.343   0.332 -0.9392 -0.3053  1.7429
 1814TIP3   OH227076   0.523   5.357   8.175  0.0430 -0.0286  0.1527
 1814TIP3    H127077   0.556   5.338   8.087 -1.5224  0.7047 -0.6326
 1814TIP3    H227078   0.489   5.446   8.169 -2.4435 -0.8491  0.7378
 1815TIP3   OH227079   4.599   0.478   7.990  0.1287  0.6231  0.4659
 1815TIP3    H127080   4.562   0.498   8.076 -0.8261  0.6081  0.0692
 1815TIP3    H227081   4.615   0.564   7.950 -0.7594  0.6406  0.1149
 1816TIP3   OH227082   4.919   3.666   8.845  0.2209  0.1963 -0.0211
 1816TIP3    H127083   4.882   3.667   8.933  3.0643 -1.4851  1.3440
 1816TIP3    H227084   4.991   3.729   8.850 -2.1565  3.4706 -2.6002
 1817TIP3   OH227085   2.966   2.366   0.600  0.6930  0.1840 -0.3923
 1817TIP3    H127086   2.945   2.387   0.691 -2.1722  0.4084 -0.9776
 1817TIP3    H227087   2.970   2.452   0.556  1.0396  0.0404 -0.6411
 1818TIP3   OH227088   3.704   6.379   7.410  0.2704 -0.2794 -0.2745
 1818TIP3    H127089   3.767   6.417   7.471 -2.4259 -1.7161  3.8758
 1818TIP3    H227090   3.638   6.447   7.398 -0.0999 -0.6124 -0.1487
 1819TIP3   OH227091   3.609   2.233   7.212 -0.4092  0.4670  0.5917
 1819TIP3    H127092   3.635   2.309   7.159 -2.5540  0.8133 -0.0661
 1819TIP3    H227093   3.633   2.157   7.159  0.9010  0.6865  0.8402
 1820TIP3   OH227094   6.526   2.475   1.518  0.1137  0.0497 -0.1106
 1820TIP3    H127095   6.590   2.538   1.552  0.0759  0.7648 -1.2986
 1820TIP3    H227096   6.452   2.530   1.490 -1.5018 -0.8235  2.1600
 1821TIP3   OH227097   2.419   1.810   6.788 -1.0695  0.3314  0.2478
 1821TIP3    H127098   2.466   1.810   6.871 -1.1351  0.9264  0.2942
 1821TIP3    H227099   2.341   1.758   6.804 -1.4899  1.1072  0.8144
 1822TIP3   OH227100   4.380   1.277   8.740  0.3696 -0.3053 -0.5304
 1822TIP3    H127101   4.362   1.189   8.707 -2.2586 -0.1413  0.2284
 1822TIP3    H227102   4.341   1.278   8.828 -0.7788  1.9403 -0.9871
 1823TIP3   OH227103   5.623   6.459   0.330  0.1115  0.0204 -0.0312
 1823TIP3    H127104   5.565   6.384   0.343  0.2440 -0.0991 -0.1302
 1823TIP3    H227105   5.696   6.424   0.280  0.3748  0.1210  0.2803
 1824TIP3   OH227106   1.173   2.285   8.492 -0.1293 -0.6276  0.2340
 1824TIP3    H127107   1.195   2.233   8.569 -0.6217 -1.5423 -0.2229
 1824TIP3    H227108   1.218   2.241   8.419 -0.9917 -0.7591 -0.2412
 1825TIP3   OH227109   2.231   4.850   8.381  0.5148 -0.2300 -0.2646
 1825TIP3    H127110   2.136   4.842   8.388  0.5075 -0.7281 -0.8315
 1825TIP3    H227111   2.249   4.941   8.405  0.1054 -0.6457  1.7542
 1826TIP3   OH227112   2.283   4.372   8.197  0.5474  0.1435  0.1590
 1826TIP3    H127113   2.212   4.436   8.187  0.2707 -0.1171  0.4330
 1826TIP3    H227114   2.277   4.343   8.288  2.4223  1.7442  0.8529
 1827TIP3   OH227115   5.395   3.241   7.270 -0.4014  0.1359 -0.7731
 1827TIP3    H127116   5.345   3.182   7.327  2.1294 -0.5011  0.9218
 1827TIP3    H227117   5.409   3.191   7.189 -0.1985 -0.7281 -0.2131
 1828TIP3   OH227118   2.686   4.220   0.465  0.1117 -0.4801 -0.2264
 1828TIP3    H127119   2.752   4.289   0.462  0.6813 -0.9282  1.1775
 1828TIP3    H227120   2.651   4.224   0.554  0.6687 -2.4490  0.1169
 1829TIP3   OH227121   4.551   0.958   7.888 -0.3111 -0.6908 -0.0545
 1829TIP3    H127122   4.533   1.039   7.936  0.5937 -0.4955 -0.0157
 1829TIP3    H227123   4.604   0.986   7.814  1.9600 -1.4774  1.1697
 1830TIP3   OH227124   0.398   0.853   8.266 -0.3261  0.5878 -0.0740
 1830TIP3    H127125   0.492   0.854   8.286  0.0052 -1.9814 -1.1236
 1830TIP3    H227126   0.355   0.881   8.346  1.2643 -0.4870  1.2047
 1831TIP3   OH227127   3.691   0.256   7.022 -0.1703  0.1628 -0.2126
 1831TIP3    H127128   3.616   0.297   7.067 -0.2492  0.0356 -0.2258
 1831TIP3    H227129   3.701   0.171   7.066 -0.0987  0.1363 -0.2805
 1832TIP3   OH227130   3.460   3.586   2.393  0.3371  0.0820  0.1889
 1832TIP3    H127131   3.441   3.524   2.464  0.7362 -0.1979  0.0549
 1832TIP3    H227132   3.374   3.613   2.360  0.1632 -0.4166  0.2338
 1833TIP3   OH227133   3.745   5.532   8.208  0.1520 -0.2119 -0.2872
 1833TIP3    H127134   3.701   5.615   8.192 -0.6232 -0.6043 -0.1986
 1833TIP3    H227135   3.826   5.556   8.253  2.1572  0.9309 -4.0321
 1834TIP3   OH227136   4.807   1.603   6.944 -0.1575  0.3800 -1.1863
 1834TIP3    H127137   4.733   1.663   6.931 -0.0312  0.4697 -1.4954
 1834TIP3    H227138   4.853   1.604   6.860 -1.0697 -1.3932 -1.7553
 1835TIP3   OH227139   6.342   4.412   0.340  0.0323  0.1442  0.1481
 1835TIP3    H127140   6.324   4.506   0.339  0.6960  0.2841  0.5471
 1835TIP3    H227141   6.428   4.403   0.299  0.6077 -0.1344  1.3793
 1836TIP3   OH227142   2.392   3.734   0.709 -0.6498  0.2155 -0.1759
 1836TIP3    H127143   2.345   3.659   0.673 -0.2384 -1.0025  1.7004
 1836TIP3    H227144   2.325   3.787   0.752 -0.8820  0.7676 -1.1752
 1837TIP3   OH227145   2.472   5.313   8.436  0.0806  0.0640 -0.1098
 1837TIP3    H127146   2.401   5.277   8.489  0.0923  0.7940  0.4185
 1837TIP3    H227147   2.433   5.329   8.351  0.1149 -1.3125 -0.4018
 1838TIP3   OH227148   4.474   3.183   1.741 -0.0322  0.0195 -0.0474
 1838TIP3    H127149   4.434   3.209   1.658 -0.4426 -0.9119 -0.1594
 1838TIP3    H227150   4.504   3.093   1.726  1.6251  0.4901  0.2175
 1839TIP3   OH227151   3.738   4.390   6.668  0.0660 -0.3567  0.2624
 1839TIP3    H127152   3.701   4.473   6.636  0.3133  0.6109  2.3234
 1839TIP3    H227153   3.673   4.324   6.644 -0.6334  0.5822 -0.5119
 1840TIP3   OH227154   3.191   5.178   0.145 -0.0575  0.1134  0.8630
 1840TIP3    H127155   3.153   5.208   0.227  0.0150  1.8985  0.2754
 1840TIP3    H227156   3.122   5.192   0.080  0.2285 -0.3554  0.4486
 1841TIP3   OH227157   4.783   5.977   8.490  0.7349  0.0494  0.3320
 1841TIP3    H127158   4.830   5.945   8.567  1.1153  0.3413  0.2243
 1841TIP3    H227159   4.847   6.030   8.443  0.7784 -0.8545 -0.6601
 1842TIP3   OH227160   4.947   3.802   7.876 -0.4463  0.1758  0.3934
 1842TIP3    H127161   4.878   3.847   7.826 -1.5293 -0.7891  0.9557
 1842TIP3    H227162   4.903   3.773   7.956  0.3814 -1.2538  0.3524
 1843TIP3   OH227163   2.391   4.701   7.447  0.3904 -0.5844 -0.0771
 1843TIP3    H127164   2.297   4.688   7.436  0.6682 -2.2449 -0.8518
 1843TIP3    H227165   2.403   4.796   7.447 -1.2830 -0.3433  0.1499
 1844TIP3   OH227166   1.268   2.759   1.731 -0.0334 -0.1767  0.2130
 1844TIP3    H127167   1.211   2.686   1.756 -2.2309  1.4272  0.2235
 1844TIP3    H227168   1.333   2.720   1.672 -0.9482 -2.1827  0.4510
 1845TIP3   OH227169   6.795   2.725   2.438 -0.1136 -0.1980 -0.2920
 1845TIP3    H127170   6.872   2.676   2.467 -0.4771 -1.2328 -1.0327
 1845TIP3    H227171   6.778   2.695   2.349 -0.7861  0.7569 -0.5113
 1846TIP3   OH227172   3.100   3.085   8.395  0.0063 -0.1119  0.4266
 1846TIP3    H127173   3.185   3.053   8.363 -0.8053 -1.2293 -0.7212
 1846TIP3    H227174   3.057   3.008   8.433 -0.2877  0.5628  1.5081
 1847TIP3   OH227175   0.954   4.576   0.757 -0.0234 -0.4220 -0.4028
 1847TIP3    H127176   0.934   4.655   0.706 -0.0962 -1.7642 -2.5801
 1847TIP3    H227177   0.945   4.604   0.848  0.3441  2.1768 -1.0672
 1848TIP3   OH227178   0.886   4.186   1.841 -0.2316 -0.4352  0.1919
 1848TIP3    H127179   0.831   4.187   1.920  0.7172 -3.0447  1.0156
 1848TIP3    H227180   0.845   4.120   1.785 -0.2921  0.6510 -1.0819
 1849TIP3   OH227181   5.192   5.280   8.847 -0.6864 -0.7427  0.1238
 1849TIP3    H127182   5.104   5.246   8.864 -0.0781 -1.7425  1.3827
 1849TIP3    H227183   5.206   5.263   8.754 -2.3462  0.7288 -0.4592
 1850TIP3   OH227184   3.054   6.442   0.658 -0.4978  0.1524 -0.1586
 1850TIP3    H127185   3.011   6.527   0.649 -1.3692 -0.2817 -0.2025
 1850TIP3    H227186   3.027   6.410   0.744  0.9787  0.5306  0.4853
 1851TIP3   OH227187   3.890   3.256   0.193  0.4760  0.0921 -0.6816
 1851TIP3    H127188   3.811   3.261   0.139  1.3268 -1.0643 -2.1040
 1851TIP3    H227189   3.857   3.257   0.283 -1.0611  0.9421 -1.2074
 1852TIP3   OH227190   3.141   3.887   7.653  0.4263  0.1194  0.1533
 1852TIP3    H127191   3.207   3.881   7.721 -0.9326  0.4070  1.5573
 1852TIP3    H227192   3.067   3.835   7.686  0.7392 -2.2015 -2.4188
 1853TIP3   OH227193   5.620   1.925   0.519 -0.6727 -0.4351 -0.0825
 1853TIP3    H127194   5.662   1.933   0.605 -0.0737 -1.1434 -0.2937
 1853TIP3    H227195   5.549   1.989   0.520  0.6371  1.0687  0.1588
 1854TIP3   OH227196   4.721   0.711   7.206 -0.2893  0.0807  1.2036
 1854TIP3    H127197   4.679   0.788   7.243 -1.1926 -0.2933  0.9896
 1854TIP3    H227198   4.747   0.659   7.282  1.7767  1.3191  1.3917
 1855TIP3   OH227199   2.521   6.536   6.669  0.5207  0.2492 -0.3791
 1855TIP3    H127200   2.540   6.535   6.762 -0.7551 -0.6321 -0.1011
 1855TIP3    H227201   2.527   6.628   6.644  1.6844  0.3943  0.3739
 1856TIP3   OH227202   5.979   2.548   1.893  0.2512  0.6898  0.8409
 1856TIP3    H127203   5.935   2.509   1.817 -0.6967 -0.0116  1.7166
 1856TIP3    H227204   5.927   2.519   1.968  1.2140  1.3003  1.7727
 1857TIP3   OH227205   6.577   0.294   8.666  0.2839  0.4403  0.4907
 1857TIP3    H127206   6.541   0.380   8.687  3.7023  1.9802  0.7067
 1857TIP3    H227207   6.605   0.302   8.575 -0.2814 -0.8457  0.1849
 1858TIP3   OH227208   6.715   0.770   8.061  0.7799  0.6845 -0.1332
 1858TIP3    H127209   6.700   0.676   8.071  0.9844  0.5956 -0.6475
 1858TIP3    H227210   6.632   0.810   8.087 -0.2483  0.2309 -2.4277
 1859TIP3   OH227211   3.788   0.848   0.475  0.2050 -0.3757 -0.2223
 1859TIP3    H127212   3.777   0.914   0.544  2.4322 -0.9962  0.8303
 1859TIP3    H227213   3.782   0.897   0.394  0.3058  0.8663  0.4977
 1860TIP3   OH227214   2.947   1.315   7.072 -0.0298  0.6274  0.4238
 1860TIP3    H127215   2.870   1.260   7.081 -0.0324  0.1283 -1.9780
 1860TIP3    H227216   2.917   1.404   7.091 -1.0268  0.3449  0.1833
 1861TIP3   OH227217   0.504   4.111   0.428 -0.4075  0.0417 -0.3279
 1861TIP3    H127218   0.517   4.091   0.520 -1.1920  0.2605 -0.1624
 1861TIP3    H227219   0.499   4.206   0.424  1.0338  0.1226 -0.8018
 1862TIP3   OH227220   0.917   6.230   0.614 -0.7824  0.1665  0.6632
 1862TIP3    H127221   0.929   6.182   0.696  1.1434 -0.2073  0.2123
 1862TIP3    H227222   0.974   6.306   0.623  0.5378 -0.5975 -0.8377
 1863TIP3   OH227223   4.077   1.641   7.874  0.0337 -0.2227  1.1613
 1863TIP3    H127224   4.048   1.593   7.797  0.4476  0.2290  0.7116
 1863TIP3    H227225   4.102   1.574   7.937 -1.1743 -0.6108  1.2497
 1864TIP3   OH227226   6.438   0.297   0.170  0.4072  0.4811  0.1123
 1864TIP3    H127227   6.362   0.288   0.112 -0.3493  1.2264  0.9481
 1864TIP3    H227228   6.414   0.368   0.230  1.3871  0.1095  0.9816
 1865TIP3   OH227229   3.005   5.403   7.361  0.0398  0.3989  0.2714
 1865TIP3    H127230   3.068   5.370   7.425 -0.9752  1.9207  2.1532
 1865TIP3    H227231   3.046   5.482   7.325 -0.3758  0.8734  0.8208
 1866TIP3   OH227232   6.367   6.203   0.137 -0.2463  0.2999  0.1708
 1866TIP3    H127233   6.276   6.233   0.141 -1.2057 -2.4388  3.5248
 1866TIP3    H227234   6.364   6.125   0.082 -0.7490 -1.7529  2.9255
 1867TIP3   OH227235   4.758   1.675   2.305  0.2535 -0.2186 -0.5757
 1867TIP3    H127236   4.851   1.688   2.323  0.3914 -0.4131 -1.1353
 1867TIP3    H227237   4.739   1.734   2.232  0.1826 -0.9463 -1.1511
 1868TIP3   OH227238   2.070   4.354   2.195 -0.4194  0.0456 -0.4763
 1868TIP3    H127239   2.094   4.290   2.261 -1.8943  1.6294  1.7415
 1868TIP3    H227240   1.975   4.360   2.200 -0.4836  0.9680 -2.0387
 1869TIP3   OH227241   4.520   6.761   8.430 -0.3444 -0.0280 -0.0688
 1869TIP3    H127242   4.548   6.693   8.369  1.0152  0.5871 -0.1546
 1869TIP3    H227243   4.448   6.721   8.479 -1.5781 -0.5064 -2.1324
 1870TIP3   OH227244   1.573   6.254   7.936  0.5109 -0.3225 -0.2107
 1870TIP3    H127245   1.490   6.295   7.911  1.9178  0.7807 -3.6052
 1870TIP3    H227246   1.616   6.320   7.990  0.7424  0.8068 -1.6921
 1871TIP3   OH227247   6.451   2.168   0.007 -0.3593 -0.1544  0.0631
 1871TIP3    H127248   6.540   2.168  -0.029 -1.6812 -1.3135 -3.6512
 1871TIP3    H227249   6.432   2.075   0.023 -0.6560  0.1555  1.7574
 1872TIP3   OH227250   6.578   1.156   1.697  1.1817 -0.0959  0.4113
 1872TIP3    H127251   6.598   1.165   1.790 -4.2938 -1.4203  2.0969
 1872TIP3    H227252   6.566   1.062   1.684 -0.4393  0.2404 -0.9221
 1873TIP3   OH227253   1.469   3.241   0.891 -0.4725  0.2509 -0.0576
 1873TIP3    H127254   1.505   3.213   0.975 -2.7018 -0.1233  0.8435
 1873TIP3    H227255   1.505   3.178   0.828  1.9044  1.0403  0.3971
 1874TIP3   OH227256   5.559   4.946   8.600 -0.1199  0.6369  0.4478
 1874TIP3    H127257   5.573   4.944   8.505  3.7117 -0.8520  0.8827
 1874TIP3    H227258   5.512   4.865   8.619 -0.0981  0.4938 -0.0937
 1875TIP3   OH227259   5.862   6.360   0.209 -0.1271  0.4142 -0.5942
 1875TIP3    H127260   5.903   6.293   0.153 -0.3051 -0.8933  0.7925
 1875TIP3    H227261   5.934   6.417   0.234  0.9191 -1.6648  1.5447
 1876TIP3   OH227262   0.080   0.387   8.242  1.0900  0.9873  0.0695
 1876TIP3    H127263   0.057   0.475   8.271  1.0696  0.3376  2.2361
 1876TIP3    H227264   0.168   0.373   8.277 -0.4289 -1.2796  3.5713
 1877TIP3   OH227265   2.285   5.441   0.649  0.2122  0.1039  0.1306
 1877TIP3    H127266   2.267   5.451   0.742  0.7170  0.3065  0.2058
 1877TIP3    H227267   2.198   5.432   0.609 -0.0317  0.5638  0.5510
 1878TIP3   OH227268   4.642   4.719   1.081 -0.1471  0.1807 -0.4405
 1878TIP3    H127269   4.658   4.813   1.092 -1.5953  0.5536 -1.2544
 1878TIP3    H227270   4.647   4.705   0.986  1.0634 -0.7902 -0.2689
 1879TIP3   OH227271   1.113   0.012   1.098  0.1081 -0.0953  0.1378
 1879TIP3    H127272   1.148   0.078   1.158 -2.8658  1.4079  0.3822
 1879TIP3    H227273   1.101   0.058   1.015  1.0226 -1.2554 -0.6634
 1880TIP3   OH227274   0.565   5.628   1.285  0.4010 -0.0297  0.4049
 1880TIP3    H127275   0.506   5.588   1.221 -0.2576  1.3704  0.1004
 1880TIP3    H227276   0.510   5.651   1.359  0.3727  1.8818 -0.1437
 1881TIP3   OH227277   2.909   4.381   7.940 -0.0547  0.9878  0.1082
 1881TIP3    H127278   2.924   4.352   8.029  1.6160  0.2223 -0.3952
 1881TIP3    H227279   2.818   4.413   7.940 -0.4163  0.0544  1.8044
 1882TIP3   OH227280   5.613   5.968   7.876 -0.4553 -0.3503  0.5022
 1882TIP3    H127281   5.660   6.013   7.946 -0.2143 -0.6357  0.5234
 1882TIP3    H227282   5.665   5.889   7.858 -0.2394 -0.0194 -0.3543
 1883TIP3   OH227283   5.018   3.657   8.137  0.2094  0.2750 -0.2151
 1883TIP3    H127284   4.988   3.587   8.196  1.6968  0.1015  0.3875
 1883TIP3    H227285   4.941   3.711   8.123 -0.2110  0.3705  2.0073
 1884TIP3   OH227286   0.461   5.990   8.730  0.7904 -0.2035  0.3431
 1884TIP3    H127287   0.409   5.987   8.810 -0.0727  0.3031 -0.1893
 1884TIP3    H227288   0.519   6.065   8.741 -0.3930  0.8170 -0.1274
 1885TIP3   OH227289   3.754   0.923   8.911 -0.1561 -0.4966  0.3868
 1885TIP3    H127290   3.688   0.989   8.892  0.8817  0.3261 -0.5122
 1885TIP3    H227291   3.805   0.916   8.830  0.2421 -1.8326  0.7281
 1886TIP3   OH227292   4.650   6.731   6.971  0.2440  0.2633  0.3345
 1886TIP3    H127293   4.681   6.684   7.048 -1.5432 -1.8300 -0.1105
 1886TIP3    H227294   4.611   6.811   7.006  2.0932  0.8061  1.2695
 1887TIP3   OH227295   3.753   3.001   0.765  0.5704 -0.0826 -0.2609
 1887TIP3    H127296   3.817   2.954   0.819  2.0283  2.2103  0.1283
 1887TIP3    H227297   3.698   3.048   0.828 -1.6782 -2.0749 -0.5808
 1888TIP3   OH227298   1.358   4.073   0.531 -0.0294 -0.4769  0.1492
 1888TIP3    H127299   1.385   4.064   0.623 -0.6785  0.0445  0.4021
 1888TIP3    H227300   1.440   4.070   0.482  0.6175  1.7886  0.9466
 1889TIP3   OH227301   5.693   1.276   6.425  0.0221 -0.0982 -0.5745
 1889TIP3    H127302   5.759   1.219   6.464  0.6066  1.7577  1.2686
 1889TIP3    H227303   5.690   1.353   6.481 -2.8166  0.4709 -1.3118
 1890TIP3   OH227304   6.532   3.846   7.259 -0.1628 -0.3275 -0.0711
 1890TIP3    H127305   6.524   3.906   7.333  0.1250 -0.3694 -0.0052
 1890TIP3    H227306   6.553   3.762   7.299  0.8357 -0.1761 -0.2470
 1891TIP3   OH227307   1.718   3.119   8.569  0.8920  0.0373  0.0836
 1891TIP3    H127308   1.690   3.148   8.656 -1.1763  0.6069 -0.7294
 1891TIP3    H227309   1.697   3.192   8.511 -0.5588 -1.4225 -1.3465
 1892TIP3   OH227310   5.378   3.695   0.079  0.6421 -0.1622 -0.3423
 1892TIP3    H127311   5.433   3.766   0.045  0.5524  0.0319 -0.0836
 1892TIP3    H227312   5.339   3.656   0.001  0.0919  0.5628 -0.4415
 1893TIP3   OH227313   0.766   2.318   8.436 -0.6671  0.3385 -0.1521
 1893TIP3    H127314   0.672   2.337   8.439 -0.8424 -0.6066  0.5956
 1893TIP3    H227315   0.772   2.227   8.407  0.0757  0.7383 -1.3175
 1894TIP3   OH227316   1.396   2.631   6.726  0.1516 -0.3992  0.3907
 1894TIP3    H127317   1.388   2.538   6.746  0.0831 -0.9977 -2.0723
 1894TIP3    H227318   1.489   2.643   6.705 -0.0816 -0.2296 -0.5924
 1895TIP3   OH227319   4.501   2.105   1.333  0.1723 -0.1795 -0.7096
 1895TIP3    H127320   4.420   2.091   1.284 -0.6127  0.7205  0.2843
 1895TIP3    H227321   4.516   2.022   1.378 -0.2377 -0.3238 -0.8293
 1896TIP3   OH227322   5.680   2.340   0.492  0.3426 -0.0027 -0.1178
 1896TIP3    H127323   5.720   2.281   0.556  0.3734  0.6908  0.5219
 1896TIP3    H227324   5.617   2.391   0.543  0.5147  0.7107 -0.6025
 1897TIP3   OH227325   0.727   4.411   0.536 -0.3885  0.2371 -0.1223
 1897TIP3    H127326   0.660   4.356   0.578 -0.3862 -0.8061 -1.4189
 1897TIP3    H227327   0.809   4.366   0.553 -0.2156  0.6005  0.0070
 1898TIP3   OH227328   3.170   6.436   7.834 -0.0470  0.0551 -0.2246
 1898TIP3    H127329   3.106   6.415   7.766 -1.3861 -2.8567  1.7613
 1898TIP3    H227330   3.247   6.383   7.812  0.4459  0.9109 -0.6713
 1899TIP3   OH227331   2.067   2.500   8.111 -0.2182 -0.4985 -0.6208
 1899TIP3    H127332   2.022   2.420   8.138  0.0732 -0.5333 -0.2281
 1899TIP3    H227333   2.155   2.472   8.086 -0.0003 -0.2578 -0.1377
 1900TIP3   OH227334   3.622   0.122   8.839  0.1235 -0.1308  0.4252
 1900TIP3    H127335   3.579   0.044   8.804  0.8903 -0.3974  0.0438
 1900TIP3    H227336   3.647   0.097   8.928  1.9730 -1.0009 -0.2796
 1901TIP3   OH227337   1.903   0.240   8.154 -0.1534 -0.4625 -0.2955
 1901TIP3    H127338   1.809   0.228   8.167 -0.2012  1.7635  2.1212
 1901TIP3    H227339   1.943   0.165   8.198 -0.7649  0.5555  2.1407
 1902TIP3   OH227340   2.198   5.078   8.786 -0.5259 -0.5897 -0.1490
 1902TIP3    H127341   2.247   5.008   8.742 -1.7840 -0.1456 -2.4331
 1902TIP3    H227342   2.114   5.038   8.809 -0.1513 -0.6068  1.2484
 1903TIP3   OH227343   0.954   5.676   1.345  0.7491 -0.4282 -0.3714
 1903TIP3    H127344   0.889   5.701   1.280 -2.2169 -1.1210  2.0541
 1903TIP3    H227345   1.010   5.752   1.355 -1.5538  1.4030 -0.5546
 1904TIP3   OH227346   0.221   3.354   3.106 -0.3908  0.5207 -0.1899
 1904TIP3    H127347   0.193   3.305   3.029 -0.5181  0.6537 -0.2295
 1904TIP3    H227348   0.154   3.422   3.117  0.0389  0.9830 -0.4104
 1905TIP3   OH227349   0.331   0.042   7.711  0.2851 -0.2443 -0.7126
 1905TIP3    H127350   0.236   0.056   7.709 -0.0642 -1.7211  1.5240
 1905TIP3    H227351   0.340  -0.053   7.700  1.6139 -0.0162 -1.8906
 1906TIP3   OH227352   5.154   3.077   1.482 -0.7570  0.0131 -0.4999
 1906TIP3    H127353   5.141   3.169   1.457  0.7425  0.2454 -0.5357
 1906TIP3    H227354   5.195   3.083   1.569  1.0849 -0.5443 -1.2986
 1907TIP3   OH227355   4.103   3.529   8.564 -0.0409  0.0818  0.2308
 1907TIP3    H127356   4.115   3.556   8.655  0.5316  0.5879  0.0135
 1907TIP3    H227357   4.190   3.502   8.535  0.0298  1.0587 -0.5167
 1908TIP3   OH227358   3.851   3.425   8.553 -0.1384  0.3775  0.5103
 1908TIP3    H127359   3.791   3.474   8.497  0.9788 -2.5135 -3.6506
 1908TIP3    H227360   3.934   3.473   8.546 -0.4536  1.1171  1.4834
 1909TIP3   OH227361   0.981   3.781   2.316  0.3064 -0.6283 -0.1577
 1909TIP3    H127362   1.014   3.757   2.403 -1.9967 -0.9184  0.6930
 1909TIP3    H227363   1.031   3.725   2.256  1.2202 -1.1674  1.0540
 1910TIP3   OH227364   3.335   3.276   0.420 -0.3828 -0.3281 -0.1933
 1910TIP3    H127365   3.349   3.257   0.513 -0.4875 -2.1872 -0.5083
 1910TIP3    H227366   3.406   3.335   0.396  1.2266 -1.8892  0.5040
 1911TIP3   OH227367   5.119   5.704   0.492 -0.3030  0.6580 -0.5260
 1911TIP3    H127368   5.114   5.775   0.556 -0.1683 -1.0216  1.4451
 1911TIP3    H227369   5.056   5.639   0.522  1.9130 -1.5458 -0.2550
 1912TIP3   OH227370   0.133   2.645   0.750  0.1039  1.1482  0.2735
 1912TIP3    H127371   0.069   2.582   0.783 -0.9152  2.1484  0.2492
 1912TIP3    H227372   0.218   2.606   0.771 -0.5077  0.2460  1.1553
 1913TIP3   OH227373   1.818   5.874   1.196 -0.0381  0.4202  0.0123
 1913TIP3    H127374   1.829   5.780   1.181 -0.0356  0.5508 -0.8700
 1913TIP3    H227375   1.779   5.880   1.283 -1.0064 -0.4597 -0.3392
 1914TIP3   OH227376   4.208   2.101   0.170 -0.5854 -0.1672 -0.4182
 1914TIP3    H127377   4.292   2.097   0.124 -0.2174 -0.1139  0.2405
 1914TIP3    H227378   4.144   2.076   0.104 -0.0096 -0.6309 -0.8173
 1915TIP3   OH227379   2.790   6.096   0.331  0.8946  0.0660 -0.4192
 1915TIP3    H127380   2.746   6.168   0.286  1.3127  0.4298 -0.2559
 1915TIP3    H227381   2.878   6.093   0.293  0.7809 -0.5603 -0.6414
 1916TIP3   OH227382   1.589   3.331   7.366 -0.4649 -0.7549 -0.7690
 1916TIP3    H127383   1.612   3.407   7.420 -0.2220 -1.2762 -0.1275
 1916TIP3    H227384   1.494   3.325   7.372 -0.6673  0.4192 -2.0938
 1917TIP3   OH227385   0.260   0.997   6.538 -0.0056 -0.1316  0.0360
 1917TIP3    H127386   0.269   1.075   6.483 -1.8150 -0.7486 -1.2423
 1917TIP3    H227387   0.204   1.025   6.610 -1.5509 -0.4371 -0.9845
 1918TIP3   OH227388   4.427   2.427   1.448  0.5578  0.0827  0.2649
 1918TIP3    H127389   4.441   2.395   1.359  0.2663  1.2527 -0.2177
 1918TIP3    H227390   4.507   2.476   1.468  1.6727 -2.1370  1.5771
 1919TIP3   OH227391   6.377   4.019   0.924 -0.2632  0.0694 -0.0783
 1919TIP3    H127392   6.357   3.962   0.849  0.6606  1.3853 -1.3916
 1919TIP3    H227393   6.360   4.108   0.892  1.1386  0.7426  0.9189
 1920TIP3   OH227394   0.951   2.323   0.611 -0.5475 -0.5865 -0.5750
 1920TIP3    H127395   0.990   2.239   0.635 -1.3834 -0.9862 -0.5807
 1920TIP3    H227396   1.020   2.368   0.562 -0.5053 -1.7908 -1.6723
 1921TIP3   OH227397   5.372   5.730   7.071  0.2607  0.0758  0.5727
 1921TIP3    H127398   5.386   5.637   7.054  1.2351  0.5217 -1.4831
 1921TIP3    H227399   5.460   5.766   7.082  0.0163  0.9531 -0.1131
 1922TIP3   OH227400   2.511   3.897   8.350 -0.2166 -0.1675 -0.3109
 1922TIP3    H127401   2.591   3.935   8.388  0.1673 -1.5994  0.3696
 1922TIP3    H227402   2.538   3.868   8.262  0.4357 -1.8937  0.4107
 1923TIP3   OH227403   4.655   0.812   8.106  0.1276  0.2158 -0.5240
 1923TIP3    H127404   4.606   0.841   8.030 -0.0735  0.9814 -0.1068
 1923TIP3    H227405   4.723   0.878   8.118 -1.6569  1.7895  1.7347
 1924TIP3   OH227406   4.643   1.230   7.378 -0.1697 -0.0278  0.1513
 1924TIP3    H127407   4.591   1.248   7.456 -0.2435 -0.4448  0.2013
 1924TIP3    H227408   4.594   1.270   7.306 -0.5224 -0.3563  0.2070
 1925TIP3   OH227409   3.371   4.035   8.028 -0.9586 -0.5589 -0.0090
 1925TIP3    H127410   3.424   4.004   8.102  0.4410  1.5308 -0.0345
 1925TIP3    H227411   3.308   4.095   8.068 -1.3131 -0.7261 -0.3210
 1926TIP3   OH227412   6.437   4.131   7.351 -0.7248 -0.0386 -0.4721
 1926TIP3    H127413   6.456   4.108   7.442  0.9692  0.5867 -0.6277
 1926TIP3    H227414   6.435   4.227   7.351 -0.1433 -0.0159 -1.1823
 1927TIP3   OH227415   6.198   5.917   0.331  0.1121 -0.0076 -0.0505
 1927TIP3    H127416   6.267   5.912   0.397  1.5765  1.6684 -1.3634
 1927TIP3    H227417   6.171   6.009   0.332 -0.4216 -0.1355 -1.2073
 1928TIP3   OH227418   1.822   0.780   8.854 -0.4046  0.2596  0.3219
 1928TIP3    H127419   1.893   0.843   8.845 -1.2390  0.9275 -2.2486
 1928TIP3    H227420   1.792   0.763   8.765 -3.6607  0.2482  1.2656
 1929TIP3   OH227421   5.656   3.224   0.867  0.1651 -0.4470 -0.0637
 1929TIP3    H127422   5.653   3.259   0.778 -0.0957  1.4357  0.6400
 1929TIP3    H227423   5.691   3.296   0.919  0.1930 -1.4801  1.3902
 1930TIP3   OH227424   2.443   0.463   7.117 -0.3201  0.4575 -0.3666
 1930TIP3    H127425   2.524   0.414   7.132 -0.8634  0.1662  2.0326
 1930TIP3    H227426   2.462   0.520   7.042  0.2865 -3.5266 -3.6445
 1931TIP3   OH227427   4.788   3.019   7.878 -0.0506  0.3880  0.0903
 1931TIP3    H127428   4.763   3.030   7.970  0.0412 -1.6666  0.4132
 1931TIP3    H227429   4.882   3.035   7.876 -0.0284  0.2948  0.3840
 1932TIP3   OH227430   1.186   2.615   8.434 -0.2018  0.2163 -0.1531
 1932TIP3    H127431   1.164   2.673   8.361 -2.0065  0.8841  0.8407
 1932TIP3    H227432   1.142   2.533   8.413 -2.8705  1.1512  1.2146
 1933TIP3   OH227433   3.405   3.426   2.620  0.4526 -0.0347 -0.1377
 1933TIP3    H127434   3.392   3.393   2.709 -1.0148 -1.0726 -0.6792
 1933TIP3    H227435   3.342   3.498   2.611 -0.4036 -0.8129 -0.7167
 1934TIP3   OH227436   5.750   5.401   0.885  0.2963 -0.4234  0.3900
 1934TIP3    H127437   5.828   5.366   0.928  0.3308 -0.2480  0.4728
 1934TIP3    H227438   5.760   5.378   0.793  0.3756 -0.5290  0.4254
 1935TIP3   OH227439   3.924   1.634   0.620  0.0076  0.2344  0.0433
 1935TIP3    H127440   3.892   1.556   0.575  0.5229  0.1307 -0.1457
 1935TIP3    H227441   3.908   1.616   0.713 -1.6505  0.7188 -0.1218
 1936TIP3   OH227442   6.775   3.185   2.513  0.4511 -0.1047  0.1749
 1936TIP3    H127443   6.696   3.226   2.548  0.6401  1.4537 -1.1039
 1936TIP3    H227444   6.847   3.224   2.562  0.4861 -1.1215  0.9656
 1937TIP3   OH227445   2.791   4.497   7.091  0.4536  0.6375  0.4038
 1937TIP3    H127446   2.797   4.495   7.187  0.7629 -2.1644  0.4068
 1937TIP3    H227447   2.867   4.448   7.061 -0.1954  0.5821 -1.2324
 1938TIP3   OH227448   5.127   4.037   7.841  0.2386 -0.6850  0.0938
 1938TIP3    H127449   5.099   3.948   7.863  1.1151 -0.8937  0.4183
 1938TIP3    H227450   5.177   4.027   7.761  0.4224 -0.5007  0.1854
 1939TIP3   OH227451   0.738   6.434   1.027 -0.2265  0.0514 -0.0917
 1939TIP3    H127452   0.736   6.476   0.941  0.1150 -0.1319 -0.1913
 1939TIP3    H227453   0.780   6.498   1.084 -0.4864  0.1872 -0.0521
 1940TIP3   OH227454   1.903   3.331   1.569 -0.1869  0.4931  0.4330
 1940TIP3    H127455   1.871   3.250   1.529  2.1021  0.1440 -0.8540
 1940TIP3    H227456   1.853   3.401   1.525  0.8488 -0.0094 -1.6578
 1941TIP3   OH227457   3.241   3.650   2.625 -0.1545 -0.7386  0.1404
 1941TIP3    H127458   3.279   3.738   2.622  0.5530 -1.0098  0.6711
 1941TIP3    H227459   3.198   3.639   2.540 -0.9072  0.4011  0.3654
 1942TIP3   OH227460   5.870   6.082   0.100  0.4790 -0.1194  0.0546
 1942TIP3    H127461   5.853   6.020   0.171  2.8697  1.1815  1.9483
 1942TIP3    H227462   5.960   6.063   0.072  0.8459  1.6541 -0.1215
 1943TIP3   OH227463   0.641   1.228   1.043 -0.4967 -0.3670  0.0849
 1943TIP3    H127464   0.668   1.317   1.066 -0.5349 -0.1570 -0.6721
 1943TIP3    H227465   0.715   1.190   0.996 -0.9335 -0.3004 -0.6840
 1944TIP3   OH227466   3.402   2.031   0.276 -0.6476 -0.3995  0.3159
 1944TIP3    H127467   3.399   2.066   0.187 -0.9167  0.3767  0.6266
 1944TIP3    H227468   3.472   1.965   0.273  0.7767  1.0605  0.0380
 1945TIP3   OH227469   3.017   2.321   1.522 -0.1588 -0.4257 -0.3205
 1945TIP3    H127470   2.997   2.233   1.553 -0.2001  0.5907  2.8129
 1945TIP3    H227471   2.932   2.363   1.511 -0.0915 -0.0696  0.4753
 1946TIP3   OH227472   4.518   1.536   0.062  0.1498  0.1367  0.2429
 1946TIP3    H127473   4.476   1.511   0.144 -0.6399 -1.3036 -0.5548
 1946TIP3    H227474   4.541   1.453   0.020  0.1492  0.8131 -1.1763
 1947TIP3   OH227475   5.523   5.425   1.522 -0.3186 -0.0887  0.3556
 1947TIP3    H127476   5.498   5.334   1.534 -0.1127 -0.3119 -0.7222
 1947TIP3    H227477   5.497   5.469   1.603  0.5434 -1.2997  1.3112
 1948TIP3   OH227478   2.332   0.945   7.293 -0.3150  0.3868  0.4350
 1948TIP3    H127479   2.304   1.037   7.287 -1.3804  0.1177  0.8960
 1948TIP3    H227480   2.291   0.902   7.218  0.8459  0.4322 -0.2400
 1949TIP3   OH227481   0.603   1.179   8.368 -0.4469  0.0504 -0.3596
 1949TIP3    H127482   0.522   1.180   8.419  0.9004 -2.3326  2.0984
 1949TIP3    H227483   0.653   1.254   8.401  0.4621 -1.5333  2.1256
 1950TIP3   OH227484   3.025   4.389   1.753 -0.7031 -0.5833 -0.6858
 1950TIP3    H127485   3.062   4.329   1.817 -0.5548 -1.1164 -1.2593
 1950TIP3    H227486   2.941   4.416   1.790  0.4403  1.0678  0.8995
 1951TIP3   OH227487   0.954   2.472   7.636  0.4956  0.2887 -0.9449
 1951TIP3    H127488   0.966   2.525   7.557  0.9988 -0.6410 -1.5203
 1951TIP3    H227489   1.028   2.496   7.692  1.9615 -1.3014 -2.0987
 1952TIP3   OH227490   4.232   2.355   1.868  0.1732  1.3629  0.4305
 1952TIP3    H127491   4.242   2.380   1.960  0.9407  2.7661  0.0047
 1952TIP3    H227492   4.271   2.428   1.819  0.7930  0.1455 -0.9833
 1953TIP3   OH227493   4.008   3.500   2.425 -0.2668  0.1204 -0.7559
 1953TIP3    H127494   3.915   3.507   2.445 -0.5086  0.9954 -2.0445
 1953TIP3    H227495   4.049   3.478   2.508 -1.2240  3.1912  0.6798
 1954TIP3   OH227496   3.301   6.269   1.535 -0.1265  0.2173 -0.0155
 1954TIP3    H127497   3.226   6.287   1.592 -1.0003  0.5009 -1.2137
 1954TIP3    H227498   3.377   6.292   1.588 -0.8013 -1.2160  1.6663
 1955TIP3   OH227499   1.089   3.206   1.744  0.0101 -0.5427 -0.1421
 1955TIP3    H127500   1.113   3.228   1.834  1.1262 -0.9851 -0.3184
 1955TIP3    H227501   1.058   3.289   1.707 -0.4431 -0.3505  0.6337
 1956TIP3   OH227502   4.923   3.332   7.984  1.1630 -0.3303  0.7306
 1956TIP3    H127503   4.828   3.325   7.980  0.8757  2.0604  2.0181
 1956TIP3    H227504   4.953   3.242   8.001 -0.7647 -1.2414 -0.3396
 1957TIP3   OH227505   2.844   3.485   7.099 -0.0932 -0.4093 -0.0506
 1957TIP3    H127506   2.761   3.495   7.053  0.3695  0.2901 -0.7467
 1957TIP3    H227507   2.872   3.575   7.118  1.0114 -0.5819 -0.7617
 1958TIP3   OH227508   4.777   6.744   0.203 -0.2276  0.0559  0.1743
 1958TIP3    H127509   4.684   6.756   0.222 -0.3300 -1.8111  1.0588
 1958TIP3    H227510   4.778   6.685   0.128  0.2541  0.2950 -0.0075
 1959TIP3   OH227511   2.956   4.163   7.088  0.1200  0.1032  0.0739
 1959TIP3    H127512   3.015   4.187   7.016 -0.3956  0.1996 -0.3251
 1959TIP3    H227513   2.937   4.070   7.073  0.8422 -0.1470  0.6922
 1960TIP3   OH227514   3.267   4.934   1.689  0.1443  0.0965  0.0375
 1960TIP3    H127515   3.258   4.958   1.781  0.8917 -0.3016  0.2202
 1960TIP3    H227516   3.263   5.018   1.642  0.8984  0.4138  0.5255
 1961TIP3   OH227517   3.594   4.811   6.656 -0.5190 -0.5305 -0.2226
 1961TIP3    H127518   3.684   4.833   6.680 -0.8537 -0.5632  1.1220
 1961TIP3    H227519   3.603   4.731   6.603  0.2394 -0.5962 -0.0135
 1962TIP3   OH227520   6.718   1.428   0.104 -0.0640 -0.2981  0.0412
 1962TIP3    H127521   6.635   1.406   0.145  1.0364 -1.1629  1.9427
 1962TIP3    H227522   6.781   1.366   0.142  1.6885  1.1607 -0.3279
 1963TIP3   OH227523   6.027   1.924   7.011 -0.9142  0.2052  0.1207
 1963TIP3    H127524   6.113   1.896   7.042 -1.7601 -1.2401  1.3501
 1963TIP3    H227525   6.004   1.998   7.066 -0.7314  0.1730  0.2409
 1964TIP3   OH227526   5.944   4.803   8.644 -0.3762  0.1406 -0.2371
 1964TIP3    H127527   5.952   4.874   8.707 -2.2555 -0.2860  0.5743
 1964TIP3    H227528   5.881   4.836   8.580 -0.2680 -0.3123 -0.5778
 1965TIP3   OH227529   6.711   4.537   8.547 -0.4697 -0.1354 -0.6396
 1965TIP3    H127530   6.662   4.475   8.494 -0.1928 -1.2310  0.3616
 1965TIP3    H227531   6.757   4.592   8.483 -0.9004 -0.8007 -1.5365
 1966TIP3   OH227532   1.504   5.071   6.637  0.4011  0.0124  0.8372
 1966TIP3    H127533   1.423   5.064   6.587 -1.2184 -2.3870  3.4919
 1966TIP3    H227534   1.564   5.009   6.594  0.1572  0.2953  0.0691
 1967TIP3   OH227535   5.586   4.592   7.742  0.3780 -0.2020  0.1092
 1967TIP3    H127536   5.528   4.575   7.668 -0.0021 -0.6479  0.5013
 1967TIP3    H227537   5.541   4.658   7.794  0.4455 -0.1980  0.1637
 1968TIP3   OH227538   2.302   3.541   1.853 -0.0587 -0.4436 -0.2112
 1968TIP3    H127539   2.364   3.471   1.874  0.1299 -0.2217 -0.0318
 1968TIP3    H227540   2.263   3.513   1.770  0.9753 -0.1323 -0.8262
 1969TIP3   OH227541   3.269   6.251   0.604  0.2828 -0.2686 -0.2286
 1969TIP3    H127542   3.275   6.341   0.638  1.2315 -0.1308 -0.7394
 1969TIP3    H227543   3.178   6.242   0.575 -0.6270 -0.4190  2.3964
 1970TIP3   OH227544   3.760   2.201   0.720  0.5019  0.1320  0.7099
 1970TIP3    H127545   3.811   2.139   0.773 -0.9229 -0.3033  1.6325
 1970TIP3    H227546   3.687   2.226   0.777  0.2680  1.5617 -0.1908
 1971TIP3   OH227547   5.115   0.787   0.461 -0.2353 -0.7226  0.1501
 1971TIP3    H127548   5.080   0.786   0.550 -0.0027 -0.6581  0.2410
 1971TIP3    H227549   5.152   0.875   0.450 -2.7762  0.3066 -0.9784
 1972TIP3   OH227550   2.953   0.799   8.417  0.0169  0.0594  0.1006
 1972TIP3    H127551   2.938   0.765   8.329  1.8037 -0.3444 -0.0823
 1972TIP3    H227552   2.919   0.731   8.475  2.3434 -1.5124 -0.2743
 1973TIP3   OH227553   3.889   1.516   1.563  0.0798  0.5034  0.6218
 1973TIP3    H127554   3.888   1.611   1.556 -1.7341  0.4018 -2.2512
 1973TIP3    H227555   3.902   1.498   1.656  1.4103  3.4973  1.1207
 1974TIP3   OH227556   4.294   1.372   8.035 -0.0489  0.5039 -0.3639
 1974TIP3    H127557   4.202   1.372   8.063 -0.8877 -1.1682 -2.7837
 1974TIP3    H227558   4.314   1.464   8.019 -1.4067  0.8667 -0.1201
 1975TIP3   OH227559   6.076   3.761   7.333 -0.0111  0.0768  0.4122
 1975TIP3    H127560   6.035   3.691   7.283  0.1608 -0.3044  0.7979
 1975TIP3    H227561   6.092   3.831   7.269  0.4557 -0.5074 -0.1199
 1976TIP3   OH227562   0.034   1.140   0.033  0.0262  0.0680 -0.6787
 1976TIP3    H127563   0.042   1.195   0.111 -0.0705  1.1695 -1.4156
 1976TIP3    H227564  -0.060   1.122   0.026  0.2271 -1.6475  0.5046
 1977TIP3   OH227565   2.671   2.571   0.486  0.3377 -0.1942 -0.3288
 1977TIP3    H127566   2.736   2.637   0.463  0.5536  0.2498  1.4223
 1977TIP3    H227567   2.587   2.615   0.471  0.4740  0.8170  1.5692
 1978TIP3   OH227568   1.017   1.245   1.122 -0.1631  0.1445  0.5302
 1978TIP3    H127569   1.113   1.249   1.126 -0.0950 -1.5814  1.3242
 1978TIP3    H227570   0.994   1.305   1.050  1.6763 -1.1881 -1.2798
 1979TIP3   OH227571   4.012   4.332   6.447 -0.3974 -0.2385  0.4967
 1979TIP3    H127572   3.945   4.400   6.438 -0.7911 -0.6694  0.1201
 1979TIP3    H227573   3.966   4.250   6.430 -0.0594 -0.6619  1.5099
 1980TIP3   OH227574   5.590   0.814   8.062  1.1552  0.2790 -0.0793
 1980TIP3    H127575   5.558   0.747   8.002  0.8053 -1.5049  1.9985
 1980TIP3    H227576   5.531   0.888   8.049  0.9599 -0.1252 -1.7367
 1981TIP3   OH227577   3.485   6.546   7.393  0.1070 -0.3842 -0.2329
 1981TIP3    H127578   3.486   6.623   7.337 -0.3592 -0.2581 -0.0755
 1981TIP3    H227579   3.403   6.553   7.441 -0.3454 -1.4012 -0.8181
 1982TIP3   OH227580   0.642   4.636   7.565 -0.1585  0.0393  0.5959
 1982TIP3    H127581   0.576   4.578   7.527  1.6402 -1.3967 -0.5020
 1982TIP3    H227582   0.668   4.693   7.493 -0.3505  0.7706  1.0923
 1983TIP3   OH227583   0.321   3.501   0.633  0.2681 -0.7467  0.1088
 1983TIP3    H127584   0.402   3.468   0.674  0.0299 -0.2240  1.0412
 1983TIP3    H227585   0.251   3.459   0.683 -0.0319  0.5848  0.8420
 1984TIP3   OH227586   3.301   1.966   1.041  0.2156 -0.1724  0.3561
 1984TIP3    H127587   3.350   2.044   1.068  0.0637  0.9319 -2.2500
 1984TIP3    H227588   3.235   1.955   1.110  0.9047  1.3576  1.3351
 1985TIP3   OH227589   0.027   6.336   1.645  0.7042 -0.4200  0.6451
 1985TIP3    H127590   0.079   6.273   1.595 -0.0117 -0.2042 -0.4051
 1985TIP3    H227591  -0.038   6.283   1.691  0.7410 -0.5339  0.5656
 1986TIP3   OH227592   0.442   6.161   0.320  0.1914  0.2017 -0.3663
 1986TIP3    H127593   0.445   6.165   0.416  0.6133  2.8090 -0.4027
 1986TIP3    H227594   0.534   6.169   0.293  0.0540 -0.3057 -0.9966
 1987TIP3   OH227595   3.450   5.314   8.119 -0.2906 -0.4612 -0.5952
 1987TIP3    H127596   3.435   5.406   8.143  3.2333  0.4526 -1.2405
 1987TIP3    H227597   3.476   5.272   8.200 -1.0138 -0.6900 -0.4740
 1988TIP3   OH227598   5.353   4.132   0.722 -0.6506  0.1685  0.0904
 1988TIP3    H127599   5.416   4.204   0.717  0.0770 -0.4346  0.3602
 1988TIP3    H227600   5.399   4.057   0.684 -1.8335  0.1195 -1.3078
 1989TIP3   OH227601   3.233   0.227   7.219 -0.2873  0.5664 -0.4294
 1989TIP3    H127602   3.214   0.144   7.175  1.5831  0.7423 -1.6792
 1989TIP3    H227603   3.161   0.238   7.281 -0.0404 -2.5271  0.5994
 1990TIP3   OH227604   1.481   5.995   0.529 -0.3018  0.1682  0.2702
 1990TIP3    H127605   1.534   5.956   0.598 -0.8760  0.3931  0.8507
 1990TIP3    H227606   1.429   6.062   0.573 -1.7602 -0.6722 -0.0827
 1991TIP3   OH227607   1.209   1.484   0.159 -0.4873  0.3528  0.0954
 1991TIP3    H127608   1.222   1.572   0.195 -1.4725  0.9864 -1.0231
 1991TIP3    H227609   1.138   1.494   0.095 -1.1518 -1.4152  0.4898
 1992TIP3   OH227610   1.977   5.309   8.663  1.1342  0.1015  0.4577
 1992TIP3    H127611   1.948   5.324   8.753  1.7583  0.2536  0.6372
 1992TIP3    H227612   1.946   5.221   8.643 -1.2439  1.0001 -0.0860
 1993TIP3   OH227613   4.026   3.054   8.053  0.1865  0.6783  0.5158
 1993TIP3    H127614   3.994   3.126   7.999  2.1589  0.8078 -0.5336
 1993TIP3    H227615   3.956   3.041   8.118  0.8535  5.3692  2.5507
 1994TIP3   OH227616   1.789   1.424   7.827 -0.3981 -0.2450 -0.9615
 1994TIP3    H127617   1.733   1.381   7.892  0.6465  1.8402  1.4982
 1994TIP3    H227618   1.871   1.374   7.829  1.2091  2.1088  2.6667
 1995TIP3   OH227619   0.838   5.483   7.987  1.0823 -0.2817 -0.0029
 1995TIP3    H127620   0.792   5.485   7.903  0.2938 -1.3598  0.3868
 1995TIP3    H227621   0.798   5.554   8.038  0.1454 -0.9329  0.1782
 1996TIP3   OH227622   3.457   5.699   0.234  0.3655  0.4910  0.4447
 1996TIP3    H127623   3.370   5.715   0.272  0.4370  1.5513  0.1879
 1996TIP3    H227624   3.506   5.779   0.253  1.8112 -0.7122  1.9930
 1997TIP3   OH227625   0.528   0.888   7.867 -0.8844 -0.1505 -0.6731
 1997TIP3    H127626   0.566   0.947   7.931  0.3889 -1.2546 -0.3742
 1997TIP3    H227627   0.463   0.837   7.916 -0.8258 -0.1171 -0.5620
 1998TIP3   OH227628   2.702   2.444   0.061 -0.6304 -0.3165 -0.2098
 1998TIP3    H127629   2.678   2.494  -0.017 -1.2857  0.3600  0.4024
 1998TIP3    H227630   2.749   2.506   0.116  1.4773 -1.2805 -0.8199
 1999TIP3   OH227631   3.513   2.496   0.398 -0.1935  0.0051 -0.4983
 1999TIP3    H127632   3.597   2.532   0.370 -0.4846  0.2018 -1.1401
 1999TIP3    H227633   3.536   2.424   0.457  0.4248  2.4572  2.5228
 2000TIP3   OH227634   1.532   1.616   8.768  0.2288  1.3340  0.7850
 2000TIP3    H127635   1.527   1.608   8.672  1.3039  0.3945  0.7827
 2000TIP3    H227636   1.476   1.546   8.801 -0.0994  1.6239  0.8422
 2001TIP3   OH227637   2.114   2.189   7.417  0.0091  0.2645 -0.2010
 2001TIP3    H127638   2.157   2.189   7.502 -0.2494  0.4960 -0.0737
 2001TIP3    H227639   2.081   2.099   7.407  1.3504 -0.2152 -0.7202
 2002TIP3   OH227640   4.336   0.432   1.087 -0.1507  0.0702 -0.0104
 2002TIP3    H127641   4.323   0.485   1.166 -1.0043 -0.9858  0.5755
 2002TIP3    H227642   4.261   0.373   1.085  0.7958 -1.1558 -0.6198
 2003TIP3   OH227643   5.543   5.516   6.435 -0.3851  0.1658 -0.3476
 2003TIP3    H127644   5.528   5.560   6.351  0.8793 -0.3025 -0.8378
 2003TIP3    H227645   5.460   5.525   6.482 -1.1548  0.3267 -1.6936
 2004TIP3   OH227646   4.781   2.744   1.262  0.5474 -0.1286  0.5164
 2004TIP3    H127647   4.833   2.681   1.312  0.9812  0.6818  1.1179
 2004TIP3    H227648   4.716   2.776   1.324 -0.3425 -0.7460 -0.0848
 2005TIP3   OH227649   0.659   1.304   2.493  0.2528 -0.1469  0.1346
 2005TIP3    H127650   0.632   1.235   2.553  0.9491 -1.6634 -1.2296
 2005TIP3    H227651   0.755   1.302   2.495  0.2890  0.8912  0.1757
 2006TIP3   OH227652   5.249   4.214   7.292  0.6008  0.7453  0.3203
 2006TIP3    H127653   5.260   4.200   7.198  0.5089  2.3028  0.0490
 2006TIP3    H227654   5.255   4.127   7.330 -0.3065 -0.0314 -1.2201
 2007TIP3   OH227655   0.754   5.418   1.593 -0.6353  0.2891 -0.4339
 2007TIP3    H127656   0.792   5.506   1.588  3.0668 -1.1134  0.3996
 2007TIP3    H227657   0.752   5.389   1.502 -0.1700  0.5849 -0.5447
 2008TIP3   OH227658   3.954   1.883   7.877  0.3780  0.2859  0.1405
 2008TIP3    H127659   4.002   1.800   7.887  0.7464  0.3237 -1.1800
 2008TIP3    H227660   4.006   1.946   7.927 -0.3695 -0.4087  1.8992
 2009TIP3   OH227661   5.163   3.384   6.540 -0.0292  0.0760  0.0734
 2009TIP3    H127662   5.177   3.455   6.603 -2.0019 -0.0440  0.7123
 2009TIP3    H227663   5.240   3.387   6.484  0.3773  2.1529  0.6351
 2010TIP3   OH227664   1.919   0.912   7.156 -0.2379  0.0130  0.1981
 2010TIP3    H127665   1.838   0.957   7.134 -0.6791 -0.2630  1.1971
 2010TIP3    H227666   1.951   0.957   7.234  0.6717  0.2352 -0.2884
 2011TIP3   OH227667   5.758   5.369   7.923 -0.5185 -0.3440  0.2321
 2011TIP3    H127668   5.701   5.391   7.849 -0.9845 -0.9678  0.4013
 2011TIP3    H227669   5.840   5.414   7.904 -0.4468 -0.9420 -0.9437
 2012TIP3   OH227670   4.143   3.043   0.040  0.6031 -0.2555  0.6050
 2012TIP3    H127671   4.139   2.973   0.105  0.0780 -0.3228  0.5043
 2012TIP3    H227672   4.216   3.018  -0.017  0.7588 -0.4451  0.8840
 2013TIP3   OH227673   4.049   0.715   8.042 -0.6886 -0.2112 -0.0765
 2013TIP3    H127674   4.018   0.654   7.975 -1.9944  0.0398  0.2752
 2013TIP3    H227675   4.072   0.659   8.116 -2.9418 -0.2475  0.6528
 2014TIP3   OH227676   4.463   2.120   7.767 -0.2167 -0.6188  0.0898
 2014TIP3    H127677   4.446   2.178   7.692 -4.2409  0.0657  1.3183
 2014TIP3    H227678   4.538   2.067   7.739  0.7694  2.0424 -2.9119
 2015TIP3   OH227679   5.045   2.038   0.054 -0.0919 -0.2621  0.3106
 2015TIP3    H127680   5.061   2.017  -0.038  0.6844  0.4369  0.2661
 2015TIP3    H227681   5.002   1.961   0.090 -1.3122 -0.1692 -0.8751
 2016TIP3   OH227682   1.075   4.459   8.330 -0.3514  0.0153  0.5531
 2016TIP3    H127683   1.028   4.386   8.370 -1.2771  0.8484  1.0231
 2016TIP3    H227684   1.018   4.487   8.258  1.2147 -1.3614 -1.3222
 2017TIP3   OH227685   2.335   2.795   2.702  0.0375 -0.9822  0.1651
 2017TIP3    H127686   2.379   2.878   2.721 -0.4221 -0.2579 -1.6452
 2017TIP3    H227687   2.243   2.820   2.690 -0.2073 -1.8607  0.1899
 2018TIP3   OH227688   2.727   5.780   8.496 -0.1447  0.0709 -0.6059
 2018TIP3    H127689   2.806   5.729   8.518  0.3582  1.5096  1.1696
 2018TIP3    H227690   2.657   5.715   8.492  0.7166 -0.9487  0.2113
 2019TIP3   OH227691   6.199   4.687   2.443 -0.4753  0.4793 -0.3444
 2019TIP3    H127692   6.225   4.599   2.416 -0.5412  0.4255 -0.2366
 2019TIP3    H227693   6.193   4.737   2.362  2.4547  1.2060 -0.1986
 2020TIP3   OH227694   6.428   3.956   6.845 -0.3645 -0.1477 -0.2660
 2020TIP3    H127695   6.383   4.038   6.823  0.1974  0.3701  0.4321
 2020TIP3    H227696   6.432   3.908   6.763 -2.1410 -0.2056 -0.3693
 2021TIP3   OH227697   6.455   3.994   1.678 -0.1162  0.6573  0.1414
 2021TIP3    H127698   6.420   4.066   1.626 -0.2736  1.0310  0.7431
 2021TIP3    H227699   6.503   4.037   1.749 -1.0779  0.2134  1.1117
 2022TIP3   OH227700   4.216   3.057   2.406 -0.2423  0.0888  0.0611
 2022TIP3    H127701   4.255   3.117   2.342 -0.7008  0.4018  0.0733
 2022TIP3    H227702   4.291   3.013   2.447  0.0347 -1.3704 -1.8712
 2023TIP3   OH227703   6.732   4.491   0.563  0.1053 -0.9153  0.4049
 2023TIP3    H127704   6.720   4.462   0.473 -1.2981  0.0415  0.2498
 2023TIP3    H227705   6.800   4.559   0.557  0.2048 -1.0391  0.0991
 2024TIP3   OH227706   4.933   4.335   7.661  0.4098  0.3948  0.2260
 2024TIP3    H127707   4.887   4.389   7.596  1.5349 -0.6501 -1.5163
 2024TIP3    H227708   4.939   4.391   7.738 -0.2312  2.0200 -0.8298
 2025TIP3   OH227709   4.877   2.119   1.532 -0.1276  0.2918 -0.3666
 2025TIP3    H127710   4.944   2.079   1.476 -0.0588  0.0427 -0.1117
 2025TIP3    H227711   4.926   2.151   1.608 -0.1352  1.1550 -0.7164
 2026TIP3   OH227712   1.790   2.703   0.236 -0.1994  0.0221  0.0572
 2026TIP3    H127713   1.728   2.732   0.169  0.8470 -0.0873 -0.9847
 2026TIP3    H227714   1.827   2.784   0.271 -0.8812  0.0874  0.6740
 2027TIP3   OH227715   0.240   6.076   1.830  0.2927 -0.3616 -0.1835
 2027TIP3    H127716   0.218   6.042   1.743  0.2033 -0.1825 -0.2320
 2027TIP3    H227717   0.199   6.014   1.891  1.2602 -1.0984 -0.2492
 2028TIP3   OH227718   3.594   5.660   2.061 -0.5952  0.7801 -0.2981
 2028TIP3    H127719   3.574   5.646   2.153 -1.0145 -0.4700 -0.5584
 2028TIP3    H227720   3.509   5.658   2.017 -0.3102  0.1790 -0.8449
 2029TIP3   OH227721   0.000   3.758   7.156  0.5923  0.1983 -0.2795
 2029TIP3    H127722   0.005   3.685   7.095  2.0769  0.9364 -1.1204
 2029TIP3    H227723   0.019   3.835   7.103  1.8491  0.8848  1.0694
 2030TIP3   OH227724   4.497   4.464   7.222  0.0946 -0.2782 -0.3785
 2030TIP3    H127725   4.448   4.428   7.148 -0.8107 -0.4402  0.2942
 2030TIP3    H227726   4.532   4.547   7.189 -0.4673 -0.2502 -0.9257
 2031TIP3   OH227727   0.225   6.432   2.483  0.0715 -0.3147 -0.4253
 2031TIP3    H127728   0.304   6.391   2.520  0.4505  0.4553 -0.3574
 2031TIP3    H227729   0.254   6.467   2.399 -0.8853 -2.4089 -1.6974
 2032TIP3   OH227730   5.807   4.799   8.913  0.3582  0.5880 -0.1613
 2032TIP3    H127731   5.820   4.756   8.828  1.5477  1.1740 -0.3006
 2032TIP3    H227732   5.868   4.756   8.972  0.2424  0.8450  0.1520
 2033TIP3   OH227733   5.147   4.047   0.191 -0.1672  0.0648  0.3418
 2033TIP3    H127734   5.162   4.139   0.169 -1.8520  0.0690 -1.0068
 2033TIP3    H227735   5.233   4.014   0.215  1.8479  0.5182 -4.9159
 2034TIP3   OH227736   1.426   1.682   7.632 -0.3338 -0.6869  0.4592
 2034TIP3    H127737   1.358   1.688   7.699  1.2601 -0.8802  2.1841
 2034TIP3    H227738   1.484   1.756   7.650  1.4909 -2.1498  0.9735
 2035TIP3   OH227739   3.190   0.637   8.360  0.0358  0.2341 -0.0989
 2035TIP3    H127740   3.209   0.674   8.447  1.0998  0.1854 -0.2923
 2035TIP3    H227741   3.274   0.602   8.331  0.5966  3.1508 -2.5435
 2036TIP3   OH227742   1.368   0.503   0.851  0.1226 -0.0070 -0.3353
 2036TIP3    H127743   1.407   0.560   0.917  0.7675  0.1384 -0.8375
 2036TIP3    H227744   1.281   0.540   0.835 -0.1757 -0.2332  0.6579
 2037TIP3   OH227745   0.299   0.990   8.912  0.5362 -0.2972  0.2251
 2037TIP3    H127746   0.226   1.042   8.944  1.1945 -0.5243  2.2532
 2037TIP3    H227747   0.343   1.046   8.848 -0.8186  0.2172 -0.2751
 2038TIP3   OH227748   0.113   1.273   0.265  0.2795 -0.0798 -0.0778
 2038TIP3    H127749   0.111   1.257   0.359  1.5473  0.5691  0.0758
 2038TIP3    H227750   0.199   1.242   0.237 -0.4942 -1.2984 -1.2335
 2039TIP3   OH227751   0.253   2.054   7.855  0.5459 -0.3716  0.0368
 2039TIP3    H127752   0.335   2.004   7.848  0.7091  0.0598 -1.5359
 2039TIP3    H227753   0.280   2.145   7.844 -0.1568 -0.2296 -0.5309
 2040TIP3   OH227754   4.852   5.481   8.176 -0.8840  0.5988 -0.2423
 2040TIP3    H127755   4.917   5.416   8.204 -1.9171 -0.5760 -0.5244
 2040TIP3    H227756   4.896   5.565   8.189  0.7277 -0.1702 -0.5100
 2041TIP3   OH227757   3.832   2.101   8.395  0.3606 -0.0534  0.2440
 2041TIP3    H127758   3.790   2.121   8.478 -1.3446 -0.6003 -0.4388
 2041TIP3    H227759   3.782   2.027   8.360  3.2698 -2.2790  0.3669
 2042TIP3   OH227760   0.444   1.517   7.149 -0.1463 -0.1214  0.4985
 2042TIP3    H127761   0.496   1.594   7.170  2.5035 -1.0427 -2.0961
 2042TIP3    H227762   0.399   1.540   7.067  1.4996 -1.5701 -0.8877
 2043TIP3   OH227763   1.469   4.158   0.781  0.7829  0.2854  0.3511
 2043TIP3    H127764   1.465   4.158   0.877  0.9558  0.8999  0.3654
 2043TIP3    H227765   1.426   4.241   0.756  0.2948 -0.1044 -0.1216
 2044TIP3   OH227766   2.791   4.889   6.540  0.5547 -0.0877  0.1124
 2044TIP3    H127767   2.713   4.841   6.566 -0.3841  2.0749  1.4634
 2044TIP3    H227768   2.825   4.928   6.621  2.3919 -0.0199 -0.6237
 2045TIP3   OH227769   3.392   1.640   1.896 -0.1433 -0.0606  0.4285
 2045TIP3    H127770   3.391   1.724   1.849  1.0738 -0.5212 -0.4857
 2045TIP3    H227771   3.469   1.644   1.952 -0.9607  0.0286  1.5902
 2046TIP3   OH227772   2.852   0.202   7.997 -0.2257  0.5605  0.1778
 2046TIP3    H127773   2.830   0.158   8.080  0.6313 -0.4801 -0.1210
 2046TIP3    H227774   2.824   0.293   8.010 -0.5509  0.3058  1.4267
 2047TIP3   OH227775   1.209   6.068   0.608 -0.2633 -0.5888  0.5421
 2047TIP3    H127776   1.120   6.036   0.623  0.5418 -2.2284  2.3702
 2047TIP3    H227777   1.256   5.992   0.572  1.0461 -0.7305  2.3728
 2048TIP3   OH227778   1.976   1.900   0.587 -0.0778 -0.1501 -0.2907
 2048TIP3    H127779   1.956   1.985   0.548  0.8681  0.2153 -0.0104
 2048TIP3    H227780   1.900   1.879   0.641 -1.0149 -0.2321 -1.5932
 2049TIP3   OH227781   6.232   6.671   1.412 -0.6268 -0.1814 -0.5153
 2049TIP3    H127782   6.301   6.616   1.449 -1.8498 -2.8287 -1.9069
 2049TIP3    H227783   6.157   6.658   1.470 -1.3065 -1.0699 -1.5524
 2050TIP3   OH227784   1.218   4.644   7.008 -0.0076 -0.7271 -0.3299
 2050TIP3    H127785   1.188   4.713   6.949  0.6807  0.2441  0.4190
 2050TIP3    H227786   1.269   4.585   6.952 -0.6092 -0.6447 -0.9758
 2051TIP3   OH227787   2.602   0.226   7.582 -0.3922  0.6796  0.2509
 2051TIP3    H127788   2.615   0.306   7.633 -0.1804  0.3454  0.7261
 2051TIP3    H227789   2.690   0.190   7.570 -0.6369 -0.7673  2.1480
 2052TIP3   OH227790   0.543   3.746   1.420 -0.6600 -0.2729  0.3115
 2052TIP3    H127791   0.544   3.841   1.435  0.6394 -0.0395 -1.0156
 2052TIP3    H227792   0.478   3.713   1.481 -0.3675  1.3481  1.5709
 2053TIP3   OH227793   3.974   5.596   0.416  0.4556  0.5308 -0.4662
 2053TIP3    H127794   3.993   5.626   0.326  0.3189  1.3885 -0.2247
 2053TIP3    H227795   3.943   5.507   0.405 -0.0293  0.7841 -1.3328
 2054TIP3   OH227796   0.563   0.446   2.107 -0.5037 -0.3317 -0.2887
 2054TIP3    H127797   0.498   0.507   2.142  0.7602 -0.2528  2.1910
 2054TIP3    H227798   0.606   0.411   2.185  0.8177 -2.1666 -1.7660
 2055TIP3   OH227799   1.419   3.656   7.401  0.5419  0.0306 -0.4396
 2055TIP3    H127800   1.355   3.713   7.358 -0.0745 -0.0992  0.2790
 2055TIP3    H227801   1.500   3.671   7.353 -0.0156  0.2267 -1.3482
 2056TIP3   OH227802   1.310   6.669   0.503  0.7622 -0.2112 -0.0033
 2056TIP3    H127803   1.253   6.594   0.493  0.0040  0.5421 -1.6586
 2056TIP3    H227804   1.382   6.637   0.557  0.1892 -1.9632 -0.2149
 2057TIP3   OH227805   4.621   2.934   1.416 -0.2308  0.1184 -0.3440
 2057TIP3    H127806   4.563   2.914   1.490 -0.3656 -0.1393 -0.5178
 2057TIP3    H227807   4.644   3.026   1.428 -2.7407  1.0049 -1.6693
 2058TIP3   OH227808   2.667   5.718   7.218  0.2095  0.2683 -0.4689
 2058TIP3    H127809   2.703   5.649   7.273  0.5849 -0.8312 -2.0106
 2058TIP3    H227810   2.732   5.729   7.148 -0.7228  0.8617 -1.2734
 2059TIP3   OH227811   2.677   2.937   7.840 -0.1691 -0.1269 -0.3421
 2059TIP3    H127812   2.614   2.898   7.781  0.1704  0.7984 -1.3633
 2059TIP3    H227813   2.652   3.030   7.845  0.6459  0.0957 -0.1518
 2060TIP3   OH227814   4.723   1.345   0.400  0.5310 -0.0096  0.2770
 2060TIP3    H127815   4.640   1.363   0.444  1.3562  0.5119  1.6804
 2060TIP3    H227816   4.701   1.281   0.333 -0.8763 -0.4299  1.0989
 2061TIP3   OH227817   0.796   3.897   7.663  0.4094 -0.2732 -0.5120
 2061TIP3    H127818   0.720   3.952   7.680  1.0909  0.6699 -0.4439
 2061TIP3    H227819   0.776   3.814   7.706  0.3984  0.7277  1.5323
 2062TIP3   OH227820   1.034   1.453   0.422  0.3472  0.2007 -0.3198
 2062TIP3    H127821   1.024   1.535   0.374  1.2030  1.1669  1.0879
 2062TIP3    H227822   1.076   1.393   0.360 -1.8398  0.2105 -1.9503
 2063TIP3   OH227823   0.072   3.760   1.934  0.4036  0.6383  1.0733
 2063TIP3    H127824   0.044   3.706   1.859  0.9426  0.5248  0.9455
 2063TIP3    H227825  -0.009   3.790   1.974  0.0923  2.0264 -0.5088
 2064TIP3   OH227826   2.737   5.609   7.918  0.4898  0.4968  0.0446
 2064TIP3    H127827   2.764   5.653   7.999 -0.0394 -0.5280  0.8027
 2064TIP3    H227828   2.654   5.651   7.894  0.7395  0.9284 -0.0736
 2065TIP3   OH227829   4.908   4.671   8.708 -0.0878 -0.3951 -0.4130
 2065TIP3    H127830   4.880   4.623   8.785 -1.1644  0.5194 -0.1974
 2065TIP3    H227831   4.833   4.728   8.687  0.7676  0.4823 -1.2054
 2066TIP3   OH227832   6.513   4.536   7.143  0.0351  0.3648  0.1644
 2066TIP3    H127833   6.523   4.514   7.050 -0.0675 -0.5151  0.3536
 2066TIP3    H227834   6.603   4.537   7.177  0.0331  0.1296  0.1777
 2067TIP3   OH227835   1.580   5.103   7.110 -0.6340  0.2157 -0.2569
 2067TIP3    H127836   1.568   5.012   7.085 -2.1543  0.4109 -0.3265
 2067TIP3    H227837   1.596   5.101   7.204  1.4098 -0.2498 -0.5771
 2068TIP3   OH227838   3.464   2.892   1.238 -0.1333  0.1370 -0.4620
 2068TIP3    H127839   3.452   2.969   1.292  0.1004  0.2983 -0.6379
 2068TIP3    H227840   3.413   2.909   1.159 -0.1375  0.0840 -0.4709
 2069TIP3   OH227841   0.887   4.644   8.181 -0.0894 -0.4470 -0.3218
 2069TIP3    H127842   0.806   4.595   8.165  0.6337 -1.0144 -2.5966
 2069TIP3    H227843   0.865   4.734   8.159 -0.4234 -0.3609  0.3234
 2070TIP3   OH227844   4.719   1.943   0.357 -0.1853  0.1580 -0.3253
 2070TIP3    H127845   4.734   1.922   0.449 -0.1252 -1.3014 -0.6348
 2070TIP3    H227846   4.723   2.038   0.352  0.3923  0.2200  1.0768
 2071TIP3   OH227847   0.392   5.438   0.864 -0.6201 -0.6214  0.1271
 2071TIP3    H127848   0.425   5.523   0.893 -1.1979 -0.5458  0.5964
 2071TIP3    H227849   0.411   5.435   0.770  0.4013 -0.4527  0.3176
 2072TIP3   OH227850   6.032   3.528   1.762  0.4257  0.2275  0.0895
 2072TIP3    H127851   6.045   3.608   1.711 -1.2489  1.6873  1.7810
 2072TIP3    H227852   6.050   3.554   1.852  1.6043 -1.8057  0.4904
 2073TIP3   OH227853   5.576   6.367   1.372  0.4598 -0.5909 -0.3788
 2073TIP3    H127854   5.578   6.272   1.380  1.8639 -0.6131 -0.6183
 2073TIP3    H227855   5.666   6.390   1.347 -0.3264  0.6196 -2.3341
 2074TIP3   OH227856   3.208   2.674   0.662 -0.1729  0.4682 -0.1671
 2074TIP3    H127857   3.276   2.666   0.729 -0.4947  1.6433  0.3170
 2074TIP3    H227858   3.233   2.752   0.612  0.2912 -0.6167 -1.6982
 2075TIP3   OH227859   5.719   4.074   0.137 -0.4331 -0.3119  0.2018
 2075TIP3    H127860   5.690   4.165   0.140  0.2238 -0.1178  0.6261
 2075TIP3    H227861   5.801   4.072   0.186  0.3445 -0.8324 -1.0599
 2076TIP3   OH227862   1.080   4.053   7.453 -0.2316  0.3918 -0.4736
 2076TIP3    H127863   0.990   4.023   7.448  0.0594 -0.3566 -1.6422
 2076TIP3    H227864   1.079   4.122   7.519 -1.7116  0.6247 -0.7162
 2077TIP3   OH227865   2.898   4.247   8.179 -0.1074  0.2128 -0.3728
 2077TIP3    H127866   2.968   4.298   8.220  0.0694 -0.6229  0.3931
 2077TIP3    H227867   2.827   4.248   8.243 -0.5188  0.4150 -0.8265
 2078TIP3   OH227868   2.988   5.412   1.611  0.5676  0.0034 -0.2972
 2078TIP3    H127869   2.903   5.369   1.607  0.6556 -0.4357  1.6512
 2078TIP3    H227870   3.050   5.342   1.633  1.5993  0.1662 -2.3835
 2079TIP3   OH227871   3.464   2.470   7.894  0.3298  0.4589 -0.5185
 2079TIP3    H127872   3.452   2.472   7.799 -1.6698 -0.0866 -0.3245
 2079TIP3    H227873   3.411   2.543   7.927  0.6698  0.3871  0.2170
 2080TIP3   OH227874   4.533   2.257   2.261  0.0469 -0.0909 -0.1508
 2080TIP3    H127875   4.523   2.162   2.265  0.4649 -0.5978 -5.1800
 2080TIP3    H227876   4.628   2.270   2.260 -0.0076  0.2931 -0.3159
 2081TIP3   OH227877   0.758   5.955   1.916  0.4355  0.3367  0.1704
 2081TIP3    H127878   0.718   5.983   1.999  0.0169  0.5698 -0.1064
 2081TIP3    H227879   0.685   5.948   1.855  0.8389  0.9988 -0.4114
 2082TIP3   OH227880   4.163   0.249   7.811 -0.4841  0.2481  0.6284
 2082TIP3    H127881   4.079   0.250   7.857 -1.4367  3.6284 -0.8589
 2082TIP3    H227882   4.228   0.261   7.880 -1.4397  0.2253  1.5628
 2083TIP3   OH227883   5.161   4.932   7.239 -0.1264  0.0368  0.3258
 2083TIP3    H127884   5.232   4.930   7.303 -0.9099 -0.3175  1.2172
 2083TIP3    H227885   5.173   5.014   7.192  0.5269  0.2568  0.8538
 2084TIP3   OH227886   0.020   4.053   7.288 -0.0536  0.5731  0.5730
 2084TIP3    H127887   0.099   4.021   7.330 -0.8010 -1.2193  0.6722
 2084TIP3    H227888  -0.051   4.009   7.333 -1.1243  1.9166  0.2821
 2085TIP3   OH227889   1.390   2.522   7.787 -0.2163  0.0596  0.3810
 2085TIP3    H127890   1.471   2.558   7.823  1.9956 -0.6693 -3.3229
 2085TIP3    H227891   1.363   2.585   7.720 -2.8241  0.2877  1.5425
 2086TIP3   OH227892   6.665   3.542   0.694 -0.3537  0.3407 -0.3448
 2086TIP3    H127893   6.718   3.551   0.773 -1.9088  1.9378  0.5760
 2086TIP3    H227894   6.672   3.628   0.652 -1.9825  0.4984 -0.3321
 2087TIP3   OH227895   3.160   1.057   8.071 -0.4678  0.4941  0.5276
 2087TIP3    H127896   3.161   1.116   8.146  0.0659  1.2783 -0.0811
 2087TIP3    H227897   3.093   1.092   8.013 -0.7483 -0.0010  0.5409
 2088TIP3   OH227898   6.355   0.568   7.915 -0.2878  0.0487 -0.2011
 2088TIP3    H127899   6.388   0.513   7.843 -0.1140 -1.6093  1.0733
 2088TIP3    H227900   6.403   0.538   7.992  1.4424  3.5400  0.2781
 2089TIP3   OH227901   5.613   3.084   7.610 -0.0378 -0.1484 -0.3584
 2089TIP3    H127902   5.564   3.135   7.675  0.2018  0.4784 -0.6623
 2089TIP3    H227903   5.643   3.149   7.547 -0.1395 -0.7353 -1.0194
 2090TIP3   OH227904   4.056   3.891   0.710 -0.4864  0.4849 -0.7722
 2090TIP3    H127905   3.998   3.965   0.692 -2.3988 -1.2692 -2.2646
 2090TIP3    H227906   4.115   3.888   0.635 -1.1502 -0.1568 -1.2763
 2091TIP3   OH227907   4.112   0.800   6.738 -0.5932  0.0051 -0.6138
 2091TIP3    H127908   4.147   0.716   6.708  0.3370 -0.0316  0.4797
 2091TIP3    H227909   4.151   0.812   6.825  2.2884  3.2313 -2.0878
 2092TIP3   OH227910   2.205   6.571   0.429  0.6429  0.4374 -0.0849
 2092TIP3    H127911   2.259   6.504   0.387 -0.4104 -0.9308  0.6521
 2092TIP3    H227912   2.241   6.580   0.517 -0.2022 -0.3879  0.3673
 2093TIP3   OH227913   4.171   4.269   7.750  0.2675  0.0309  0.5063
 2093TIP3    H127914   4.239   4.206   7.724  0.4498  0.8080 -0.9688
 2093TIP3    H227915   4.142   4.308   7.668 -2.0846 -0.3727  1.0779
 2094TIP3   OH227916   3.958   4.579   1.326 -0.4317  0.5598 -0.3770
 2094TIP3    H127917   3.890   4.598   1.390 -0.2923  0.3953 -0.1756
 2094TIP3    H227918   3.912   4.536   1.254 -0.3020 -1.2427  0.5493
 2095TIP3   OH227919   4.316   3.930   1.086  0.0818  0.0344  0.2693
 2095TIP3    H127920   4.220   3.934   1.080  0.1083  2.0434  0.3241
 2095TIP3    H227921   4.340   4.011   1.132  1.8406 -0.1522 -0.2523
 2096TIP3   OH227922   3.577   3.319   8.286 -0.4098 -0.1427  0.5684
 2096TIP3    H127923   3.648   3.352   8.232  0.1446  0.0326  1.3870
 2096TIP3    H227924   3.616   3.305   8.372 -1.5548  0.8079  1.2804
 2097TIP3   OH227925   1.976   6.817   8.233 -0.1281 -0.3488 -0.5557
 2097TIP3    H127926   1.997   6.802   8.325  1.1171  0.5989 -0.6520
 2097TIP3    H227927   1.911   6.750   8.212 -2.9969  1.4355  1.8833
 2098TIP3   OH227928   5.383   2.404   2.255 -0.4941 -0.0718 -0.9963
 2098TIP3    H127929   5.418   2.413   2.344  0.7007 -0.0505 -1.4545
 2098TIP3    H227930   5.460   2.390   2.200 -1.1659  0.4370 -2.1010
 2099TIP3   OH227931   1.925   2.686   7.640  0.0339  0.2380  0.4333
 2099TIP3    H127932   1.863   2.756   7.619  0.3861 -0.0057 -1.6155
 2099TIP3    H227933   1.870   2.610   7.659 -0.3191  0.3818 -0.0021
 2100TIP3   OH227934   6.540   5.641   1.705  0.3255 -0.5979  0.4011
 2100TIP3    H127935   6.509   5.698   1.775 -0.2889 -0.9134  0.3935
 2100TIP3    H227936   6.635   5.643   1.712  0.2641 -0.6876  1.2976
 2101TIP3   OH227937   0.900   2.086   1.130 -0.0504  0.6723  0.4776
 2101TIP3    H127938   0.819   2.054   1.170 -0.5628  1.9645  0.5407
 2101TIP3    H227939   0.917   2.026   1.058 -0.7993  0.0952  0.7687
 2102TIP3   OH227940   1.672   6.043   2.786 -0.0907 -0.7370 -0.1029
 2102TIP3    H127941   1.703   6.112   2.844  0.6410 -2.4756  1.6826
 2102TIP3    H227942   1.716   6.060   2.703 -1.2956  1.9154 -0.2949
 2103TIP3   OH227943   0.954   3.144   0.817  0.5270  0.3217  0.5976
 2103TIP3    H127944   1.024   3.118   0.877  0.5484 -1.6073 -0.1913
 2103TIP3    H227945   0.994   3.137   0.730 -0.5505 -0.5039  0.1575
 2104TIP3   OH227946   0.924   1.546   0.188 -0.0161 -0.0099 -0.2238
 2104TIP3    H127947   0.832   1.570   0.172 -0.1891 -1.4238 -1.6795
 2104TIP3    H227948   0.937   1.466   0.136  2.0500  0.1507 -0.0344
 2105TIP3   OH227949   1.929   3.257   8.106 -0.4115 -0.1240  0.6029
 2105TIP3    H127950   1.941   3.244   8.012 -1.1396 -2.1587  0.7314
 2105TIP3    H227951   2.003   3.310   8.133  0.7736 -0.9807 -0.8446
 2106TIP3   OH227952   2.799   1.676   6.290 -0.0281 -0.6268 -0.3998
 2106TIP3    H127953   2.878   1.712   6.248  0.7131  2.2709  2.9685
 2106TIP3    H227954   2.829   1.597   6.334  1.2166  0.6417  1.1548
 2107TIP3   OH227955   6.377   5.692   8.877  0.7183  0.3279  0.8485
 2107TIP3    H127956   6.289   5.727   8.890  0.3411  0.3729 -1.5098
 2107TIP3    H227957   6.372   5.602   8.910 -0.2990  0.2437  0.5079
 2108TIP3   OH227958   2.004   1.444   6.704  0.4797  0.4504 -0.1786
 2108TIP3    H127959   1.937   1.510   6.723  1.0933  0.9845  0.1731
 2108TIP3    H227960   1.977   1.406   6.620 -0.1477  0.8050 -0.1430
 2109TIP3   OH227961   1.705   6.123   2.505 -0.1320  0.3667 -0.3283
 2109TIP3    H127962   1.767   6.149   2.437 -1.1041  1.7062 -0.7417
 2109TIP3    H227963   1.620   6.157   2.475 -1.2552 -2.0919 -0.1770
 2110TIP3   OH227964   4.726   0.025   0.659 -0.5015 -0.0149  0.2940
 2110TIP3    H127965   4.685  -0.021   0.732 -0.6341  0.4191  0.4983
 2110TIP3    H227966   4.733  -0.040   0.590  1.9652 -1.2008  1.5273
 2111TIP3   OH227967   0.857   4.740   0.137  0.0388 -0.0994 -0.5628
 2111TIP3    H127968   0.835   4.708   0.050  1.6686 -0.5910 -0.8180
 2111TIP3    H227969   0.952   4.740   0.140  0.0415  1.3082  0.7175
 2112TIP3   OH227970   3.110   4.005   1.799  0.0842  0.2661 -0.8106
 2112TIP3    H127971   3.135   3.966   1.716 -0.7943 -1.0102 -0.5101
 2112TIP3    H227972   3.030   3.959   1.824 -0.8018  2.0262 -0.2327
 2113TIP3   OH227973   0.480   3.630   8.159  0.1153 -0.2291 -0.6773
 2113TIP3    H127974   0.558   3.656   8.109 -1.9072  2.5308 -2.7392
 2113TIP3    H227975   0.469   3.699   8.224 -0.7403 -0.4578 -0.5719
 2114TIP3   OH227976   4.352   0.052   7.359  0.0417 -0.3979 -0.1147
 2114TIP3    H127977   4.294  -0.019   7.386 -0.1366 -1.3657 -2.6774
 2114TIP3    H227978   4.417   0.057   7.428 -0.9389 -1.8714  1.0004
 2115TIP3   OH227979   4.546   2.188   0.590  0.1780 -0.0142  0.2356
 2115TIP3    H127980   4.550   2.254   0.522 -1.4885  1.0439  1.0928
 2115TIP3    H227981   4.629   2.197   0.637 -0.3718  2.1684  0.9103
 2116TIP3   OH227982   3.633   1.127   8.762  0.6849  0.6727 -0.6436
 2116TIP3    H127983   3.711   1.159   8.715  1.0453  1.2898  0.3545
 2116TIP3    H227984   3.569   1.110   8.692  1.9485 -0.5453 -1.5447
 2117TIP3   OH227985   2.149   4.373   7.847 -0.0188  0.1120  0.2802
 2117TIP3    H127986   2.201   4.334   7.776 -1.5365  0.5933 -1.1422
 2117TIP3    H227987   2.207   4.438   7.886  0.5373  0.5304 -1.1692
 2118TIP3   OH227988   5.257   6.049   0.472 -0.0809  0.7656 -0.4690
 2118TIP3    H127989   5.346   6.015   0.471 -0.6735 -0.9026  0.0266
 2118TIP3    H227990   5.216   6.006   0.547 -1.7404  0.2892 -1.5795
 2119TIP3   OH227991   0.813   3.323   1.869 -0.0314 -0.1771  0.4804
 2119TIP3    H127992   0.835   3.236   1.903  0.1810  0.0016  0.7974
 2119TIP3    H227993   0.808   3.311   1.774  0.3709 -0.4526  0.4938
 2120TIP3   OH227994   2.486   5.558   0.375 -0.0885  0.0329  0.6556
 2120TIP3    H127995   2.421   5.502   0.333 -0.7251  0.1943  1.4097
 2120TIP3    H227996   2.438   5.603   0.444  0.4167  1.4778  0.1022
 2121TIP3   OH227997   5.444   2.481   2.756 -0.1006 -0.7776  0.2904
 2121TIP3    H127998   5.370   2.441   2.709  0.3565 -1.9678  0.5443
 2121TIP3    H227999   5.494   2.407   2.789  2.8998 -0.1493 -2.3555
 2122TIP3   OH228000   3.598   1.576   0.412 -0.0568  0.4152 -0.4318
 2122TIP3    H128001   3.681   1.548   0.450 -0.9142 -1.2619  0.3415
 2122TIP3    H228002   3.553   1.494   0.390 -2.0076  1.2182  0.3103
 2123TIP3   OH228003   4.370   1.779   1.031 -0.3222  0.4954 -0.4348
 2123TIP3    H128004   4.352   1.871   1.051 -0.4471  0.4935 -0.5379
 2123TIP3    H228005   4.458   1.764   1.064 -0.4978  0.5164  0.0543
 2124TIP3   OH228006   1.283   0.955   0.668  0.1257 -0.1308 -0.2868
 2124TIP3    H128007   1.340   0.879   0.660 -1.4202 -1.1482 -2.5541
 2124TIP3    H228008   1.339   1.030   0.650  1.2671 -0.8812  0.0796
 2125TIP3   OH228009   2.866   3.908   1.895  0.5485 -0.1508 -0.5847
 2125TIP3    H128010   2.800   3.962   1.852 -0.6112  0.1355  1.4027
 2125TIP3    H228011   2.897   3.962   1.968  2.2190 -0.7119 -0.8388
 2126TIP3   OH228012   2.026   4.285   6.777 -0.4516  0.1483  0.2544
 2126TIP3    H128013   2.112   4.321   6.798 -0.0799  0.1439 -1.1953
 2126TIP3    H228014   2.036   4.190   6.791 -0.6610  0.2955  1.4958
 2127TIP3   OH228015   4.381   2.514   1.062 -0.0213 -0.5358  0.4804
 2127TIP3    H128016   4.452   2.462   1.100  1.5097 -0.0937 -1.6094
 2127TIP3    H228017   4.321   2.448   1.025  1.6845 -0.9407 -1.7630
 2128TIP3   OH228018   1.797   5.084   0.512 -0.3318 -0.1015  0.1938
 2128TIP3    H128019   1.839   5.035   0.442 -0.6071 -0.8386  0.5332
 2128TIP3    H228020   1.739   5.021   0.554 -0.2635  0.3575  1.0058
 2129TIP3   OH228021   4.381   5.370   6.596 -0.0243  0.2140  0.4683
 2129TIP3    H128022   4.337   5.286   6.599  0.7859 -0.2697 -0.4553
 2129TIP3    H228023   4.472   5.350   6.618  0.8707  0.2813 -2.7128
 2130TIP3   OH228024   4.783   3.255   8.383 -0.5127  0.1189  0.2483
 2130TIP3    H128025   4.725   3.179   8.385  0.2215 -0.4463  0.7431
 2130TIP3    H228026   4.848   3.237   8.451 -0.1155  1.0237  0.1222
 2131TIP3   OH228027   3.776   1.637   8.909  0.0956 -0.3318  0.4246
 2131TIP3    H128028   3.755   1.724   8.944  0.0469 -1.0175  2.2036
 2131TIP3    H228029   3.692   1.593   8.903  0.0338 -0.0625 -1.1447
 2132TIP3   OH228030   4.490   4.058   8.278 -0.4264  0.2588 -0.1889
 2132TIP3    H128031   4.518   4.046   8.369 -1.0173  0.1813 -0.0179
 2132TIP3    H228032   4.567   4.097   8.235 -0.4573  1.1878  0.5647
 2133TIP3   OH228033   6.798   2.296   7.839  0.6493  0.2047  0.0908
 2133TIP3    H128034   6.805   2.224   7.902 -0.5923 -0.0508 -0.0462
 2133TIP3    H228035   6.810   2.254   7.754  0.4658  0.2442  0.0453
 2134TIP3   OH228036   0.050   0.022   7.809  0.8311  0.4350  1.0594
 2134TIP3    H128037  -0.006   0.099   7.823  0.3957  0.4041 -0.3280
 2134TIP3    H228038   0.025  -0.039   7.877  0.9374  1.3852  1.9768
 2135TIP3   OH228039   2.702   2.923   8.419  0.1189  0.5404  0.6747
 2135TIP3    H128040   2.744   3.007   8.432  0.8944  0.2801 -0.0415
 2135TIP3    H228041   2.632   2.941   8.356  1.2292  0.4078 -0.6540
 2136TIP3   OH228042   0.120   6.393   7.482  0.0939 -0.8452  0.1624
 2136TIP3    H128043   0.110   6.440   7.565 -1.1424  1.2770 -1.1120
 2136TIP3    H228044   0.052   6.326   7.484 -0.7322 -0.0177  0.3674
 2137TIP3   OH228045   5.909   4.681   1.102 -0.5404  0.4261  0.4043
 2137TIP3    H128046   5.980   4.735   1.067 -1.9645  2.1439 -0.0245
 2137TIP3    H228047   5.837   4.693   1.040 -0.5143 -3.2971 -0.5882
 2138TIP3   OH228048   6.594   4.611   8.768 -0.2965  0.6076 -0.2609
 2138TIP3    H128049   6.665   4.598   8.705  0.0966 -0.2835  0.3415
 2138TIP3    H228050   6.514   4.600   8.717  0.0091 -1.9270 -0.2950
 2139TIP3   OH228051   0.508   6.410   2.033 -0.5574 -0.0447 -0.6671
 2139TIP3    H128052   0.568   6.446   1.968  0.7606  0.3027  0.6879
 2139TIP3    H228053   0.452   6.484   2.057 -0.2505  0.1457 -0.5349
 2140TIP3   OH228054   1.358   2.863   7.558  0.2125  0.1275 -0.0695
 2140TIP3    H128055   1.355   2.849   7.653 -0.7429  1.6626  0.1713
 2140TIP3    H228056   1.322   2.951   7.546 -0.9358 -0.5568 -1.9813
 2141TIP3   OH228057   6.676   3.360   1.958  0.0801  0.0178 -0.1021
 2141TIP3    H128058   6.627   3.366   1.876  1.5017  1.3344 -0.8966
 2141TIP3    H228059   6.664   3.446   2.000 -1.0189 -0.7856  1.3416
 2142TIP3   OH228060   1.272   6.327   0.529 -0.4911 -0.2190  0.2502
 2142TIP3    H128061   1.195   6.383   0.524 -1.0513 -0.9857  0.0521
 2142TIP3    H228062   1.239   6.244   0.563 -0.1000 -1.1366 -1.4778
 2143TIP3   OH228063   5.257   5.414   7.588 -0.3238 -0.5806 -1.0212
 2143TIP3    H128064   5.293   5.344   7.535 -0.7325 -1.2483 -0.4292
 2143TIP3    H228065   5.220   5.370   7.664  0.4819  0.3840 -0.0450
 2144TIP3   OH228066   6.600   0.108   0.381 -0.3148  0.3158 -0.5273
 2144TIP3    H128067   6.643   0.122   0.466  1.1303 -0.5713 -1.0682
 2144TIP3    H228068   6.507   0.105   0.402 -0.2401  2.7883  0.6499
 2145TIP3   OH228069   5.307   3.263   0.545  0.0251 -0.2740 -0.7543
 2145TIP3    H128070   5.362   3.250   0.468  1.0089 -0.7692  0.0090
 2145TIP3    H228071   5.242   3.193   0.540  0.1917 -0.4114 -1.0356
 2146TIP3   OH228072   6.132   6.687   8.243 -0.3020  0.7473 -1.2604
 2146TIP3    H128073   6.128   6.645   8.157  0.1698 -0.4843 -0.6994
 2146TIP3    H228074   6.120   6.616   8.306 -0.1789  1.5581 -0.2917
 2147TIP3   OH228075   1.164   0.185   7.548 -0.1733  0.1872 -0.2509
 2147TIP3    H128076   1.255   0.169   7.573  0.7719  3.3822 -1.2376
 2147TIP3    H228077   1.151   0.131   7.470  0.3851 -1.3631  0.6931
 2148TIP3   OH228078   1.236   2.006   8.058  0.0010  0.8233 -0.0013
 2148TIP3    H128079   1.145   1.994   8.028  0.5803 -1.0032 -1.1948
 2148TIP3    H228080   1.236   1.973   8.148 -0.0677 -1.4843 -0.7865
 2149TIP3   OH228081   2.854   3.423   1.150  0.5645 -0.8639 -0.5910
 2149TIP3    H128082   2.865   3.363   1.225  1.4449  2.9889  2.7268
 2149TIP3    H228083   2.763   3.451   1.155  1.0699  0.7463  0.2743
 2150TIP3   OH228084   4.683   1.578   8.366 -0.0987 -0.1362 -0.1578
 2150TIP3    H128085   4.622   1.538   8.428  1.9251 -0.7463  1.5698
 2150TIP3    H228086   4.769   1.568   8.407  1.3273 -0.1720 -2.8850
 2151TIP3   OH228087   6.220   5.319   1.728 -0.3121  0.1442  0.0737
 2151TIP3    H128088   6.204   5.361   1.813 -0.0109 -0.4803  0.4521
 2151TIP3    H228089   6.292   5.368   1.690  1.3449 -1.1573  1.3622
 2152TIP3   OH228090   1.445   2.917   0.415 -0.6234 -0.3898 -0.8425
 2152TIP3    H128091   1.517   2.854   0.413 -1.2605 -1.1209 -0.8006
 2152TIP3    H228092   1.424   2.932   0.323  1.0485  1.5612 -1.0043
 2153TIP3   OH228093   3.176   3.397   7.187  0.7585  0.2060 -0.1298
 2153TIP3    H128094   3.172   3.427   7.096 -4.2344 -1.3589 -0.6947
 2153TIP3    H228095   3.179   3.478   7.239 -2.7769  1.5773 -1.7298
 2154TIP3   OH228096   4.980   4.553   2.245  0.3635  0.1699  0.1392
 2154TIP3    H128097   5.063   4.510   2.226  0.8939  0.9234  0.6708
 2154TIP3    H228098   4.992   4.591   2.332 -0.6335  0.0739  0.3319
 2155TIP3   OH228099   5.555   3.262   7.006  0.0805  0.5539 -0.0069
 2155TIP3    H128100   5.606   3.195   7.052  3.9130  2.1942 -1.4391
 2155TIP3    H228101   5.558   3.338   7.064 -1.1765  0.5886  0.0414
 2156TIP3   OH228102   3.989   2.056   1.535  0.0497  0.1817  0.5424
 2156TIP3    H128103   4.013   2.014   1.452  0.5237  1.0736  0.2196
 2156TIP3    H228104   4.049   2.129   1.543 -2.4277  2.4738 -0.2661
 2157TIP3   OH228105   5.731   4.144   7.457  0.0146  0.3130  0.6215
 2157TIP3    H128106   5.814   4.169   7.498 -0.1620  1.9183  0.0594
 2157TIP3    H228107   5.665   4.165   7.523  0.0204 -1.0344  1.0985
 2158TIP3   OH228108   0.322   1.668   1.994  0.7253  0.0014 -0.7532
 2158TIP3    H128109   0.324   1.678   2.089  1.4394 -1.1221 -0.6212
 2158TIP3    H228110   0.256   1.600   1.978 -0.8856  1.5842 -1.2571
 2159TIP3   OH228111   0.130   2.665   7.118  0.3271  0.1967  0.1263
 2159TIP3    H128112   0.043   2.626   7.126 -0.2477  1.5250  0.7828
 2159TIP3    H228113   0.114   2.750   7.078  1.3060  0.5207  0.3935
 2160TIP3   OH228114   4.153   1.167   6.713  0.0266  0.7031 -0.0040
 2160TIP3    H128115   4.167   1.258   6.687 -0.2145  0.6859 -0.2000
 2160TIP3    H228116   4.236   1.141   6.754  0.9303  0.3195 -1.9512
 2161TIP3   OH228117   4.257   1.585   2.054 -0.1835 -0.1305  0.2900
 2161TIP3    H128118   4.345   1.619   2.073 -0.0251 -0.3987  0.0327
 2161TIP3    H228119   4.224   1.643   1.986 -0.4221  0.3096  0.7730
 2162TIP3   OH228120   5.303   2.294   2.580  0.5886  0.1095  0.1518
 2162TIP3    H128121   5.367   2.224   2.570  0.3409 -0.3982  1.8103
 2162TIP3    H228122   5.224   2.261   2.539  1.1623  0.4440 -1.2598
 2163TIP3   OH228123   0.164   4.184   8.837  0.0621 -0.1349  0.5044
 2163TIP3    H128124   0.118   4.264   8.812  2.3092  1.0268 -0.2379
 2163TIP3    H228125   0.188   4.198   8.929  0.5703  0.1206  0.3362
 2164TIP3   OH228126   0.951   6.097   7.142  0.3119  0.1485 -0.1571
 2164TIP3    H128127   0.894   6.043   7.087  0.7689  0.5333 -1.0258
 2164TIP3    H228128   0.897   6.171   7.169  0.1801  0.1287 -0.3701
 2165TIP3   OH228129   0.835   0.009   8.580 -0.0262 -0.7199  0.3515
 2165TIP3    H128130   0.792   0.051   8.506  1.8598  0.0825 -0.3449
 2165TIP3    H228131   0.825  -0.085   8.564 -0.9890 -0.5553 -0.0762
 2166TIP3   OH228132   1.647   1.467   2.320 -1.0494 -0.3212 -0.3289
 2166TIP3    H128133   1.677   1.410   2.391 -0.2812  0.8429  0.3173
 2166TIP3    H228134   1.552   1.458   2.320 -1.0662 -0.2752  0.9121
 2167TIP3   OH228135   3.836   5.379   0.335 -0.1241 -0.3561 -0.7031
 2167TIP3    H128136   3.745   5.406   0.326 -0.2356 -0.5262 -0.1282
 2167TIP3    H228137   3.836   5.286   0.310 -0.6706 -1.1884  2.1099
 2168TIP3   OH228138   0.366   1.638   1.392 -0.3682  0.0529 -0.2546
 2168TIP3    H128139   0.452   1.633   1.351 -0.1304 -0.7801  0.3300
 2168TIP3    H228140   0.326   1.553   1.376 -1.1450  0.4816 -0.6446
 2169TIP3   OH228141   1.350   3.300   6.748  0.0662  0.3809  0.0259
 2169TIP3    H128142   1.269   3.267   6.709 -0.8964  1.7986  0.7709
 2169TIP3    H228143   1.384   3.226   6.799  0.5842 -1.0335 -2.2213
 2170TIP3   OH228144   3.082   3.365   8.104  0.5240  0.7783 -0.0174
 2170TIP3    H128145   3.064   3.312   8.026 -0.5476  1.3392 -0.1777
 2170TIP3    H228146   3.176   3.353   8.120  0.3651 -0.9568 -0.1832
 2171TIP3   OH228147   3.075   4.163   7.771 -0.1264  0.6276 -0.0226
 2171TIP3    H128148   3.035   4.189   7.688 -1.9596 -1.0695  0.2613
 2171TIP3    H228149   3.156   4.119   7.745  0.7662  2.5432 -0.7029
 2172TIP3   OH228150   0.542   2.111   2.289 -0.1416 -0.0161 -0.3028
 2172TIP3    H128151   0.620   2.153   2.327  0.4371 -2.7018  1.7822
 2172TIP3    H228152   0.479   2.111   2.361 -0.4229 -1.8342 -0.5103
 2173TIP3   OH228153   4.536   0.942   1.881 -1.0016  0.4141 -0.0855
 2173TIP3    H128154   4.486   0.893   1.948 -0.4687 -1.3582 -0.9198
 2173TIP3    H228155   4.565   1.021   1.926 -2.1554  0.1200  1.2578
 2174TIP3   OH228156   6.431   3.025   7.841 -0.6644 -0.0685 -0.2565
 2174TIP3    H128157   6.423   3.029   7.745 -0.3734 -1.3032 -0.3580
 2174TIP3    H228158   6.500   2.961   7.856 -1.2365 -0.4712  0.7908
 2175TIP3   OH228159   3.148   2.548   1.391 -0.6265 -0.1072 -0.3545
 2175TIP3    H128160   3.146   2.465   1.437 -1.2012  0.6924  1.1460
 2175TIP3    H228161   3.080   2.541   1.325 -1.5147 -0.4245  0.5641
 2176TIP3   OH228162   0.682   6.245   6.978  0.3250 -0.0099  0.0754
 2176TIP3    H128163   0.755   6.209   6.928  0.5246  1.9955 -1.2026
 2176TIP3    H228164   0.606   6.233   6.921  0.5976  2.5300 -0.9348
 2177TIP3   OH228165   4.304   6.674   8.620 -0.1094 -0.3877 -0.1343
 2177TIP3    H128166   4.214   6.641   8.623 -0.6946  1.1611  2.0673
 2177TIP3    H228167   4.346   6.635   8.697 -0.2045  2.0656  1.2764
 2178TIP3   OH228168   1.612   4.725   0.508 -0.0342  0.3918 -0.1811
 2178TIP3    H128169   1.590   4.636   0.536  0.8033  0.7558  1.7681
 2178TIP3    H228170   1.546   4.746   0.441 -0.1457 -1.7280 -0.8195
 2179TIP3   OH228171   2.852   6.713   0.271  0.5781  0.2562 -0.0647
 2179TIP3    H128172   2.875   6.745   0.358 -1.0230  0.8828  0.1674
 2179TIP3    H228173   2.756   6.712   0.271  0.5271  1.2064 -2.1522
 2180TIP3   OH228174   4.236   5.279   0.341  0.2620  0.3533 -0.4106
 2180TIP3    H128175   4.176   5.278   0.266 -1.0693 -0.4759  0.6003
 2180TIP3    H228176   4.257   5.371   0.354 -1.3595  0.7540 -0.3971
 2181TIP3   OH228177   4.400   1.841   8.522 -0.7189  0.1652 -0.2388
 2181TIP3    H128178   4.392   1.802   8.609  1.9420  2.7826  1.3489
 2181TIP3    H228179   4.311   1.839   8.487 -1.4070 -3.5676  1.2483
 2182TIP3   OH228180   6.567   3.058   0.525 -1.0261  0.6601 -0.4404
 2182TIP3    H128181   6.497   3.121   0.543 -0.4002  0.9762  1.0494
 2182TIP3    H228182   6.575   3.007   0.605  0.2434  0.4351 -0.6816
 2183TIP3   OH228183   1.495   0.159   7.841  0.0075 -0.7509  0.3419
 2183TIP3    H128184   1.445   0.130   7.916 -0.4769 -1.7211 -0.3435
 2183TIP3    H228185   1.507   0.253   7.855 -1.5219 -0.5973  0.7930
 2184TIP3   OH228186   0.924   2.690   0.604 -0.2050 -0.3660 -0.6222
 2184TIP3    H128187   0.962   2.616   0.557  0.0891 -1.3082  1.0210
 2184TIP3    H228188   0.996   2.727   0.655 -0.6735  0.1250 -0.2930
 2185TIP3   OH228189   2.058   6.214   2.166  0.1353 -0.4598  0.1929
 2185TIP3    H128190   2.113   6.286   2.196 -0.4139 -0.1994  0.5814
 2185TIP3    H228191   2.097   6.188   2.082 -0.1020  0.7917 -0.3267
 2186TIP3   OH228192   3.903   1.591   0.904 -0.1402 -0.5739 -0.5565
 2186TIP3    H128193   3.988   1.617   0.939 -0.6406 -1.3723  1.4326
 2186TIP3    H228194   3.840   1.638   0.959 -0.9856 -1.3774 -0.8229
 2187TIP3   OH228195   5.351   6.510   6.167 -0.6215  0.3042 -0.1017
 2187TIP3    H128196   5.401   6.440   6.210  0.8248  1.0137 -0.5446
 2187TIP3    H228197   5.416   6.557   6.115 -1.8400  1.0827 -0.9810
 2188TIP3   OH228198   1.396   1.270   8.602 -0.0524  0.1344  0.2898
 2188TIP3    H128199   1.462   1.202   8.616  0.8517  0.6564 -1.2082
 2188TIP3    H228200   1.401   1.290   8.508 -0.8216  1.7270  0.5512
 2189TIP3   OH228201   4.932   0.255   8.838  0.0000  0.0820  0.0834
 2189TIP3    H128202   5.026   0.240   8.832  0.0274  0.4281 -0.3939
 2189TIP3    H228203   4.909   0.227   8.927  0.4851 -0.3597  0.0782
 2190TIP3   OH228204   6.002   6.043   7.337 -0.1142  0.0180 -0.2756
 2190TIP3    H128205   5.921   6.022   7.291  0.2585  0.8996 -1.3891
 2190TIP3    H228206   6.042   5.958   7.356 -1.7113 -0.4837  1.1411
 2191TIP3   OH228207   5.656   2.616   8.198  0.1480  0.2202  0.0460
 2191TIP3    H128208   5.730   2.675   8.183  0.4738 -0.1721  0.0989
 2191TIP3    H228209   5.673   2.541   8.142 -0.8812  0.6972 -0.9508
 2192TIP3   OH228210   1.882   1.597   2.020 -0.2692 -0.0719  0.1995
 2192TIP3    H128211   1.923   1.666   2.073 -1.9343 -1.3260  3.4378
 2192TIP3    H228212   1.913   1.515   2.060 -2.5564 -1.0788  0.0425
 2193TIP3   OH228213   0.533   0.878   1.689  0.0285  0.2021 -0.1925
 2193TIP3    H128214   0.600   0.920   1.635  1.3164  0.3856  1.4701
 2193TIP3    H228215   0.570   0.878   1.777 -1.4556 -1.2432  0.4774
 2194TIP3   OH228216   3.340   6.291   7.681 -0.2362  0.4512  0.6135
 2194TIP3    H128217   3.354   6.196   7.685 -0.1445  0.4288 -0.2184
 2194TIP3    H228218   3.332   6.311   7.588 -0.2880  1.2605  0.7827
 2195TIP3   OH228219   5.836   6.056   1.323 -0.2122 -0.4745 -0.0501
 2195TIP3    H128220   5.852   6.003   1.245 -0.4298 -0.9966  0.2529
 2195TIP3    H228221   5.871   6.003   1.395  0.7422  0.3619  0.1277
 2196TIP3   OH228222   2.960   2.034   1.640  0.2160  0.2929  0.1250
 2196TIP3    H128223   2.892   2.024   1.707  0.1223  1.4423  0.2136
 2196TIP3    H228224   3.026   1.970   1.665 -0.2267  0.0824  0.8047
 2197TIP3   OH228225   0.596   4.652   8.473  0.3150  0.0548  0.0976
 2197TIP3    H128226   0.683   4.679   8.500  0.5655 -1.0959  0.4784
 2197TIP3    H228227   0.544   4.654   8.553  0.2081 -0.1223  0.0336
 2198TIP3   OH228228   2.616   2.577   1.825  0.3607 -0.7235  0.1261
 2198TIP3    H128229   2.707   2.586   1.795  0.0932 -0.4023 -0.5883
 2198TIP3    H228230   2.624   2.532   1.909  1.2031 -0.4502  0.2032
 2199TIP3   OH228231   6.263   6.267   0.573  0.5893 -1.0693 -0.3302
 2199TIP3    H128232   6.214   6.198   0.618  1.5123 -2.4414 -1.3452
 2199TIP3    H228233   6.206   6.344   0.579 -0.2866 -1.7842  1.2086
 2200TIP3   OH228234   3.277   3.617   1.846  0.4113  0.4496 -0.3370
 2200TIP3    H128235   3.277   3.700   1.797 -0.8153  1.2282  0.8952
 2200TIP3    H228236   3.194   3.618   1.894 -0.1510 -2.0293 -1.1331
 2201TIP3   OH228237   3.865   0.759   7.007  0.1417 -0.1124  0.1645
 2201TIP3    H128238   3.833   0.672   6.983 -1.2740  0.2618  0.5893
 2201TIP3    H228239   3.850   0.812   6.929  0.9686 -0.2224 -0.0798
 2202TIP3   OH228240   2.135   5.998   8.609  0.0900 -0.1919 -0.2228
 2202TIP3    H128241   2.190   6.055   8.554  1.2154  0.4210  1.4669
 2202TIP3    H228242   2.080   6.058   8.659 -0.4419 -0.7093 -0.1740
 2203TIP3   OH228243   6.378   2.699   8.034 -1.0314  0.1198  0.6095
 2203TIP3    H128244   6.313   2.745   7.982  0.3797  0.1597 -1.2597
 2203TIP3    H228245   6.369   2.607   8.007 -1.0695 -0.0563  1.2065
 2204TIP3   OH228246   3.574   6.564   8.267  0.1958  0.4193  0.3888
 2204TIP3    H128247   3.515   6.569   8.343  0.2143 -0.2249  0.4565
 2204TIP3    H228248   3.562   6.475   8.234 -1.1814  1.2464 -1.4926
 2205TIP3   OH228249   1.029   3.723   7.657  0.1000 -0.2897 -0.1091
 2205TIP3    H128250   0.994   3.742   7.570 -0.3856  1.4570  0.4230
 2205TIP3    H228251   0.952   3.696   7.708  0.0452  0.4764  0.2341
 2206TIP3   OH228252   5.424   2.701   1.274 -0.1532  0.1988 -0.1689
 2206TIP3    H128253   5.468   2.618   1.294 -0.5000  0.1356  0.3643
 2206TIP3    H228254   5.341   2.676   1.234 -0.1405  0.2925 -0.2546
 2207TIP3   OH228255   4.834   2.931   0.698  0.2111 -0.0238 -0.8425
 2207TIP3    H128256   4.843   2.959   0.790 -0.3828 -0.7040 -0.5724
 2207TIP3    H228257   4.821   2.836   0.703 -0.3021 -0.0001 -1.6072
 2208TIP3   OH228258   1.896   5.984   6.751  0.2929  0.3095  0.5718
 2208TIP3    H128259   1.890   6.078   6.763 -1.0396  0.1830  1.0070
 2208TIP3    H228260   1.990   5.965   6.759  0.6350  1.6436  0.0060
 2209TIP3   OH228261   3.654   2.688   7.043 -0.4158  0.2923  0.0182
 2209TIP3    H128262   3.624   2.695   6.952 -0.1778 -0.5577 -0.1363
 2209TIP3    H228263   3.575   2.663   7.092 -0.5796  0.9142  0.0723
 2210TIP3   OH228264   5.556   0.028   7.981  0.0226  0.0695 -0.0008
 2210TIP3    H128265   5.472   0.013   7.937  0.2317 -2.0679  0.2127
 2210TIP3    H228266   5.621  -0.009   7.922  0.5669 -0.4978  0.9284
 2211TIP3   OH228267   4.732   2.371   1.415  0.0410  0.3972 -0.9471
 2211TIP3    H128268   4.792   2.446   1.422  1.1060 -0.3479 -1.6789
 2211TIP3    H228269   4.787   2.295   1.431 -0.4864 -0.3779 -2.6130
 2212TIP3   OH228270   4.862   1.918   6.454  0.2491  0.4902  0.0351
 2212TIP3    H128271   4.915   1.931   6.375 -2.0619  0.3465 -1.6519
 2212TIP3    H228272   4.817   2.001   6.467 -1.0728 -0.1571 -0.1864
 2213TIP3   OH228273   2.538   6.672   0.273  0.5354 -0.0400 -0.0095
 2213TIP3    H128274   2.478   6.618   0.221  1.8542 -0.3877 -1.2422
 2213TIP3    H228275   2.534   6.758   0.232  0.0452  0.2340  0.6086
 2214TIP3   OH228276   2.966   3.079   2.441 -0.2025  0.0708  0.5562
 2214TIP3    H128277   2.908   3.038   2.506 -0.3983 -0.0340  0.3196
 2214TIP3    H228278   3.023   3.008   2.412 -0.4343  0.0009  0.2643
 2215TIP3   OH228279   1.623   3.834   0.850  0.2387 -0.1142 -0.0068
 2215TIP3    H128280   1.532   3.864   0.853 -0.0698 -1.1243  2.3447
 2215TIP3    H228281   1.655   3.865   0.765 -1.9887  1.1080 -0.4795
 2216TIP3   OH228282   0.022   4.269   8.411  0.5013  0.0803  0.0898
 2216TIP3    H128283   0.078   4.267   8.489 -0.3436 -1.7389  0.7025
 2216TIP3    H228284  -0.051   4.212   8.433 -0.7853  1.1127 -1.3122
 2217TIP3   OH228285   0.204   6.440   8.364  0.5467 -0.1827 -0.6652
 2217TIP3    H128286   0.241   6.430   8.276  0.2436 -2.4424 -0.5880
 2217TIP3    H228287   0.279   6.430   8.422  0.2030 -3.2700 -0.5697
 2218TIP3   OH228288   3.701   2.886   8.685 -0.0132 -0.6408 -0.3602
 2218TIP3    H128289   3.652   2.902   8.766  0.1333 -0.4885 -0.3029
 2218TIP3    H228290   3.747   2.804   8.701 -0.1863 -0.7432 -0.3842
 2219TIP3   OH228291   0.268   6.607   2.256  0.0509  0.0024 -0.1746
 2219TIP3    H128292   0.311   6.679   2.209 -0.6325  0.4614 -0.1130
 2219TIP3    H228293   0.200   6.650   2.308 -0.5077 -0.7199 -0.3011
 2220TIP3   OH228294   0.262   3.348   1.984  0.6114 -0.0291  0.0084
 2220TIP3    H128295   0.261   3.253   1.975  1.3107  0.1592 -2.6886
 2220TIP3    H228296   0.173   3.375   1.963  0.5606 -0.0434  0.2041
 2221TIP3   OH228297   1.970   2.664   8.320 -0.6351 -0.0624  0.1713
 2221TIP3    H128298   2.016   2.698   8.397  0.4617  0.3092 -0.6196
 2221TIP3    H228299   2.039   2.639   8.260 -1.4761 -0.0066 -0.8454
 2222TIP3   OH228300   2.501   5.292   7.180 -0.7276 -0.2550 -0.0324
 2222TIP3    H128301   2.460   5.209   7.155 -1.0926  0.5719 -2.3477
 2222TIP3    H228302   2.579   5.266   7.229  0.6622 -2.1045 -2.9856
 2223TIP3   OH228303   5.588   0.514   0.319 -0.0158  0.2935  0.2904
 2223TIP3    H128304   5.498   0.503   0.348  0.1292 -0.2408  0.5551
 2223TIP3    H228305   5.616   0.597   0.357 -0.1983  0.1613  0.7163
 2224TIP3   OH228306   0.346   5.809   7.558 -0.3135  0.1156 -0.2009
 2224TIP3    H128307   0.376   5.745   7.493 -2.9604 -0.5968 -0.8574
 2224TIP3    H228308   0.289   5.867   7.509 -2.1377 -0.2530  1.3758
 2225TIP3   OH228309   2.232   0.034   0.387 -0.3738  0.8524 -0.4901
 2225TIP3    H128310   2.187   0.052   0.470  0.9767  0.1976  0.4215
 2225TIP3    H228311   2.214  -0.059   0.370  1.5117  0.2616  0.4917
 2226TIP3   OH228312   5.733   5.501   0.610  0.7495 -0.5132 -0.2365
 2226TIP3    H128313   5.642   5.470   0.619  0.8508 -0.9944 -0.8639
 2226TIP3    H228314   5.779   5.429   0.568  1.7452 -0.8297  1.3065
 2227TIP3   OH228315   2.185   0.438   0.083 -0.4275 -0.4049  0.6161
 2227TIP3    H128316   2.224   0.366   0.032  0.8616 -0.5539  1.7673
 2227TIP3    H228317   2.243   0.512   0.066 -1.0099  0.0241  0.4826
 2228TIP3   OH228318   0.823   6.191   1.687 -0.3726 -0.4134 -0.2715
 2228TIP3    H128319   0.850   6.282   1.692  2.0871 -1.1564  1.3942
 2228TIP3    H228320   0.883   6.152   1.624 -1.3485 -0.9469 -0.9036
 2229TIP3   OH228321   6.358   6.412   1.452 -0.5646  0.0740  0.3669
 2229TIP3    H128322   6.334   6.365   1.532 -2.7244  0.2271 -0.1258
 2229TIP3    H228323   6.431   6.362   1.415 -1.2299 -1.4894  1.0865
 2230TIP3   OH228324   3.056   5.636   6.058  0.2299 -0.1491 -0.1443
 2230TIP3    H128325   2.994   5.570   6.089 -0.0559 -1.1901 -2.7338
 2230TIP3    H228326   3.027   5.717   6.102 -0.4258 -1.3725  1.8111
 2231TIP3   OH228327   5.959   4.132   0.952 -0.0383  0.0031  0.3219
 2231TIP3    H128328   5.943   4.053   1.004  1.9053 -0.4342  0.3533
 2231TIP3    H228329   5.934   4.204   1.009 -1.5358 -0.5510  0.4140
 2232TIP3   OH228330   1.315   1.058   8.162 -0.1849  0.1935 -0.1020
 2232TIP3    H128331   1.390   1.074   8.105  0.1771  0.0191  0.3061
 2232TIP3    H228332   1.239   1.064   8.105  0.0655  1.3114 -0.3459
 2233TIP3   OH228333   1.532   2.665   0.305  0.7379 -0.0116 -0.5267
 2233TIP3    H128334   1.627   2.657   0.290  0.8904 -1.6340  1.0187
 2233TIP3    H228335   1.495   2.672   0.217  2.3172  1.3892 -1.1466
 2234TIP3   OH228336   2.827   3.483   7.490 -0.4920  0.2979 -0.3773
 2234TIP3    H128337   2.889   3.544   7.529  0.5329  1.4152 -3.4794
 2234TIP3    H228338   2.869   3.397   7.496 -0.7758  0.2428  1.6205
 2235TIP3   OH228339   0.044   1.079   1.661 -0.1391  0.1714 -0.1831
 2235TIP3    H128340   0.117   1.038   1.709  0.3650  2.2408  0.9080
 2235TIP3    H228341  -0.034   1.046   1.704  0.2657  0.5418  0.8600
 2236TIP3   OH228342   2.551   2.364   6.544  0.1058 -0.0673  0.0073
 2236TIP3    H128343   2.544   2.381   6.638  3.7229 -1.8963  0.7893
 2236TIP3    H228344   2.637   2.399   6.520  0.6207 -2.3659 -1.8723
 2237TIP3   OH228345   0.122   0.078   2.947 -0.2162 -0.2253 -0.0848
 2237TIP3    H128346   0.087   0.022   2.878  2.0544 -0.8718 -0.7841
 2237TIP3    H228347   0.212   0.097   2.920  1.1905 -1.4295  3.1750
 2238TIP3   OH228348   2.726   0.566   6.318 -0.3896 -0.3324 -0.2277
 2238TIP3    H128349   2.687   0.654   6.314 -0.7314 -0.5142 -2.3114
 2238TIP3    H228350   2.817   0.579   6.291  0.0050 -0.4104  1.0429
 2239TIP3   OH228351   5.798   5.392   8.654  0.0868 -0.2317 -0.1409
 2239TIP3    H128352   5.754   5.392   8.739 -0.0163  0.5119 -0.1794
 2239TIP3    H228353   5.884   5.354   8.670  0.9731  1.9742  0.8150
 2240TIP3   OH228354   6.689   1.695   0.820 -0.5321 -0.2911  0.2968
 2240TIP3    H128355   6.672   1.703   0.726  0.8229 -0.9399 -0.0275
 2240TIP3    H228356   6.638   1.765   0.860 -0.7132  0.3288 -0.9794
 2241TIP3   OH228357   5.648   3.050   7.154  0.4825 -0.4776 -0.0930
 2241TIP3    H128358   5.684   2.977   7.102 -0.9359 -0.7698 -0.7179
 2241TIP3    H228359   5.651   3.018   7.244  3.4329  0.2176  0.1674
 2242TIP3   OH228360   4.783   4.452   7.448 -0.3950 -0.1117 -0.7421
 2242TIP3    H128361   4.782   4.458   7.353 -0.7031 -0.9987 -0.8055
 2242TIP3    H228362   4.712   4.509   7.477  0.1762  0.7448 -0.9953
 2243TIP3   OH228363   4.113   2.170   2.090  0.4896  0.3061 -0.2447
 2243TIP3    H128364   4.031   2.125   2.111  0.2555 -0.2566 -2.1795
 2243TIP3    H228365   4.101   2.258   2.124 -1.2614  0.4689 -1.1677
 2244TIP3   OH228366   2.972   1.466   1.787 -0.0566 -0.1501  0.5621
 2244TIP3    H128367   3.037   1.396   1.780 -1.2323 -1.2143 -0.3962
 2244TIP3    H228368   3.012   1.541   1.745 -0.2525 -1.4396 -2.1445
 2245TIP3   OH228369   5.295   6.081   1.456  0.7015  0.1242 -0.4479
 2245TIP3    H128370   5.301   6.003   1.401 -0.0349  0.4732 -1.0497
 2245TIP3    H228371   5.385   6.099   1.482  0.7929 -1.3873  0.3753
 2246TIP3   OH228372   6.796   1.902   1.426 -0.5627 -0.1031 -0.3400
 2246TIP3    H128373   6.874   1.874   1.379  1.0404  1.0750  1.4884
 2246TIP3    H228374   6.733   1.831   1.411  0.2063 -0.3238 -3.2159
 2247TIP3   OH228375   0.494   4.290   8.558 -0.3605  0.4282 -0.2609
 2247TIP3    H128376   0.534   4.283   8.471 -0.7285 -1.7253 -0.3114
 2247TIP3    H228377   0.564   4.265   8.619 -0.7201 -0.2141 -0.1088
 2248TIP3   OH228378   1.710   2.229   8.858  0.2107 -0.3662  0.7475
 2248TIP3    H128379   1.755   2.238   8.774 -0.8957  1.6673  0.3041
 2248TIP3    H228380   1.642   2.163   8.842  0.3123 -0.3435  0.1985
 2249TIP3   OH228381   3.470   5.050   7.418 -0.0227  0.0938  0.0494
 2249TIP3    H128382   3.418   5.056   7.338 -0.8978  0.5711  0.6344
 2249TIP3    H228383   3.553   5.092   7.396 -0.1731  0.0321 -0.6666
 2250TIP3   OH228384   2.224   4.091   1.225 -0.5854 -0.0130 -0.0029
 2250TIP3    H128385   2.153   4.154   1.236 -0.1604  0.4488  0.1238
 2250TIP3    H228386   2.188   4.023   1.168 -1.2815 -0.0260  0.4518
 2251TIP3   OH228387   5.540   0.467   0.819 -0.6057  0.2253  0.3822
 2251TIP3    H128388   5.600   0.518   0.873  0.9025  0.9216 -1.7717
 2251TIP3    H228389   5.519   0.390   0.871 -0.0641  1.3310  2.3044
 2252TIP3   OH228390   0.765   5.391   1.309 -0.3201  0.5780  0.3672
 2252TIP3    H128391   0.743   5.357   1.222 -0.8941  1.3389  0.2049
 2252TIP3    H228392   0.712   5.470   1.318  0.6061  1.1512  0.9473
 2253TIP3   OH228393   1.220   6.071   8.587  0.2342 -0.0858  0.7714
 2253TIP3    H128394   1.258   5.986   8.566 -0.1286  0.1480 -0.9856
 2253TIP3    H228395   1.286   6.114   8.642  1.5952 -0.4933 -0.4806
 2254TIP3   OH228396   4.476   6.485   0.651  0.0464 -0.8116 -0.4388
 2254TIP3    H128397   4.403   6.548   0.645  0.5510  0.1900  2.3212
 2254TIP3    H228398   4.540   6.516   0.587 -0.9762 -0.3132 -1.2450
 2255TIP3   OH228399   3.295   1.172   0.857  0.3309  0.3579 -0.1826
 2255TIP3    H128400   3.242   1.242   0.894 -0.5201 -0.0821 -0.5416
 2255TIP3    H228401   3.272   1.171   0.764  1.1200  0.2901 -0.3876
 2256TIP3   OH228402   6.345   0.761   7.397  0.6707  0.4503  0.4094
 2256TIP3    H128403   6.333   0.772   7.491 -0.0447  0.4610  0.3167
 2256TIP3    H228404   6.267   0.799   7.357  0.5452 -0.3557 -0.1448
 2257TIP3   OH228405   1.058   3.944   8.379  0.0824  0.1966 -0.1816
 2257TIP3    H128406   1.145   3.981   8.391 -0.2160  0.3688  1.8255
 2257TIP3    H228407   1.042   3.950   8.284  1.0635  2.8364 -0.2716
 2258TIP3   OH228408   4.913   5.161   7.691 -0.0544  0.2714  0.1631
 2258TIP3    H128409   4.960   5.106   7.754 -1.8119  0.0787  1.3852
 2258TIP3    H228410   4.890   5.240   7.740  0.8907  1.3469 -1.0625
 2259TIP3   OH228411   6.507   4.800   7.048  0.0739  0.9024  0.0379
 2259TIP3    H128412   6.569   4.857   7.094 -0.9126  0.7346  1.6839
 2259TIP3    H228413   6.466   4.749   7.118 -0.7042 -0.1975 -1.1747
 2260TIP3   OH228414   2.304   0.474   7.376  0.1232 -0.6949  0.4604
 2260TIP3    H128415   2.213   0.468   7.349  0.2568  3.9528 -2.0549
 2260TIP3    H228416   2.353   0.480   7.294  2.1339  1.0879  1.6904
 2261TIP3   OH228417   3.718   1.273   8.268 -0.2353 -0.6329 -0.4938
 2261TIP3    H128418   3.699   1.293   8.177 -0.0445 -0.6195 -0.5325
 2261TIP3    H228419   3.641   1.303   8.316  0.1521  0.4580 -0.5246
 2262TIP3   OH228420   2.398   2.061   1.249  0.6277  0.0920 -0.1670
 2262TIP3    H128421   2.415   2.147   1.288 -0.7808  0.1032  0.4621
 2262TIP3    H228422   2.424   1.998   1.316  0.6820  0.0458 -0.2305
 2263TIP3   OH228423   1.228   5.704   8.092 -0.2219 -0.2422  0.1661
 2263TIP3    H128424   1.226   5.616   8.128 -0.5995 -0.6828 -0.8736
 2263TIP3    H228425   1.269   5.758   8.160  0.6596 -1.3383  0.5266
 2264TIP3   OH228426   2.403   2.039   0.635  0.0164  0.1075 -0.0612
 2264TIP3    H128427   2.445   2.016   0.552  0.0960  0.7426 -0.1999
 2264TIP3    H228428   2.446   2.120   0.662 -0.6135  0.3677  0.1715
 2265TIP3   OH228429   4.206   3.521   1.970  0.7049 -0.1511 -0.2961
 2265TIP3    H128430   4.261   3.443   1.959  4.1077  1.9248  0.3661
 2265TIP3    H228431   4.122   3.497   1.931  2.4266 -3.2090 -2.5869
 2266TIP3   OH228432   6.366   6.147   8.034  0.4290 -0.1050  0.3431
 2266TIP3    H128433   6.431   6.087   8.072  0.7585 -0.2981 -0.4943
 2266TIP3    H228434   6.416   6.225   8.011  0.2303  0.0085  0.2911
 2267TIP3   OH228435   1.033   1.443   0.963 -0.4306 -0.3478  0.0499
 2267TIP3    H128436   0.987   1.510   0.912 -0.5055 -0.8011 -0.4932
 2267TIP3    H228437   1.110   1.488   0.998 -0.0139 -0.1958 -1.0254
 2268TIP3   OH228438   2.212   0.614   6.822  0.2170 -0.5542 -0.5556
 2268TIP3    H128439   2.148   0.590   6.755  0.3098 -0.4007 -0.7008
 2268TIP3    H228440   2.288   0.646   6.773  0.2111 -0.2560 -0.3740
 2269TIP3   OH228441   2.975   0.447   6.979 -0.3566 -0.3022 -0.5192
 2269TIP3    H128442   3.049   0.472   6.923 -0.6233  0.4157 -0.5644
 2269TIP3    H228443   2.994   0.487   7.064  0.2531 -1.7415  0.0512
 2270TIP3   OH228444   1.531   6.106   0.855  0.4414 -0.7894  0.7448
 2270TIP3    H128445   1.535   6.106   0.951  0.3160 -1.2520  0.7535
 2270TIP3    H228446   1.488   6.188   0.833 -0.5180 -1.1811  1.1306
 2271TIP3   OH228447   5.560   2.476   0.709 -0.2364  0.1873  0.1909
 2271TIP3    H128448   5.562   2.571   0.723  1.6009  0.1647  0.2859
 2271TIP3    H228449   5.621   2.441   0.774 -0.4101 -1.0065 -0.2696
 2272TIP3   OH228450   4.961   1.667   6.683  0.4494  0.1965  0.0785
 2272TIP3    H128451   4.889   1.662   6.619  0.7911 -0.8866 -0.2399
 2272TIP3    H228452   5.012   1.743   6.655  0.8992 -0.5617 -1.3029
 2273TIP3   OH228453   2.923   5.089   1.397  0.5433 -0.6747 -0.0058
 2273TIP3    H128454   2.861   5.150   1.357  1.3459 -0.0353 -0.3011
 2273TIP3    H228455   2.891   5.003   1.373  1.0072 -0.3117 -2.0630
 2274TIP3   OH228456   2.021   4.814   7.563 -0.7961 -0.3157 -0.4629
 2274TIP3    H128457   1.947   4.753   7.560 -2.0648  1.2038 -3.1245
 2274TIP3    H228458   1.989   4.887   7.616  0.1649 -1.1693  1.3914
 2275TIP3   OH228459   4.516   6.052   0.763 -0.4428 -0.0422  0.0340
 2275TIP3    H128460   4.434   6.095   0.740 -0.7331 -0.8758 -0.5247
 2275TIP3    H228461   4.584   6.114   0.736 -0.7769 -0.7735 -2.6891
 2276TIP3   OH228462   3.499   1.677   2.560 -0.3857 -0.0045  0.2867
 2276TIP3    H128463   3.463   1.706   2.644  0.0472 -0.1844  0.5372
 2276TIP3    H228464   3.566   1.741   2.538  0.5071 -0.7284  0.7966
 2277TIP3   OH228465   0.178   4.606   0.031 -0.4178  0.3612  0.9382
 2277TIP3    H128466   0.158   4.653   0.112  0.7439  0.7531  1.0112
 2277TIP3    H228467   0.161   4.669  -0.038  0.3469  0.6432  0.9921
 2278TIP3   OH228468   0.475   2.219   0.805 -0.3500  0.5629  0.2805
 2278TIP3    H128469   0.446   2.189   0.719 -0.1476  1.3141 -0.0653
 2278TIP3    H228470   0.567   2.243   0.792  0.2005 -0.9715  1.1493
 2279TIP3   OH228471   4.487   2.138   8.231 -0.4154 -0.1246 -0.3759
 2279TIP3    H128472   4.527   2.138   8.144 -0.3524 -3.2725 -0.4546
 2279TIP3    H228473   4.545   2.086   8.285 -1.4759  0.0955  1.0446
 2280TIP3   OH228474   0.852   3.947   0.932 -0.2500 -0.0278 -0.1341
 2280TIP3    H128475   0.769   3.980   0.897 -0.1951 -0.2684 -0.4980
 2280TIP3    H228476   0.839   3.944   1.027 -0.0796  1.5333 -0.0455
 2281TIP3   OH228477   3.738   5.693   0.534  0.0629  0.4230  0.3257
 2281TIP3    H128478   3.830   5.670   0.518 -0.0101  0.7656 -0.7042
 2281TIP3    H228479   3.692   5.609   0.536 -0.0351  0.3312 -2.2600
 2282TIP3   OH228480   0.951   5.708   6.903 -0.6390 -0.5154  0.2333
 2282TIP3    H128481   0.967   5.770   6.832 -0.6601  1.3571  1.7983
 2282TIP3    H228482   0.866   5.733   6.939 -0.0754 -0.6215  1.7114
 2283TIP3   OH228483   3.099   4.250   8.440 -0.0269  0.6981 -0.1236
 2283TIP3    H128484   3.098   4.294   8.525  0.3839 -0.1253  0.3158
 2283TIP3    H228485   3.068   4.162   8.458  0.7566  0.2923 -0.6911
 2284TIP3   OH228486   3.558   1.145   0.297  0.2058  0.5813  0.0952
 2284TIP3    H128487   3.481   1.138   0.240  1.3423  0.1236 -1.4339
 2284TIP3    H228488   3.555   1.235   0.329  0.8586  1.7153 -2.7065
 2285TIP3   OH228489   5.400   2.022   8.204 -0.4097 -0.7096  0.2616
 2285TIP3    H128490   5.367   2.059   8.285 -1.0371  0.4052 -0.4681
 2285TIP3    H228491   5.495   2.037   8.207 -0.5407  0.0957  0.4111
 2286TIP3   OH228492   6.005   1.304   0.570 -0.5487 -0.3588 -0.4253
 2286TIP3    H128493   5.957   1.345   0.498 -0.6281  1.4394  0.5786
 2286TIP3    H228494   6.016   1.374   0.634  0.2148 -1.6918  0.9761
 2287TIP3   OH228495   5.999   4.539   7.794  0.4451 -0.6489 -0.0168
 2287TIP3    H128496   6.041   4.617   7.759 -0.0709 -0.6146 -0.5715
 2287TIP3    H228497   5.940   4.510   7.725 -1.1761 -0.1360  1.0855
 2288TIP3   OH228498   6.816   3.178   8.849 -0.3727 -0.1373  0.0857
 2288TIP3    H128499   6.754   3.230   8.900  0.4362  2.6078 -1.4797
 2288TIP3    H228500   6.849   3.239   8.783  2.3346 -2.0958 -0.5421
 2289TIP3   OH228501   1.984   3.357   8.504 -0.0596  0.3953 -0.0469
 2289TIP3    H128502   1.914   3.331   8.445 -0.8324  0.6789  0.7300
 2289TIP3    H228503   1.950   3.433   8.551 -0.4266 -1.1916  2.4450
 2290TIP3   OH228504   6.431   2.978   7.552 -0.2823  0.3863 -0.2542
 2290TIP3    H128505   6.469   3.062   7.522 -1.7034  1.2106  0.1717
 2290TIP3    H228506   6.429   2.924   7.473 -2.0261  1.7948 -1.2478
 2291TIP3   OH228507   1.456   1.157   7.426  0.7936  0.1987 -0.2444
 2291TIP3    H128508   1.378   1.202   7.460 -0.5090 -1.1679 -1.3144
 2291TIP3    H228509   1.520   1.165   7.497 -0.0056  2.0919  0.3330
 2292TIP3   OH228510   1.948   5.625   8.655  0.2462  0.2720  0.2329
 2292TIP3    H128511   2.015   5.559   8.669  1.0796  1.4644  2.1827
 2292TIP3    H228512   1.882   5.606   8.722  0.1344  0.9724  0.3213
 2293TIP3   OH228513   4.216   0.931   1.967 -0.5054 -0.2294 -0.6034
 2293TIP3    H128514   4.122   0.918   1.980 -0.4277 -1.1781 -0.9681
 2293TIP3    H228515   4.233   0.897   1.880  0.1550  0.1138 -0.6145
 2294TIP3   OH228516   6.813   5.814   8.154 -0.1922 -0.0805  0.2002
 2294TIP3    H128517   6.826   5.787   8.063 -2.3606 -0.9364  0.0834
 2294TIP3    H228518   6.896   5.792   8.197  0.1628 -1.6045 -1.1233
 2295TIP3   OH228519   2.555   3.501   8.029 -0.3901 -0.2708 -0.3817
 2295TIP3    H128520   2.532   3.420   7.983 -0.8661 -0.9944  1.0702
 2295TIP3    H228521   2.650   3.496   8.039 -0.4687 -0.9132  0.1328
 2296TIP3   OH228522   1.389   0.019   7.610 -0.0594 -0.3916 -0.0146
 2296TIP3    H128523   1.441   0.056   7.682 -0.0746 -0.7077  0.1609
 2296TIP3    H228524   1.311  -0.016   7.652 -1.5564  2.1085 -0.5323
 2297TIP3   OH228525   1.833   6.100   7.984 -0.1229 -0.2990 -0.3025
 2297TIP3    H128526   1.822   6.013   8.021 -1.0359  1.3618  3.8082
 2297TIP3    H228527   1.744   6.129   7.962  0.1489 -0.2542 -1.4310
 2298TIP3   OH228528   6.466   1.355   2.376  0.0068  0.0438  0.0556
 2298TIP3    H128529   6.404   1.418   2.413 -1.4912 -0.2630 -1.7864
 2298TIP3    H228530   6.432   1.270   2.401  0.6440 -0.0963  0.4553
 2299TIP3   OH228531   6.052   4.554   1.766  0.2281  0.3214  0.3805
 2299TIP3    H128532   6.062   4.623   1.832  0.6585  0.8485 -0.2305
 2299TIP3    H228533   6.074   4.596   1.683  0.0600 -0.4373 -0.0578
 2300TIP3   OH228534   2.641   3.225   1.071  0.1610  0.5096  0.0097
 2300TIP3    H128535   2.568   3.248   1.128 -1.1367 -3.2847  0.1574
 2300TIP3    H228536   2.695   3.166   1.123  0.1918 -1.2361 -1.8900
 2301TIP3   OH228537   3.532   0.964   8.134  0.2115  0.1286 -0.2529
 2301TIP3    H128538   3.490   1.007   8.059  0.2688  0.2964 -0.1904
 2301TIP3    H228539   3.529   0.871   8.114 -0.4730  0.1156 -0.1054
 2302TIP3   OH228540   1.992   0.841   7.835 -0.2180 -0.0125 -0.6139
 2302TIP3    H128541   1.939   0.900   7.782 -2.5619 -1.7740 -0.3995
 2302TIP3    H228542   2.020   0.772   7.775  0.8791  0.2624 -0.4518
 2303TIP3   OH228543   2.697   4.730   0.677  0.5988  0.0630 -0.3216
 2303TIP3    H128544   2.668   4.821   0.674 -0.7045 -0.3325 -0.7475
 2303TIP3    H228545   2.741   4.716   0.593  2.2712  0.7350  0.4191
 2304TIP3   OH228546   0.701   3.965   0.010 -0.6641  0.2585  0.2098
 2304TIP3    H128547   0.630   3.924   0.060 -1.0814 -0.6657 -1.1002
 2304TIP3    H228548   0.748   4.017   0.075 -1.4492 -0.5494  1.4845
 2305TIP3   OH228549   6.130   1.647   8.108  0.3041 -0.4161  0.3066
 2305TIP3    H128550   6.165   1.705   8.176 -1.1805  1.8542 -0.7295
 2305TIP3    H228551   6.036   1.661   8.111 -0.1605 -3.0677  0.1603
 2306TIP3   OH228552   6.438   0.578   2.499 -0.2630  0.1618  0.5928
 2306TIP3    H128553   6.371   0.597   2.434 -1.7226 -1.1197  1.6276
 2306TIP3    H228554   6.521   0.582   2.451 -1.0779  1.5772 -0.7773
 2307TIP3   OH228555   3.427   0.923   1.194 -0.0731 -0.0784 -0.5629
 2307TIP3    H128556   3.491   0.983   1.157  0.0185 -0.0495 -0.3568
 2307TIP3    H228557   3.413   0.954   1.283  0.5908 -0.8386 -0.1767
 2308TIP3   OH228558   5.459   3.912   2.412  0.3871 -0.2478 -0.7692
 2308TIP3    H128559   5.413   3.827   2.412 -1.3527  0.5979 -2.9258
 2308TIP3    H228560   5.402   3.970   2.463  0.6844  0.0763 -0.8029
 2309TIP3   OH228561   1.372   4.069   1.630  0.5703  0.1531 -0.0387
 2309TIP3    H128562   1.449   4.061   1.574  0.5479 -0.7334  0.0429
 2309TIP3    H228563   1.323   3.989   1.616 -0.3126  0.6805 -0.0337
 2310TIP3   OH228564   5.783   0.582   0.942 -0.1090  0.1680  0.2816
 2310TIP3    H128565   5.853   0.518   0.923 -1.0094 -0.3122 -1.6432
 2310TIP3    H228566   5.782   0.640   0.866  0.7263  2.6152  2.0112
 2311TIP3   OH228567   4.496   0.198   6.798  0.5153 -0.3162  0.1521
 2311TIP3    H128568   4.568   0.199   6.734 -1.4827 -0.3568 -2.2399
 2311TIP3    H228569   4.427   0.147   6.755 -1.9083  1.8643  1.2324
 2312TIP3   OH228570   3.193   1.142   0.093 -0.1479  0.0074  0.1538
 2312TIP3    H128571   3.116   1.176   0.048 -0.0044  1.1526  0.7210
 2312TIP3    H228572   3.264   1.200   0.064  0.9971 -2.3423 -2.0895
 2313TIP3   OH228573   0.703   1.110   8.030  0.3440 -0.0352 -0.2045
 2313TIP3    H128574   0.718   1.197   8.067 -0.6373 -0.8138  2.2160
 2313TIP3    H228575   0.694   1.053   8.106 -0.7221 -1.9644 -1.6897
 2314TIP3   OH228576   3.873   5.426   7.372  0.2861  0.0709 -0.6179
 2314TIP3    H128577   3.946   5.366   7.357  0.5545  0.7030 -2.0031
 2314TIP3    H228578   3.879   5.489   7.300 -0.6502  1.0990  0.1810
 2315TIP3   OH228579   4.333   5.276   7.615  0.4502 -0.2899 -0.0020
 2315TIP3    H128580   4.324   5.181   7.606  0.0884 -0.7547  3.6638
 2315TIP3    H228581   4.426   5.290   7.632  0.6554  0.1514 -1.4144
 2316TIP3   OH228582   6.491   0.185   6.312  0.1497  0.2795 -0.1438
 2316TIP3    H128583   6.480   0.129   6.389 -0.7256 -0.9051 -1.0886
 2316TIP3    H228584   6.586   0.188   6.299  0.2386 -0.6994  0.1437
 2317TIP3   OH228585   2.930   3.681   8.301 -0.1039  0.4148 -0.1333
 2317TIP3    H128586   2.848   3.722   8.329 -1.1880 -2.0964  0.7449
 2317TIP3    H228587   2.994   3.707   8.366 -0.3196  1.9747 -0.5171
 2318TIP3   OH228588   4.298   0.138   0.868  0.1159  0.3804  0.5173
 2318TIP3    H128589   4.351   0.145   0.948  0.2103 -1.0286  0.5981
 2318TIP3    H228590   4.356   0.168   0.798 -0.0470  1.8587  0.9839
 2319TIP3   OH228591   1.157   5.942   0.299 -0.4543  0.2511  0.2187
 2319TIP3    H128592   1.140   6.035   0.282 -2.3120 -0.3905 -1.8515
 2319TIP3    H228593   1.253   5.935   0.296 -0.2586  2.1473  0.8040
 2320TIP3   OH228594   6.409   0.326   1.283 -0.1101  0.3224  0.8959
 2320TIP3    H128595   6.438   0.277   1.205 -0.6106 -0.6515  1.3116
 2320TIP3    H228596   6.486   0.327   1.340  0.7453  2.3039 -0.1700
 2321TIP3   OH228597   1.173   2.790   0.035 -0.3250  0.6829  0.5613
 2321TIP3    H128598   1.236   2.802  -0.036 -0.1690 -0.1317  0.5514
 2321TIP3    H228599   1.090   2.771  -0.010  0.0143 -1.0086  0.5729
 2322TIP3   OH228600   1.512   3.586   0.053  0.1672 -0.4419 -0.2439
 2322TIP3    H128601   1.433   3.605   0.002  0.5166 -0.2495 -0.7174
 2322TIP3    H228602   1.539   3.499   0.023 -0.0677 -0.6642  0.1816
 2323TIP3   OH228603   0.363   1.358   1.438  0.1286 -0.0560 -0.0252
 2323TIP3    H128604   0.290   1.350   1.500  0.1355  0.7064  0.0992
 2323TIP3    H228605   0.393   1.269   1.424 -1.3326 -0.4666 -0.6928
 2324TIP3   OH228606   0.626   2.660   6.930 -0.3544  0.1349  0.5053
 2324TIP3    H128607   0.531   2.667   6.939 -0.8151 -1.9500 -1.6278
 2324TIP3    H228608   0.639   2.632   6.839  2.3279  0.4985  0.7057
 2325TIP3   OH228609   0.101   4.986   6.957  0.3663  0.2299 -0.1201
 2325TIP3    H128610   0.176   4.972   7.015 -0.6113 -2.4793  0.6396
 2325TIP3    H228611   0.115   4.925   6.884 -0.7929  0.1273 -0.2769
 2326TIP3   OH228612   6.268   1.229   8.456  0.2233 -0.0929 -0.7408
 2326TIP3    H128613   6.361   1.249   8.465  0.9538 -2.0202 -3.1448
 2326TIP3    H228614   6.231   1.307   8.414  0.0753  1.8268  2.5964
 2327TIP3   OH228615   2.541   1.092   1.979  0.6740 -0.1446 -0.4823
 2327TIP3    H128616   2.623   1.140   1.984  0.3907  0.4551 -1.4585
 2327TIP3    H228617   2.481   1.142   2.034  0.5119  0.3585 -1.1081
 2328TIP3   OH228618   0.040   3.540   0.875  0.3720 -0.4656 -0.6214
 2328TIP3    H128619   0.073   3.619   0.918 -1.9398  0.8200 -1.0380
 2328TIP3    H228620   0.114   3.480   0.875  1.2300  0.3298  2.9593
 2329TIP3   OH228621   0.981   5.445   6.561  0.1961  0.2135 -0.2561
 2329TIP3    H128622   0.996   5.530   6.603 -1.6429  0.8237 -0.7229
 2329TIP3    H228623   1.010   5.458   6.470  1.3074 -0.1409  0.0399
 2330TIP3   OH228624   2.211   2.631   1.718  0.5320 -0.1777 -0.7957
 2330TIP3    H128625   2.250   2.552   1.755  0.8483  0.2777 -0.1345
 2330TIP3    H228626   2.123   2.634   1.757  0.3951 -0.3730 -1.0811
 2331TIP3   OH228627   4.036   0.845   0.902 -0.1639 -0.2730 -0.0430
 2331TIP3    H128628   3.951   0.838   0.944 -0.4057  1.1192 -0.2215
 2331TIP3    H228629   4.089   0.896   0.963 -0.2075  0.8897 -0.9236
 2332TIP3   OH228630   3.834   4.176   1.297  0.2288 -0.0186 -0.1914
 2332TIP3    H128631   3.873   4.188   1.383  0.9455  0.6272 -0.6004
 2332TIP3    H228632   3.840   4.082   1.281 -2.1013 -0.5560  1.4695
 2333TIP3   OH228633   3.275   5.577   0.589  0.6256 -1.2403  0.3052
 2333TIP3    H128634   3.237   5.608   0.507  1.4527  0.9375  0.6914
 2333TIP3    H228635   3.200   5.567   0.648  0.3137 -0.0150  0.1348
 2334TIP3   OH228636   5.601   1.743   8.707  0.6090  0.1404 -0.2123
 2334TIP3    H128637   5.575   1.668   8.654 -0.8013 -0.2167  0.9180
 2334TIP3    H228638   5.694   1.754   8.690  0.7902 -1.7129 -0.6007
 2335TIP3   OH228639   3.337   3.379   2.896 -0.2258  0.3952  0.2314
 2335TIP3    H128640   3.258   3.425   2.924 -1.2423 -0.4852 -1.0470
 2335TIP3    H228641   3.333   3.294   2.939 -0.6552 -0.1270 -0.7977
 2336TIP3   OH228642   6.099   6.166   2.250 -0.5495  0.3319 -0.3469
 2336TIP3    H128643   6.006   6.166   2.272 -0.9511  1.3024 -1.8992
 2336TIP3    H228644   6.118   6.256   2.225  0.7905  0.1202 -0.1589
 2337TIP3   OH228645   1.476   3.980   7.210  0.1524 -0.3278  0.2743
 2337TIP3    H128646   1.515   3.893   7.216 -0.4795 -0.7493 -1.3618
 2337TIP3    H228647   1.513   4.028   7.284  1.3532 -1.6505  0.5627
 2338TIP3   OH228648   3.810   2.676   7.558  0.1914  0.4952 -0.6204
 2338TIP3    H128649   3.798   2.584   7.579 -1.0873  0.5334 -1.0598
 2338TIP3    H228650   3.747   2.693   7.488 -0.6643  2.0343  0.4474
 2339TIP3   OH228651   0.689   5.065   7.288 -0.3447 -0.1587 -0.3171
 2339TIP3    H128652   0.649   5.083   7.373 -1.5232 -0.1526 -0.8565
 2339TIP3    H228653   0.742   5.143   7.269 -1.7041  0.7446 -0.5043
 2340TIP3   OH228654   0.020   2.726   8.013 -0.0339 -0.6903 -0.1268
 2340TIP3    H128655   0.055   2.806   7.976 -0.1512  0.5377  2.2060
 2340TIP3    H228656   0.095   2.666   8.016  0.2166 -0.4415 -1.2727
 2341TIP3   OH228657   3.776   0.117   8.327  0.1486  0.1678 -0.0357
 2341TIP3    H128658   3.737   0.113   8.415  0.4753  0.1046  0.1092
 2341TIP3    H228659   3.823   0.034   8.318  0.0130  0.1203 -0.3211
 2342TIP3   OH228660   2.176   0.934   0.206  0.1023 -0.9625  0.3624
 2342TIP3    H128661   2.093   0.886   0.208 -1.0438  0.8467 -0.5091
 2342TIP3    H228662   2.180   0.970   0.118  0.6163  0.9310  1.1068
 2343TIP3   OH228663   5.132   6.631   1.330  0.2978  0.1310 -0.4854
 2343TIP3    H128664   5.223   6.609   1.347 -0.2019  0.1070  2.7116
 2343TIP3    H228665   5.084   6.551   1.347 -0.5720  0.8919  0.7698
 2344TIP3   OH228666   2.005   1.170   8.662 -0.0458 -0.3163  0.1206
 2344TIP3    H128667   1.995   1.112   8.586  0.9799  0.0728 -0.3161
 2344TIP3    H228668   2.046   1.249   8.628 -0.5981  0.3233  0.8857
 2345TIP3   OH228669   4.412   1.501   2.564 -0.3454 -0.1481  0.1278
 2345TIP3    H128670   4.415   1.531   2.473 -2.4229  2.1576  0.6876
 2345TIP3    H228671   4.502   1.509   2.595 -0.2736  3.6801 -0.4970
 2346TIP3   OH228672   6.549   6.281   8.628  0.4648  0.4385 -0.4018
 2346TIP3    H128673   6.473   6.224   8.618  0.3380  0.3387  0.9476
 2346TIP3    H228674   6.602   6.264   8.550 -0.3409 -0.3228 -0.8077
 2347TIP3   OH228675   5.475   0.893   0.011 -0.1785 -0.2282 -0.0286
 2347TIP3    H128676   5.448   0.983   0.026  0.9504  0.1786 -0.3403
 2347TIP3    H228677   5.454   0.847   0.092  0.9479  0.7493  0.8580
 2348TIP3   OH228678   5.164   5.896   0.687 -0.2276 -0.3559 -0.2393
 2348TIP3    H128679   5.238   5.849   0.727  0.0317  0.6726  0.5177
 2348TIP3    H228680   5.091   5.882   0.747  0.0342  0.7809  0.3614
 2349TIP3   OH228681   2.166   2.788   8.505  0.0051 -0.4655 -0.5421
 2349TIP3    H128682   2.159   2.814   8.597  0.2703  3.3598 -1.4347
 2349TIP3    H228683   2.257   2.759   8.495  0.4570  0.6339  0.1376
 2350TIP3   OH228684   6.781   2.777   1.248 -0.5874 -0.3295 -0.5904
 2350TIP3    H128685   6.801   2.684   1.240  1.0825 -0.2091  1.3012
 2350TIP3    H228686   6.783   2.811   1.159  0.0420 -1.8655 -1.1855
 2351TIP3   OH228687   4.444   4.161   1.727 -0.1840 -0.3364 -0.1441
 2351TIP3    H128688   4.533   4.149   1.761  0.5688 -0.7559 -2.1519
 2351TIP3    H228689   4.428   4.255   1.737 -0.2409 -0.5119  1.8459
 2352TIP3   OH228690   0.169   2.260   0.933 -0.3798 -0.1935  0.8549
 2352TIP3    H128691   0.238   2.197   0.911 -1.6653 -0.9367 -1.3730
 2352TIP3    H228692   0.112   2.213   0.994  0.0855 -0.2307  1.2663
 2353TIP3   OH228693   0.150   1.563   0.013  0.5581  0.0874 -0.2919
 2353TIP3    H128694   0.063   1.546   0.050  0.4473  0.0748 -0.5586
 2353TIP3    H228695   0.210   1.545   0.085  0.4190 -0.9956 -0.4301
 2354TIP3   OH228696   1.292   6.305   8.093 -0.2686 -0.5971  0.0062
 2354TIP3    H128697   1.255   6.222   8.123 -0.7364 -0.2794  0.3165
 2354TIP3    H228698   1.223   6.344   8.040 -0.4751  0.0994  0.7664
 2355TIP3   OH228699   1.553   6.206   0.063  0.4042  0.3282 -0.0393
 2355TIP3    H128700   1.527   6.291   0.028 -0.2239  1.1098  2.1663
 2355TIP3    H228701   1.503   6.197   0.144  1.1369 -1.7497  0.2420
 2356TIP3   OH228702   1.068   6.480   0.607 -0.0046 -0.2209  0.0995
 2356TIP3    H128703   1.076   6.543   0.678  2.1259  2.1595 -2.0483
 2356TIP3    H228704   0.993   6.509   0.556  1.5118  1.3404 -1.4082
 2357TIP3   OH228705   4.105   4.017   8.876  0.4206  0.7244  0.4024
 2357TIP3    H128706   4.118   4.105   8.839  0.1026  0.5513 -0.1233
 2357TIP3    H228707   4.039   3.977   8.820  0.0014  0.4201  1.0954
 2358TIP3   OH228708   0.643   1.581   1.841  0.5106 -0.5181 -0.2786
 2358TIP3    H128709   0.598   1.661   1.867 -1.3515 -1.8121  0.6737
 2358TIP3    H228710   0.613   1.564   1.752 -0.5686 -1.1411  0.1956
 2359TIP3   OH228711   2.112   3.786   0.413  0.8214 -0.1219 -0.3566
 2359TIP3    H128712   2.173   3.790   0.340  2.2861 -0.1794  0.7962
 2359TIP3    H228713   2.149   3.719   0.471 -0.6980 -0.6151  0.1099
 2360TIP3   OH228714   1.372   5.107   0.547  0.1291  0.2546  0.0844
 2360TIP3    H128715   1.374   5.027   0.600 -1.8625  0.2872  0.2756
 2360TIP3    H228716   1.438   5.164   0.588 -0.8643  0.0217  2.1494
 2361TIP3   OH228717   2.932   1.034   0.703  0.0539  0.2243  1.0073
 2361TIP3    H128718   2.948   1.011   0.794 -1.1302 -0.4925  1.0604
 2361TIP3    H228719   2.952   1.127   0.697  0.7920  0.1269  1.8317
 2362TIP3   OH228720   2.713   1.735   7.478  0.3109 -0.4399  0.5299
 2362TIP3    H128721   2.650   1.683   7.528  0.1359 -1.4701 -0.7315
 2362TIP3    H228722   2.797   1.693   7.495  0.4344 -0.0507  0.9084
 2363TIP3   OH228723   1.444   5.571   0.030 -0.4228  0.0935  0.1644
 2363TIP3    H128724   1.448   5.558  -0.065  2.3794  0.2298  0.1990
 2363TIP3    H228725   1.500   5.647   0.046 -0.3059 -0.3313  1.9989
 2364TIP3   OH228726   0.066   6.545   0.543  0.2800  0.0744  0.4839
 2364TIP3    H128727   0.156   6.546   0.509  0.5045  1.1331  1.0637
 2364TIP3    H228728   0.066   6.475   0.609  0.2812 -0.8827 -0.5057
 2365TIP3   OH228729   1.395   2.866   6.882  0.1939 -0.2826 -0.6249
 2365TIP3    H128730   1.453   2.790   6.890 -0.3753 -0.6055  0.6766
 2365TIP3    H228731   1.310   2.835   6.914  0.3255  1.3077  1.5081
 2366TIP3   OH228732   1.672   1.074   8.402 -0.2472  0.3661 -0.4143
 2366TIP3    H128733   1.646   1.065   8.493 -0.9629  0.9075 -0.5581
 2366TIP3    H228734   1.616   1.144   8.368  0.3189  0.4735 -1.1493
 2367TIP3   OH228735   5.976   4.516   0.396 -0.2354  0.9912 -0.7878
 2367TIP3    H128736   6.042   4.553   0.455  0.8706  1.1615 -2.0841
 2367TIP3    H228737   5.905   4.490   0.454  0.6948  1.3826  0.5958
 2368TIP3   OH228738   0.870   5.246   8.673  0.0931  0.2047 -0.5825
 2368TIP3    H128739   0.877   5.183   8.745 -1.9234  0.0327 -0.4654
 2368TIP3    H228740   0.860   5.331   8.716  1.1482  0.4063 -0.7152
 2369TIP3   OH228741   2.474   5.154   8.893  0.3204 -0.0493 -0.4197
 2369TIP3    H128742   2.493   5.247   8.895 -0.4810  0.1493 -1.2450
 2369TIP3    H228743   2.395   5.147   8.840 -2.0147 -0.8145  2.8591
 2370TIP3   OH228744   0.229   3.318   2.601  0.2063  0.0571 -0.0955
 2370TIP3    H128745   0.225   3.318   2.505  0.6853 -1.1121 -0.1343
 2370TIP3    H228746   0.309   3.366   2.621  0.0801  0.3456 -0.2844
 2371TIP3   OH228747   5.833   3.617   8.113  0.2103  0.4585  0.2476
 2371TIP3    H128748   5.883   3.608   8.032 -0.3214  2.7475 -0.3916
 2371TIP3    H228749   5.753   3.566   8.098  1.0916 -0.9875  0.2499
 2372TIP3   OH228750   6.722   5.808   2.188  0.0818  0.4573  0.7487
 2372TIP3    H128751   6.629   5.828   2.197 -0.3449 -1.2092  0.4745
 2372TIP3    H228752   6.727   5.713   2.194  1.7102  0.4680  0.2136
 2373TIP3   OH228753   1.297   2.883   8.725 -0.1624  0.0966 -0.0953
 2373TIP3    H128754   1.331   2.968   8.750 -0.6650  0.7879 -1.6307
 2373TIP3    H228755   1.365   2.845   8.669  0.7204 -1.1939  1.7640
 2374TIP3   OH228756   3.520   1.563   8.138  0.0863 -0.6168  0.0667
 2374TIP3    H128757   3.611   1.536   8.149  0.3302  0.8114  2.1647
 2374TIP3    H228758   3.470   1.482   8.152  0.9889 -1.2186 -0.1079
 2375TIP3   OH228759   6.009   3.369   2.178  0.6223  0.1714  0.0519
 2375TIP3    H128760   5.949   3.316   2.126  1.6015 -0.9769  0.0361
 2375TIP3    H228761   6.090   3.318   2.180  0.6303  0.1541  2.7057
 2376TIP3   OH228762   4.926   2.563   1.471 -0.3243 -0.0177  0.3759
 2376TIP3    H128763   5.007   2.601   1.438  0.0178  0.2392  1.4726
 2376TIP3    H228764   4.878   2.637   1.508 -0.5528 -0.3379  0.7287
 2377TIP3   OH228765   1.193   0.010   8.678 -0.4874  0.8193  0.0301
 2377TIP3    H128766   1.191  -0.064   8.738  0.7004 -0.0654 -0.9773
 2377TIP3    H228767   1.221   0.084   8.732  1.0688 -0.0622  0.4829
 2378TIP3   OH228768   3.759   2.590   0.325 -0.3391 -0.1011 -0.0454
 2378TIP3    H128769   3.825   2.521   0.326 -0.5143 -0.2696 -0.0825
 2378TIP3    H228770   3.787   2.651   0.393 -0.1274 -0.1569 -0.0832
 2379TIP3   OH228771   0.828   5.302   7.242  0.7472 -0.4586 -0.7998
 2379TIP3    H128772   0.854   5.318   7.332 -2.2993 -2.1413  0.5322
 2379TIP3    H228773   0.790   5.385   7.213 -0.6121 -0.6152  0.4379
 2380TIP3   OH228774   1.759   6.070   7.184 -0.2503 -0.6744 -0.0076
 2380TIP3    H128775   1.841   6.028   7.209  0.3237  0.0733 -0.5878
 2380TIP3    H228776   1.735   6.029   7.101 -0.5634 -1.0138  0.2454
 2381TIP3   OH228777   3.073   2.815   8.383  0.2280 -0.0310 -0.6030
 2381TIP3    H128778   3.127   2.746   8.421  1.2277 -0.6384 -2.9432
 2381TIP3    H228779   3.009   2.768   8.329 -0.4633  0.8031 -0.5286
 2382TIP3   OH228780   6.176   5.306   7.331 -0.4314  0.1382  0.0783
 2382TIP3    H128781   6.182   5.244   7.258  2.4017  1.7930 -1.2322
 2382TIP3    H228782   6.203   5.256   7.408 -0.4457 -0.8193 -0.5259
 2383TIP3   OH228783   1.872   4.456   8.832  0.4326  0.7402  0.5757
 2383TIP3    H128784   1.839   4.453   8.922  0.3888  2.4740  0.6605
 2383TIP3    H228785   1.793   4.462   8.778  0.4554 -0.3897  0.3875
 2384TIP3   OH228786   4.657   0.583   0.734  1.0875 -0.5079 -0.2677
 2384TIP3    H128787   4.675   0.677   0.735 -0.3390 -0.2095  1.0384
 2384TIP3    H228788   4.568   0.576   0.769  1.5061 -2.4162  0.4830
 2385TIP3   OH228789   5.351   3.676   1.768  0.2109  0.6483 -0.0344
 2385TIP3    H128790   5.345   3.590   1.810 -1.1497  1.8576  2.4516
 2385TIP3    H228791   5.426   3.718   1.811  0.9067  0.7487 -1.2802
 2386TIP3   OH228792   1.092   3.568   7.241  0.1322 -0.6865  0.0251
 2386TIP3    H128793   1.147   3.625   7.294  0.6055 -1.5091  0.4520
 2386TIP3    H228794   1.074   3.618   7.162 -1.0267  0.7868  1.1575
 2387TIP3   OH228795   5.537   0.741   1.020  0.2629 -0.1682  0.1854
 2387TIP3    H128796   5.445   0.734   0.994  0.7578  0.0429 -1.7888
 2387TIP3    H228797   5.556   0.658   1.063 -0.8040 -0.2689  0.4986
 2388TIP3   OH228798   1.229   1.200   0.339 -0.0641 -0.4712 -0.4452
 2388TIP3    H128799   1.275   1.281   0.361 -0.0807 -0.5258 -0.2097
 2388TIP3    H228800   1.298   1.140   0.310 -0.0194 -0.4633 -0.3550
 2389TIP3   OH228801   5.262   4.854   7.610 -0.1728  0.3033 -0.1742
 2389TIP3    H128802   5.338   4.911   7.600 -1.4425  2.1586  0.3181
 2389TIP3    H228803   5.300   4.768   7.627  1.8969  1.6723  3.1925
 2390TIP3   OH228804   3.828   2.250   7.755 -0.1824  0.1116  0.0773
 2390TIP3    H128805   3.797   2.340   7.742  2.6073  1.2234  0.2764
 2390TIP3    H228806   3.825   2.237   7.850  0.6187  0.5086  0.1654
 2391TIP3   OH228807   1.504   4.820   6.869 -0.1296  0.1493 -0.4068
 2391TIP3    H128808   1.584   4.873   6.876 -0.5739  0.7465  0.2456
 2391TIP3    H228809   1.463   4.850   6.787  0.2579 -0.0862 -0.6902
 2392TIP3   OH228810   5.340   6.447   1.146  0.0974 -0.3045  0.0732
 2392TIP3    H128811   5.247   6.427   1.152 -0.2969  1.0488 -0.8841
 2392TIP3    H228812   5.377   6.414   1.227 -1.2382 -0.7489  0.5318
 2393TIP3   OH228813   0.951   4.648   7.467  0.6210 -0.4667 -0.2696
 2393TIP3    H128814   0.857   4.630   7.461  0.5754 -0.1934 -0.3673
 2393TIP3    H228815   0.973   4.627   7.557  0.7183 -1.7482 -0.5657
 2394TIP3   OH228816   1.255   6.046   1.143 -0.1578  0.2498 -0.5622
 2394TIP3    H128817   1.309   5.968   1.133 -0.5571 -0.2338  0.8240
 2394TIP3    H228818   1.195   6.044   1.069  0.6773 -0.0525 -1.2480
 2395TIP3   OH228819   3.699   5.023   6.921  0.1225 -0.4380 -0.0860
 2395TIP3    H128820   3.618   5.046   6.967 -0.3639  0.0552 -1.1664
 2395TIP3    H228821   3.676   5.026   6.829  1.4188 -0.1704 -0.4111
 2396TIP3   OH228822   3.969   3.797   8.144  0.3998 -0.4684  0.4940
 2396TIP3    H128823   3.897   3.860   8.143  1.8134  1.1873  0.1664
 2396TIP3    H228824   3.929   3.717   8.180 -1.1931  0.8629  1.8756
 2397TIP3   OH228825   3.988   5.519   8.912 -0.0622 -0.0761 -0.3974
 2397TIP3    H128826   4.030   5.446   8.960  0.8821  1.4313  1.1962
 2397TIP3    H228827   4.015   5.506   8.821  1.7167 -0.6704  0.1629
 2398TIP3   OH228828   3.453   1.276   7.875 -0.5773  0.2618 -0.2993
 2398TIP3    H128829   3.488   1.296   7.787 -2.1178 -0.6218 -1.1483
 2398TIP3    H228830   3.531   1.266   7.929  0.8124 -3.9928 -2.5995
 2399TIP3   OH228831   3.362   5.548   8.459  0.0174 -0.0598 -0.0982
 2399TIP3    H128832   3.358   5.632   8.413 -0.0769  0.3014  0.5638
 2399TIP3    H228833   3.433   5.501   8.415 -0.3565  0.1044 -0.8946
 2400TIP3   OH228834   6.237   4.595   8.103 -0.5357  0.5103  0.5189
 2400TIP3    H128835   6.254   4.541   8.180  0.7289  0.4426  0.2145
 2400TIP3    H228836   6.287   4.554   8.033 -1.7293  0.5317 -0.3686
 2401TIP3   OH228837   4.117   0.509   2.021  0.0438 -0.5917  0.3927
 2401TIP3    H128838   4.136   0.417   2.034 -0.5176 -0.3711  3.7350
 2401TIP3    H228839   4.200   0.554   2.037  0.0131 -0.4527  0.1651
 2402TIP3   OH228840   0.870   4.925   1.301  0.6161 -0.3181  0.0251
 2402TIP3    H128841   0.790   4.937   1.251  1.4143  1.3703 -0.9392
 2402TIP3    H228842   0.847   4.951   1.391 -0.0934 -0.5747 -0.0772
 2403TIP3   OH228843   2.083   2.448   8.773  0.0356  0.2696 -0.0486
 2403TIP3    H128844   2.144   2.520   8.787  0.5596 -0.2323  0.3032
 2403TIP3    H228845   2.039   2.437   8.857 -1.3638  1.3589 -0.6107
 2404TIP3   OH228846   3.367   0.914   5.996 -0.4678 -0.3697 -0.3033
 2404TIP3    H128847   3.380   0.989   6.054  0.5447 -0.9998  0.3025
 2404TIP3    H228848   3.324   0.951   5.918  2.5171  1.4031 -1.2556
 2405TIP3   OH228849   0.801   3.624   7.774 -0.5137  1.0337  0.1401
 2405TIP3    H128850   0.738   3.614   7.703 -0.8654  0.6567  0.4975
 2405TIP3    H228851   0.747   3.625   7.854  0.0820 -2.2937  0.7151
 2406TIP3   OH228852   1.979   0.609   1.052 -0.3124 -0.5978 -0.6120
 2406TIP3    H128853   1.954   0.666   0.979 -1.3204  0.4798  0.5306
 2406TIP3    H228854   1.897   0.591   1.097  0.4637 -0.0383  1.1037
 2407TIP3   OH228855   5.289   0.335   2.155  0.3625 -0.1933 -0.2468
 2407TIP3    H128856   5.318   0.306   2.069  0.3767  0.3768 -0.4358
 2407TIP3    H228857   5.361   0.311   2.214  0.5628 -0.1476 -0.4719
 2408TIP3   OH228858   5.676   0.694   7.622 -0.3950 -0.3179 -0.2569
 2408TIP3    H128859   5.668   0.660   7.711  1.6740 -2.5879 -0.8557
 2408TIP3    H228860   5.619   0.639   7.569 -0.3593 -0.0304 -0.6022
 2409TIP3   OH228861   4.540   0.443   8.376 -0.4843  0.2088  0.5435
 2409TIP3    H128862   4.508   0.513   8.319  0.5496  0.0370 -0.2713
 2409TIP3    H228863   4.631   0.429   8.349  0.4812  1.0436  3.1434
 2410TIP3   OH228864   1.126   2.264   7.953 -0.0464  0.5073  0.7114
 2410TIP3    H128865   1.154   2.352   7.928 -0.4975  0.1803 -1.1306
 2410TIP3    H228866   1.206   2.221   7.984  1.5880 -0.1118 -3.5767
 2411TIP3   OH228867   1.176   4.632   8.059 -0.0173  0.4863  0.2224
 2411TIP3    H128868   1.154   4.580   8.137 -0.3923 -0.5028 -0.5223
 2411TIP3    H228869   1.103   4.692   8.048 -0.8533 -0.5948 -0.3781
 2412TIP3   OH228870   3.962   2.485   0.736 -0.3280 -0.0224 -0.0964
 2412TIP3    H128871   3.918   2.567   0.760  1.1174  0.4475  1.0276
 2412TIP3    H228872   3.932   2.469   0.646 -1.7285  0.9769  0.1402
 2413TIP3   OH228873   0.723   4.086   2.039 -0.4364  0.4641  0.0200
 2413TIP3    H128874   0.789   4.078   2.109  1.0635 -0.1238 -1.3856
 2413TIP3    H228875   0.687   4.174   2.050  0.8186  0.9300  0.6710
 2414TIP3   OH228876   4.346   1.046   0.095  0.5135 -0.3083 -0.1038
 2414TIP3    H128877   4.264   0.999   0.112  1.3296 -1.0148  2.3441
 2414TIP3    H228878   4.322   1.138   0.098 -0.4691 -0.5011 -1.2050
 2415TIP3   OH228879   1.324   1.223   1.283  1.1809  0.3766 -0.6502
 2415TIP3    H128880   1.386   1.294   1.266 -0.3869  1.8322 -0.5525
 2415TIP3    H228881   1.333   1.207   1.377  0.9036  1.1057 -0.4880
 2416TIP3   OH228882   1.370   5.520   1.648  0.4939  0.6099 -0.3489
 2416TIP3    H128883   1.375   5.594   1.709  0.7812  0.3123 -0.0131
 2416TIP3    H228884   1.415   5.449   1.692 -0.4160  0.0149 -0.3660
 2417TIP3   OH228885   4.337   5.857   8.844  1.0056  0.1425  0.3764
 2417TIP3    H128886   4.420   5.897   8.818  0.4880  0.0168 -1.6024
 2417TIP3    H228887   4.331   5.777   8.791  0.2338 -0.5618  1.4812
 2418TIP3   OH228888   5.058   5.057   0.413  0.1277  0.2144 -0.4866
 2418TIP3    H128889   4.963   5.047   0.408  0.0137  1.1914 -0.3511
 2418TIP3    H228890   5.077   5.064   0.507  0.3366  0.0440 -0.5134
 2419TIP3   OH228891   3.458   4.413   0.709  0.0781  0.0619  0.2948
 2419TIP3    H128892   3.367   4.419   0.681  0.2969  1.4253 -0.1883
 2419TIP3    H228893   3.477   4.319   0.709 -1.1165 -0.1921 -0.2762
 2420TIP3   OH228894   4.379   5.706   8.158  0.8001 -0.1893 -0.0440
 2420TIP3    H128895   4.357   5.658   8.078 -0.3461  0.1306  0.0573
 2420TIP3    H228896   4.469   5.682   8.177  1.1485 -0.1563 -1.5216
 2421TIP3   OH228897   1.378   1.289   7.739 -0.3555  0.2032  0.1760
 2421TIP3    H128898   1.296   1.317   7.698 -0.4379 -0.7657 -0.3500
 2421TIP3    H228899   1.446   1.325   7.682 -0.4649 -0.8491 -0.6579
 2422TIP3   OH228900   2.765   4.416   1.869  0.2409  0.0619  0.2199
 2422TIP3    H128901   2.732   4.341   1.918 -1.3267  0.4107 -0.2731
 2422TIP3    H228902   2.786   4.481   1.937 -0.7578  0.0925  0.5080
 2423TIP3   OH228903   4.018   2.288   7.283  0.4953  0.3620 -0.0473
 2423TIP3    H128904   3.984   2.300   7.194 -0.6733  0.2137  0.3604
 2423TIP3    H228905   4.082   2.218   7.275 -0.2274 -0.2539 -0.6420
 2424TIP3   OH228906   6.089   2.037   8.335 -0.0831  0.4957  0.5156
 2424TIP3    H128907   6.089   2.132   8.347 -2.4179  0.5181  0.8180
 2424TIP3    H228908   6.137   2.004   8.411  1.3320  1.4181  0.0691
 2425TIP3   OH228909   5.971   2.196   7.329  0.4348  0.2006 -0.0788
 2425TIP3    H128910   5.949   2.273   7.383 -3.0878 -1.8098  1.7111
 2425TIP3    H228911   5.925   2.211   7.247 -0.1501  0.1354  0.2246
 2426TIP3   OH228912   1.803   6.372   8.129  0.4615 -0.3070 -0.3376
 2426TIP3    H128913   1.809   6.284   8.091 -3.3505 -0.5788 -0.7248
 2426TIP3    H228914   1.767   6.358   8.217 -0.1040  0.8234 -0.3717
 2427TIP3   OH228915   1.969   3.915   0.611 -0.0290 -0.3759  0.0698
 2427TIP3    H128916   1.892   3.964   0.581  0.0038 -0.5562 -0.3043
 2427TIP3    H228917   2.003   3.872   0.533 -0.9188 -2.1940  0.6096
 2428TIP3   OH228918   3.667   0.085   8.565  0.8126  0.0511 -0.4110
 2428TIP3    H128919   3.653   0.139   8.643  1.4698 -0.2200 -0.0959
 2428TIP3    H228920   3.635  -0.001   8.589  1.4246 -0.1428 -0.2854
 2429TIP3   OH228921   4.018   6.355   2.505  0.3037  0.1978  0.0831
 2429TIP3    H128922   4.004   6.426   2.567  1.8607 -0.3784  1.1561
 2429TIP3    H228923   4.037   6.279   2.560  1.1543 -0.4564 -1.0681
 2430TIP3   OH228924   0.347   3.931   8.808 -0.1025  0.0173  0.5160
 2430TIP3    H128925   0.302   4.013   8.788 -0.7113 -0.7037 -1.2838
 2430TIP3    H228926   0.297   3.892   8.880 -0.2288  0.8845  0.9057
 2431TIP3   OH228927   3.115   1.688   1.404  0.1213 -0.5246 -0.1054
 2431TIP3    H128928   3.203   1.652   1.415 -0.1394 -1.0519  0.3531
 2431TIP3    H228929   3.083   1.649   1.323  1.3635  1.9276 -1.8933
 2432TIP3   OH228930   0.451   6.190   7.816  0.7423 -0.6927  0.1491
 2432TIP3    H128931   0.508   6.263   7.790  1.1761 -1.0023  0.2095
 2432TIP3    H228932   0.472   6.121   7.752 -0.7747 -0.2556 -0.8668
 2433TIP3   OH228933   0.360   3.063   0.717 -0.3458 -0.3504 -0.1594
 2433TIP3    H128934   0.317   2.980   0.695 -0.7475  0.0584 -0.9455
 2433TIP3    H228935   0.358   3.066   0.813 -2.0915 -0.3450 -0.1636
 2434TIP3   OH228936   4.899   1.599   7.529  0.2871  0.0920  0.5662
 2434TIP3    H128937   4.887   1.522   7.474 -0.8211 -1.0799  2.3212
 2434TIP3    H228938   4.812   1.639   7.532  0.0093 -0.5708  2.3915
 2435TIP3   OH228939   5.919   5.879   7.068  0.1806  0.4160 -0.2045
 2435TIP3    H128940   5.890   5.788   7.065  1.5183 -0.1156  1.2595
 2435TIP3    H228941   5.945   5.899   6.979 -1.7761 -0.0289 -0.9233
 2436TIP3   OH228942   2.251   3.231   8.524  0.3033  0.0776 -0.0393
 2436TIP3    H128943   2.174   3.287   8.515  1.4900  1.5277 -1.8046
 2436TIP3    H228944   2.271   3.234   8.618  1.4994  4.4428 -0.1981
 2437TIP3   OH228945   5.269   4.283   6.739 -0.3410  0.7095  0.1266
 2437TIP3    H128946   5.311   4.338   6.804  1.8973 -0.0453 -0.5854
 2437TIP3    H228947   5.282   4.194   6.772 -0.7490  0.4218 -0.4838
 2438TIP3   OH228948   5.639   3.972   8.060 -0.4860 -0.1986  0.0292
 2438TIP3    H128949   5.665   3.899   8.115  1.1066  0.2319 -0.1088
 2438TIP3    H228950   5.712   3.985   8.000 -1.1139  0.9439 -0.5344
 2439TIP3   OH228951   3.384   0.034   1.322 -0.2207  0.1519 -0.1038
 2439TIP3    H128952   3.462   0.009   1.371 -0.1669 -0.2759 -0.4004
 2439TIP3    H228953   3.313  -0.014   1.364 -0.1929 -0.1209 -0.3696
 2440TIP3   OH228954   6.241   4.015   7.213  0.0255 -0.2639  0.4864
 2440TIP3    H128955   6.310   4.059   7.263 -0.2566  0.6696  0.0733
 2440TIP3    H228956   6.165   4.017   7.270 -0.6971  2.0543 -0.4590
 2441TIP3   OH228957   3.769   3.156   1.470  0.5383  0.0005 -0.2600
 2441TIP3    H128958   3.787   3.249   1.452  1.0457 -0.0383  0.0288
 2441TIP3    H228959   3.854   3.120   1.494  0.1851 -0.3395  0.5106
 2442TIP3   OH228960   0.717   3.871   7.984 -0.0121 -0.0108  0.1596
 2442TIP3    H128961   0.678   3.951   8.019 -1.1595 -0.3322 -0.3406
 2442TIP3    H228962   0.658   3.845   7.913 -0.2386 -1.8707  0.9731
 2443TIP3   OH228963   6.199   2.174   8.639  0.6393  0.0202  0.0963
 2443TIP3    H128964   6.172   2.172   8.731  0.4667 -0.0107  0.0464
 2443TIP3    H228965   6.155   2.251   8.603  0.8390  0.1251  0.0804
 2444TIP3   OH228966   5.504   1.207   7.822  0.2538  0.7918 -0.9104
 2444TIP3    H128967   5.518   1.120   7.785 -1.4211 -0.1194  0.4141
 2444TIP3    H228968   5.549   1.267   7.762  1.4908 -0.9784 -1.8253
 2445TIP3   OH228969   6.597   2.045   0.644 -0.0508  0.2958  0.7085
 2445TIP3    H128970   6.549   2.093   0.576 -1.0225  1.4286  2.1229
 2445TIP3    H228971   6.531   2.025   0.710  0.6661 -1.6884  0.8793
 2446TIP3   OH228972   5.843   0.962   1.627  0.3575 -0.0765 -0.3588
 2446TIP3    H128973   5.809   1.044   1.663 -0.0334 -0.0874 -0.6982
 2446TIP3    H228974   5.885   0.918   1.701 -2.4547 -1.2054  0.6884
 2447TIP3   OH228975   5.746   3.260   7.926  0.7630 -0.0899  0.4225
 2447TIP3    H128976   5.817   3.246   7.863  0.3032  0.4659 -0.2304
 2447TIP3    H228977   5.749   3.182   7.981  0.3782 -1.2211 -1.0682
 2448TIP3   OH228978   1.669   3.358   8.147  0.1988 -0.2041 -0.6827
 2448TIP3    H128979   1.755   3.366   8.106 -0.0729  0.3454 -1.1690
 2448TIP3    H228980   1.608   3.385   8.078 -0.2937  0.3614 -0.0295
 2449TIP3   OH228981   4.737   3.148   6.661 -0.5379 -0.7469  0.3285
 2449TIP3    H128982   4.643   3.128   6.661 -0.8281  0.5213  0.8215
 2449TIP3    H228983   4.753   3.184   6.749  0.1280  0.2901 -0.2073
 2450TIP3   OH228984   4.972   2.020   0.985  0.1739 -0.3679  0.3470
 2450TIP3    H128985   4.958   2.070   0.904 -2.4182 -2.4321 -0.6285
 2450TIP3    H228986   4.911   2.060   1.047  1.0487  0.2317  0.8317
 2451TIP3   OH228987   0.853   4.199   7.970 -0.2059 -0.2630  0.6017
 2451TIP3    H128988   0.781   4.238   7.921  1.3239  2.1342  0.0361
 2451TIP3    H228989   0.899   4.145   7.906 -0.7088 -0.7079  0.6082
 2452TIP3   OH228990   2.893   2.717   7.829  0.8355  0.1418  0.2284
 2452TIP3    H128991   2.806   2.732   7.793  0.9865 -2.4257 -1.5166
 2452TIP3    H228992   2.878   2.698   7.922 -0.4808 -0.2522 -0.0517
 2453TIP3   OH228993   1.991   3.762   2.375 -0.4365 -0.0635  0.2224
 2453TIP3    H128994   1.941   3.844   2.365  0.4056  0.4057 -0.2617
 2453TIP3    H228995   2.079   3.790   2.401  0.3979 -0.6638 -1.7422
 2454TIP3   OH228996   3.150   4.264   2.550 -0.0644 -0.1499 -0.2318
 2454TIP3    H128997   3.131   4.171   2.540 -1.3864  0.2333 -1.5536
 2454TIP3    H228998   3.181   4.291   2.463 -0.9289  0.9153 -0.2163
 2455TIP3   OH228999   3.396   2.917   1.973  0.9880 -0.5622 -0.1912
 2455TIP3    H129000   3.374   2.939   2.063 -0.7072  1.2138 -0.9771
 2455TIP3    H229001   3.487   2.945   1.962  1.4117 -1.3500  1.0921
 2456TIP3   OH229002   5.273   3.324   7.993 -0.6999  0.1473 -0.4188
 2456TIP3    H129003   5.240   3.388   7.930 -3.5779  0.0167  0.8040
 2456TIP3    H229004   5.269   3.368   8.078  0.6180 -0.5404  0.0341
 2457TIP3   OH229005   6.494   2.064   1.959  0.4473 -0.0789  0.0204
 2457TIP3    H129006   6.492   2.017   2.042  0.4238  0.0935  0.1177
 2457TIP3    H229007   6.448   2.146   1.976  0.7708  0.1212 -0.0584
 2458TIP3   OH229008   2.530   6.278   1.160 -0.3189  0.6152 -0.0474
 2458TIP3    H129009   2.547   6.318   1.075 -1.9632 -0.0633 -0.7444
 2458TIP3    H229010   2.584   6.199   1.161  0.9261  1.4491  0.2367
 2459TIP3   OH229011   5.976   1.815   7.882  0.4893 -0.7366  0.2353
 2459TIP3    H129012   5.955   1.799   7.974  1.0395 -1.7427  0.2020
 2459TIP3    H229013   5.910   1.878   7.853  1.3597  0.9498  1.7669
 2460TIP3   OH229014   1.191   1.910   6.934  0.2611  0.4218  0.0516
 2460TIP3    H129015   1.114   1.964   6.948  0.5997  0.7108  0.8511
 2460TIP3    H229016   1.265   1.968   6.951  0.6349 -0.1966  0.5909
 2461TIP3   OH229017   5.239   5.737   8.739 -1.0101 -0.4495  0.8072
 2461TIP3    H129018   5.149   5.759   8.714 -2.0706 -3.7584  1.1786
 2461TIP3    H229019   5.236   5.733   8.835 -0.2233  0.1971  0.8669
 2462TIP3   OH229020   2.927   3.548   1.632 -0.1781 -0.1488  0.8005
 2462TIP3    H129021   2.983   3.532   1.557 -0.3596  2.4077  0.0163
 2462TIP3    H229022   2.950   3.480   1.695  0.9764 -1.5021 -1.0011
 2463TIP3   OH229023   1.068   3.233   2.057  0.2796 -0.2855 -0.0999
 2463TIP3    H129024   1.088   3.146   2.023  1.7699 -0.3752  0.9135
 2463TIP3    H229025   1.107   3.234   2.144 -2.3321  0.3530  1.1729
 2464TIP3   OH229026   2.081   1.148   0.357 -0.1327 -0.5427 -0.6378
 2464TIP3    H129027   2.023   1.148   0.281 -0.5578 -3.0412 -0.4085
 2464TIP3    H229028   2.138   1.072   0.344  2.2361  1.0588 -0.1742
 2465TIP3   OH229029   4.222   3.431   6.312  0.7044  0.1880 -0.2203
 2465TIP3    H129030   4.305   3.461   6.350 -0.1994  1.2113  1.0262
 2465TIP3    H229031   4.183   3.510   6.275 -0.7720  0.2180  1.2928
 2466TIP3   OH229032   4.474   3.488   1.686  0.6635  0.7409  0.4148
 2466TIP3    H129033   4.403   3.423   1.691  1.5517 -0.2342  0.6334
 2466TIP3    H229034   4.449   3.545   1.613 -0.7305  0.8954  0.9813
 2467TIP3   OH229035   4.936   1.365   8.472  0.0005 -0.0947 -0.6027
 2467TIP3    H129036   4.989   1.381   8.394 -0.2858  1.4500 -0.5113
 2467TIP3    H229037   4.948   1.442   8.526 -1.1386 -0.3896  0.1151
 2468TIP3   OH229038   2.089   1.699   1.346  0.8676  0.3381  0.5821
 2468TIP3    H129039   2.175   1.692   1.304  0.6435  0.6852  0.0611
 2468TIP3    H229040   2.063   1.790   1.332 -0.8734 -0.4306 -1.8353
 2469TIP3   OH229041   6.121   6.615   6.848  0.7106 -0.1140 -0.1721
 2469TIP3    H129042   6.143   6.522   6.849  1.2983 -0.0007  1.5159
 2469TIP3    H229043   6.197   6.658   6.887 -0.0681  0.9329  0.2428
 2470TIP3   OH229044   4.420   2.776   7.954  0.9457  0.1131  0.0133
 2470TIP3    H129045   4.359   2.845   7.927 -0.9147 -1.1438  0.8378
 2470TIP3    H229046   4.453   2.806   8.038 -1.6567 -0.9797  1.5314
 2471TIP3   OH229047   1.737   1.701   8.009  0.4481 -0.8026  0.3805
 2471TIP3    H129048   1.792   1.767   7.968  0.5608 -0.6686  0.7394
 2471TIP3    H229049   1.768   1.618   7.973  1.1773 -0.7629  0.8900
 2472TIP3   OH229050   3.602   4.589   6.502  0.2568 -0.4671 -0.5407
 2472TIP3    H129051   3.560   4.633   6.429  0.8513 -0.5084 -0.9191
 2472TIP3    H229052   3.544   4.516   6.523  0.2833 -0.7011 -1.2436
 2473TIP3   OH229053   4.245   6.053   7.149 -0.0728 -0.3838 -0.3302
 2473TIP3    H129054   4.328   6.076   7.191  0.9695  0.3523 -2.6258
 2473TIP3    H229055   4.194   6.134   7.151 -0.0061 -0.3382 -0.5567
 2474TIP3   OH229056   3.140   5.867   8.085 -0.0765 -0.7862 -0.4758
 2474TIP3    H129057   3.184   5.926   8.147 -1.1457 -0.0644 -0.3908
 2474TIP3    H229058   3.093   5.925   8.026 -3.1980 -1.5249  1.1037
 2475TIP3   OH229059   2.575   4.206   1.293  0.3122  0.2059 -0.0870
 2475TIP3    H129060   2.517   4.154   1.237 -0.7647  0.2455  0.9581
 2475TIP3    H229061   2.661   4.200   1.250 -0.6516  1.1186 -2.3384
 2476TIP3   OH229062   2.770   0.670   8.025 -0.0914  0.6511 -0.6550
 2476TIP3    H129063   2.864   0.667   8.004  0.3720 -2.5060  1.1997
 2476TIP3    H229064   2.765   0.723   8.105  0.2656  0.1851 -0.3141
 2477TIP3   OH229065   4.190   2.924   6.361  0.6353  0.0845  0.2984
 2477TIP3    H129066   4.230   2.848   6.402  1.4415  0.2248 -0.1918
 2477TIP3    H229067   4.240   2.999   6.395 -0.2822  0.4215  0.9360
 2478TIP3   OH229068   2.958   6.321   0.892 -0.4201  0.1654 -0.8526
 2478TIP3    H129069   2.881   6.361   0.932 -0.2482 -0.7658  0.4879
 2478TIP3    H229070   3.010   6.289   0.966  0.4282 -0.7270 -1.7912
 2479TIP3   OH229071   3.890   2.562   6.698  0.8812 -0.4788 -0.5487
 2479TIP3    H129072   3.899   2.488   6.637  2.4910 -0.1522 -0.7483
 2479TIP3    H229073   3.802   2.597   6.680  0.2882 -2.0254 -0.7982
 2480TIP3   OH229074   1.798   4.987   0.155  0.2791  0.3421 -0.2274
 2480TIP3    H129075   1.803   4.907   0.208  0.9413  1.6548  1.8186
 2480TIP3    H229076   1.727   5.038   0.195  0.3680  1.1129 -1.0218
 2481TIP3   OH229077   1.615   3.340   6.648 -0.4307  0.2020  0.3122
 2481TIP3    H129078   1.522   3.316   6.645 -0.4435  0.3004 -2.5768
 2481TIP3    H229079   1.616   3.424   6.694 -1.8333  0.4489 -0.0538
 2482TIP3   OH229080   3.111   2.920   1.325 -0.3227  0.0366 -0.1084
 2482TIP3    H129081   3.116   2.861   1.251 -1.2104  1.1058 -1.0552
 2482TIP3    H229082   3.030   2.895   1.370 -0.4392  0.2050 -0.2237
 2483TIP3   OH229083   2.707   6.641   7.725 -0.5886 -0.0989  0.5142
 2483TIP3    H129084   2.634   6.686   7.768  0.0367  0.7095  0.7524
 2483TIP3    H229085   2.783   6.695   7.744 -0.0122 -0.6389 -0.2016
 2484TIP3   OH229086   3.555   2.008   1.347 -0.2916 -0.5717  0.0035
 2484TIP3    H129087   3.555   1.920   1.383  0.7834 -0.3350  0.6195
 2484TIP3    H229088   3.642   2.019   1.309 -0.4691  0.1650 -0.2087
 2485TIP3   OH229089   3.993   6.610   0.499 -0.0459  0.5564  0.2827
 2485TIP3    H129090   4.022   6.566   0.419 -2.6070 -1.9351  0.5477
 2485TIP3    H229091   3.903   6.638   0.479 -0.5061  0.4536  2.0379
 2486TIP3   OH229092   2.559   5.781   0.759  0.0113  0.3410  0.3472
 2486TIP3    H129093   2.625   5.826   0.707  0.6556 -1.5184 -0.5309
 2486TIP3    H229094   2.497   5.747   0.695  0.9700 -2.2395  0.6528
 2487TIP3   OH229095   0.102   6.811   8.326 -0.1620  0.5619  0.3592
 2487TIP3    H129096   0.192   6.831   8.300 -0.8496  0.7349 -2.1159
 2487TIP3    H229097   0.068   6.756   8.255 -2.0157  0.4980  1.2419
 2488TIP3   OH229098   5.660   5.130   1.744  0.5225  0.4906 -0.5232
 2488TIP3    H129099   5.581   5.130   1.690  0.0792  1.2745  0.1050
 2488TIP3    H229100   5.714   5.059   1.708 -1.0683 -1.0091 -0.0734
 2489TIP3   OH229101   3.646   0.163   0.747  0.4571  0.3898  0.9183
 2489TIP3    H129102   3.731   0.187   0.785 -0.0793  1.8279  1.2863
 2489TIP3    H229103   3.590   0.147   0.823  0.4024 -0.6877  0.6760
 2490TIP3   OH229104   3.666   2.024   7.722  0.1817  0.3113  0.7336
 2490TIP3    H129105   3.609   2.065   7.787 -2.1659 -0.4449 -0.7599
 2490TIP3    H229106   3.741   2.083   7.716 -0.7978  1.7821  2.1824
 2491TIP3   OH229107   0.738   0.308   7.638 -0.1190 -0.0595  0.2300
 2491TIP3    H129108   0.657   0.259   7.618 -0.8026  1.3111 -0.4988
 2491TIP3    H229109   0.710   0.399   7.643  1.2537  0.3452  0.8594
 2492TIP3   OH229110   2.587   6.425   0.916  0.2469 -0.5930 -0.0875
 2492TIP3    H129111   2.585   6.515   0.949  2.6048 -1.2188  2.1178
 2492TIP3    H229112   2.627   6.432   0.830  0.6178  0.4560  0.1530
 2493TIP3   OH229113   5.880   5.355   6.634 -0.3190  0.1255 -0.5000
 2493TIP3    H129114   5.853   5.296   6.704 -1.2993 -0.0136 -0.9736
 2493TIP3    H229115   5.916   5.297   6.566 -0.7340  0.1207 -0.7192
 2494TIP3   OH229116   1.770   5.856   8.114 -0.2453 -0.5263  0.1779
 2494TIP3    H129117   1.739   5.890   8.197  3.5704  1.8247  0.8519
 2494TIP3    H229118   1.851   5.810   8.135  1.2730  0.8165 -2.2547
 2495TIP3   OH229119   0.171   0.473   7.598  0.0813 -0.2826 -0.9556
 2495TIP3    H129120   0.231   0.469   7.672 -1.2264 -4.8129  0.1619
 2495TIP3    H229121   0.107   0.541   7.622  1.8967  1.1470  0.0728
 2496TIP3   OH229122   6.002   3.593   7.871  0.2604  0.1988  0.1621
 2496TIP3    H129123   5.948   3.627   7.799 -0.4846 -0.9853  0.1391
 2496TIP3    H229124   6.079   3.556   7.828 -0.1800 -0.5011 -0.0381
 2497TIP3   OH229125   6.210   5.466   8.615  0.9815 -0.2523  0.8990
 2497TIP3    H129126   6.145   5.531   8.591 -0.9132 -2.1451  0.5887
 2497TIP3    H229127   6.293   5.503   8.587 -0.1484  1.5147 -0.2816
 2498TIP3   OH229128   4.062   0.067   0.518  0.2458 -0.1124  0.6814
 2498TIP3    H129129   3.967   0.060   0.527  0.0312  0.9960 -0.5245
 2498TIP3    H229130   4.095  -0.018   0.548 -1.2031 -0.9857 -0.1053
 2499TIP3   OH229131   6.118   6.196   7.924 -0.5990  0.3536 -0.1797
 2499TIP3    H129132   6.183   6.207   7.994 -2.1361  1.1266  1.1754
 2499TIP3    H229133   6.034   6.207   7.967 -1.6013  1.1249 -2.2162
 2500TIP3   OH229134   3.851   3.048   1.044 -0.1449  0.1276 -0.4677
 2500TIP3    H129135   3.864   2.974   1.104 -1.8909 -2.5322 -3.0779
 2500TIP3    H229136   3.936   3.059   1.001  0.6915  1.0527  1.3324
 2501TIP3   OH229137   4.420   2.834   8.515  0.3241  0.0411 -0.2127
 2501TIP3    H129138   4.361   2.780   8.463 -2.8132  1.1120  1.9515
 2501TIP3    H229139   4.467   2.772   8.571 -0.4532 -0.6851 -0.3531
 2502TIP3   OH229140   2.510   0.663   7.949 -0.0296 -0.0694 -0.0838
 2502TIP3    H129141   2.601   0.644   7.971  0.1788  0.7260 -0.2370
 2502TIP3    H229142   2.499   0.627   7.861  0.1401 -0.1410 -0.0767
 2503TIP3   OH229143   6.591   1.255   7.819 -0.2132  0.8291  0.0118
 2503TIP3    H129144   6.522   1.276   7.881  0.3667  1.0941  0.5705
 2503TIP3    H229145   6.549   1.262   7.733 -0.7949  1.3034  0.3337
 2504TIP3   OH229146   3.011   1.591   8.806  0.1805  0.2109 -0.3702
 2504TIP3    H129147   2.924   1.605   8.844  0.5996  1.6190  0.0957
 2504TIP3    H229148   3.072   1.628   8.869  1.1024 -0.3018 -0.9335
 2505TIP3   OH229149   3.216   6.422   7.213 -0.2972  0.1380  0.2097
 2505TIP3    H129150   3.258   6.473   7.143  1.1048 -0.5033  0.5596
 2505TIP3    H229151   3.231   6.473   7.292  1.7646 -1.0897  0.6882
 2506TIP3   OH229152   1.061   2.151   0.809  0.3220  0.5220 -0.0791
 2506TIP3    H129153   1.045   2.231   0.859  2.3977  0.0161  1.5276
 2506TIP3    H229154   1.140   2.113   0.848 -0.1929 -1.9699 -1.2464
 2507TIP3   OH229155   3.964   1.667   6.971  0.0302  0.1678 -0.0231
 2507TIP3    H129156   3.904   1.641   6.901  1.2678 -0.5978 -0.8384
 2507TIP3    H229157   4.046   1.687   6.925  0.4094  1.1838  1.0615
 2508TIP3   OH229158   5.463   3.734   8.228 -0.0018  0.2431  0.4214
 2508TIP3    H129159   5.419   3.650   8.221  0.4306  0.0794 -0.5731
 2508TIP3    H229160   5.525   3.735   8.155 -0.1080  1.4862  0.3173
 2509TIP3   OH229161   4.993   4.699   0.114  0.1077 -0.6340 -0.3802
 2509TIP3    H129162   4.939   4.644   0.170 -1.5699  2.0394  0.8426
 2509TIP3    H229163   5.038   4.758   0.174  0.6533  0.3076 -1.6569
 2510TIP3   OH229164   4.675   5.086   6.690  0.1233 -0.1847 -0.5078
 2510TIP3    H129165   4.676   5.177   6.663  2.7375 -0.1701 -0.5948
 2510TIP3    H229166   4.596   5.078   6.743  1.0727  2.8145  1.6401
 2511TIP3   OH229167   0.316   5.726   7.082  0.0347 -0.0708  0.2626
 2511TIP3    H129168   0.347   5.803   7.035 -1.1308  0.1319 -0.2062
 2511TIP3    H229169   0.300   5.661   7.013 -2.6052  0.5416  0.2088
 2512TIP3   OH229170   2.123   5.665   1.554 -1.1154 -0.1475  0.0177
 2512TIP3    H129171   2.041   5.665   1.603 -1.4884 -1.0359 -0.5741
 2512TIP3    H229172   2.165   5.747   1.577 -0.9903 -0.7834  2.2827
 2513TIP3   OH229173   2.388   2.411   6.856  0.1282 -1.2382  0.2058
 2513TIP3    H129174   2.302   2.421   6.897  0.0272  4.7600 -0.6926
 2513TIP3    H229175   2.450   2.440   6.923  0.5978  1.5892 -1.3033
 2514TIP3   OH229176   1.113   3.763   0.346 -0.3662 -0.1570 -0.2712
 2514TIP3    H129177   1.052   3.793   0.279 -0.3942  1.1214  0.3084
 2514TIP3    H229178   1.196   3.803   0.323  0.0955 -1.2675 -0.6115
 2515TIP3   OH229179   2.258   2.312   1.632 -0.5173  0.4541 -0.4343
 2515TIP3    H129180   2.261   2.243   1.699 -1.6572 -0.7837 -1.6103
 2515TIP3    H229181   2.168   2.344   1.635 -0.8564 -0.2576 -1.9562
 2516TIP3   OH229182   3.665   1.041   1.482  0.0582  0.4101 -0.2797
 2516TIP3    H129183   3.667   1.137   1.488  1.9974  0.3882  0.1502
 2516TIP3    H229184   3.590   1.015   1.536  1.3173  1.5809  2.2416
 2517TIP3   OH229185   0.417   5.656   7.355  0.2408  0.2375  0.3795
 2517TIP3    H129186   0.376   5.669   7.269  0.4730 -1.0917  0.0444
 2517TIP3    H229187   0.511   5.662   7.337  0.3138 -0.6730  0.4074
 2518TIP3   OH229188   2.789   0.064   0.553  0.1653 -0.1482  0.1917
 2518TIP3    H129189   2.698   0.068   0.583  1.0782 -0.6740  3.4150
 2518TIP3    H229190   2.809   0.153   0.523 -1.1969  0.1184  0.0001
 2519TIP3   OH229191   1.575   4.466   0.577  0.0409  0.0308 -0.0146
 2519TIP3    H129192   1.629   4.393   0.609  1.7147  1.6832  1.1664
 2519TIP3    H229193   1.486   4.431   0.576  0.4516 -1.4165  2.6093
 2520TIP3   OH229194   1.529   5.378   2.259  0.2278  0.2104 -0.2455
 2520TIP3    H129195   1.551   5.471   2.252  1.4219 -0.0385 -0.0616
 2520TIP3    H229196   1.510   5.350   2.170  0.7780  0.4363 -0.4409
 2521TIP3   OH229197   3.648   6.549   6.938  0.2101  0.3116  0.2410
 2521TIP3    H129198   3.661   6.500   7.018 -0.4527 -1.7160 -0.8307
 2521TIP3    H229199   3.645   6.483   6.869 -1.1891  1.7954 -1.2198
 2522TIP3   OH229200   2.419   5.526   7.078 -0.5181 -0.1532  0.7817
 2522TIP3    H129201   2.499   5.540   7.029 -1.8192  0.7933 -1.2005
 2522TIP3    H229202   2.424   5.434   7.107  2.2552  0.4741  2.7506
 2523TIP3   OH229203   0.106   1.354   0.715  0.2091  0.2545  0.1853
 2523TIP3    H129204   0.119   1.437   0.670  0.5672  0.0029 -0.1832
 2523TIP3    H229205   0.021   1.363   0.759  0.2304  0.7963  0.1156
 2524TIP3   OH229206   4.432   5.442   7.383 -0.4338  0.6737  0.4469
 2524TIP3    H129207   4.480   5.365   7.353 -1.2553  0.7761 -1.2836
 2524TIP3    H229208   4.388   5.413   7.463 -1.5478 -1.0288 -0.7033
 2525TIP3   OH229209   5.807   5.180   6.889  0.1419 -0.5476 -0.0663
 2525TIP3    H129210   5.749   5.242   6.934  1.3114  0.6053 -0.0967
 2525TIP3    H229211   5.753   5.142   6.821 -0.8292 -0.1382  0.4529
 2526TIP3   OH229212   5.078   3.471   1.129 -1.3918 -0.3536 -0.0957
 2526TIP3    H129213   5.117   3.394   1.088 -2.1175 -1.2261  0.8041
 2526TIP3    H229214   5.113   3.545   1.079  0.7637 -1.1279  0.1677
 2527TIP3   OH229215   5.754   2.695   7.842 -0.6093  0.5940  0.0291
 2527TIP3    H129216   5.811   2.768   7.866  2.2548 -1.0210 -1.2501
 2527TIP3    H229217   5.682   2.734   7.793 -0.9609  2.8033  2.1274
 2528TIP3   OH229218   5.048   5.248   0.215  0.3375 -0.0112 -0.5641
 2528TIP3    H129219   5.138   5.261   0.184  1.2303  2.7544  2.5473
 2528TIP3    H229220   5.055   5.176   0.277 -0.1153 -1.2067 -1.8471
 2529TIP3   OH229221   5.123   6.068   7.725  0.3421  0.0212  0.0358
 2529TIP3    H129222   5.127   6.141   7.786  2.8823  0.6573 -0.7578
 2529TIP3    H229223   5.204   6.019   7.740 -1.1298 -2.5376  0.3381
 2530TIP3   OH229224   3.389   2.562   8.807 -0.0120 -0.0285 -0.0025
 2530TIP3    H129225   3.410   2.618   8.882 -0.1505  0.5270 -0.3768
 2530TIP3    H229226   3.308   2.519   8.832 -1.2939  1.8455 -0.7189
 2531TIP3   OH229227   0.318   3.468   7.408 -0.1387  0.6347 -0.5248
 2531TIP3    H129228   0.244   3.511   7.452  0.7129  0.3033  1.3101
 2531TIP3    H229229   0.284   3.382   7.383 -1.1553  1.4473 -2.1723
 2532TIP3   OH229230   2.271   0.154   1.232 -0.2471 -0.4273  0.0129
 2532TIP3    H129231   2.263   0.098   1.154 -0.0895 -0.7546  0.2300
 2532TIP3    H229232   2.225   0.234   1.208  1.0534  0.0668 -0.9749
 2533TIP3   OH229233   2.541   5.793   8.203 -0.3925  0.1080 -0.0208
 2533TIP3    H129234   2.591   5.821   8.127  0.3111 -0.3120  0.2786
 2533TIP3    H229235   2.572   5.848   8.274 -0.5210 -0.0045  0.1239
 2534TIP3   OH229236   0.672   5.528   7.473 -0.2657 -0.3571  0.5636
 2534TIP3    H129237   0.762   5.496   7.479  0.8553  2.4770 -0.1054
 2534TIP3    H229238   0.666   5.569   7.387 -2.2252 -0.4467  0.6126
 2535TIP3   OH229239   2.517   2.396   8.216 -0.0676  0.5952 -0.2730
 2535TIP3    H129240   2.597   2.347   8.198 -0.2870  0.4941 -0.9807
 2535TIP3    H229241   2.450   2.353   8.163 -0.8433 -0.0068  1.1150
 2536TIP3   OH229242   1.419   2.048   6.947  0.1065 -0.5844  0.1787
 2536TIP3    H129243   1.511   2.035   6.968  0.7113 -0.4865 -2.1302
 2536TIP3    H229244   1.415   2.136   6.910 -0.3548 -1.5609 -2.2668
 2537TIP3   OH229245   3.054   5.766   1.536  0.2555  0.1261 -0.1675
 2537TIP3    H129246   3.030   5.856   1.511  0.1722  0.2226  0.2531
 2537TIP3    H229247   3.039   5.763   1.631  0.2026 -0.3498 -0.1895
 2538TIP3   OH229248   4.434   3.581   7.361 -0.1512  0.5413  0.5571
 2538TIP3    H129249   4.439   3.527   7.283  0.7838  1.3369  0.0510
 2538TIP3    H229250   4.497   3.543   7.422 -1.3236 -0.4558  1.1908
 2539TIP3   OH229251   1.857   3.591   1.815  0.1701  0.2184 -0.3303
 2539TIP3    H129252   1.871   3.625   1.903  1.5578 -1.5231  0.1875
 2539TIP3    H229253   1.944   3.594   1.774 -0.2680  0.1076 -1.2963
 2540TIP3   OH229254   1.866   2.906   0.580  0.5344  0.6966  0.4234
 2540TIP3    H129255   1.838   2.995   0.559 -1.2884 -0.0660 -0.5431
 2540TIP3    H229256   1.944   2.892   0.526  0.5408  1.5347  0.2132
 2541TIP3   OH229257   1.313   5.213   8.175 -0.0815  0.2605  0.0361
 2541TIP3    H129258   1.225   5.185   8.199 -0.2935  1.1483  0.3548
 2541TIP3    H229259   1.359   5.132   8.152  0.0107 -0.6779  3.0459
 2542TIP3   OH229260   4.357   3.197   7.417  0.5301 -0.3985  0.0065
 2542TIP3    H129261   4.449   3.186   7.393  0.3939 -0.7492 -0.3671
 2542TIP3    H229262   4.308   3.163   7.342  0.0923  0.1110  0.0481
 2543TIP3   OH229263   4.196   1.805   7.503  0.7717 -0.0154 -0.6797
 2543TIP3    H129264   4.132   1.861   7.548  0.2805 -0.9107 -0.2487
 2543TIP3    H229265   4.163   1.798   7.413  0.4592 -0.1832 -0.5516
 2544TIP3   OH229266   3.424   6.690   8.014  0.0318  0.1714 -0.6190
 2544TIP3    H129267   3.404   6.709   7.922  0.5939  1.1368 -0.5555
 2544TIP3    H229268   3.520   6.685   8.017  0.0729  1.2308  0.1078
 2545TIP3   OH229269   6.769   4.147   0.424  0.0276  0.0358  0.1916
 2545TIP3    H129270   6.761   4.089   0.349 -0.4686  0.6587 -0.2390
 2545TIP3    H229271   6.788   4.233   0.387 -1.5593  0.6401  0.6681
 2546TIP3   OH229272   3.857   4.378   8.855 -0.2704  0.2027  0.2927
 2546TIP3    H129273   3.917   4.316   8.896  0.1202 -0.0842 -0.6905
 2546TIP3    H229274   3.873   4.369   8.761 -1.8806  0.0745 -0.0030
 2547TIP3   OH229275   2.937   0.036   1.136  0.4201  0.0267 -0.5486
 2547TIP3    H129276   3.015   0.076   1.100  0.4354  0.9832  0.4854
 2547TIP3    H229277   2.866   0.096   1.112  0.3350  0.3135  0.3715
 2548TIP3   OH229278   3.326   0.590   7.892  0.6623 -0.5425 -0.1213
 2548TIP3    H129279   3.373   0.534   7.831  0.3024  1.1560 -2.0896
 2548TIP3    H229280   3.235   0.565   7.883  0.6276 -0.4064 -0.1542
 2549TIP3   OH229281   2.733   5.451   2.038  0.5425  0.1719  0.2668
 2549TIP3    H129282   2.678   5.493   2.104  0.0300  0.8962 -0.5997
 2549TIP3    H229283   2.731   5.511   1.963 -0.3286 -1.4372 -1.0748
 2550TIP3   OH229284   0.308   6.379   7.017  0.0781  0.0078 -0.1869
 2550TIP3    H129285   0.388   6.345   7.057 -0.2035 -0.4269  0.0093
 2550TIP3    H229286   0.239   6.357   7.079 -0.3594 -0.6418 -0.8843
 2551TIP3   OH229287   2.654   3.964   1.705 -0.2420  0.3324  0.6390
 2551TIP3    H129288   2.688   3.962   1.615 -3.2397 -1.2861 -0.6000
 2551TIP3    H229289   2.617   4.052   1.714  0.2466  0.5704  0.3839
 2552TIP3   OH229290   6.380   2.826   1.032 -0.3970  0.6776  0.5936
 2552TIP3    H129291   6.424   2.746   1.063 -0.5099  1.0735  1.8318
 2552TIP3    H229292   6.295   2.825   1.076 -0.7699  1.0158 -0.1119
 2553TIP3   OH229293   0.258   1.421   2.302 -0.3072 -0.1196  0.1422
 2553TIP3    H129294   0.294   1.510   2.303  0.3511 -0.3528 -1.1544
 2553TIP3    H229295   0.192   1.423   2.232 -1.8116 -0.1129  1.4810
 2554TIP3   OH229296   3.923   3.080   7.570  0.2951  0.0934 -0.0094
 2554TIP3    H129297   3.981   3.008   7.595  0.1084 -0.4425 -1.0607
 2554TIP3    H229298   3.838   3.038   7.555 -0.8875  1.0949  3.1935
 2555TIP3   OH229299   6.417   4.301   8.713 -0.5162 -0.4592  0.2545
 2555TIP3    H129300   6.376   4.388   8.708 -1.2747 -0.8572 -1.0289
 2555TIP3    H229301   6.345   4.242   8.733 -0.3967 -1.0369 -0.9423
 2556TIP3   OH229302   4.916   0.670   0.308  0.3426 -0.0919  0.2035
 2556TIP3    H129303   4.967   0.720   0.372 -0.7689 -0.2851  1.2554
 2556TIP3    H229304   4.845   0.729   0.283  0.7470 -0.0295 -0.8464
 2557TIP3   OH229305   2.070   1.907   0.948 -0.3553 -0.2979  0.1910
 2557TIP3    H129306   2.132   1.971   0.914 -1.1341 -0.1425 -0.9913
 2557TIP3    H229307   1.985   1.936   0.915 -0.8355 -1.4318  0.3948
 2558TIP3   OH229308   0.668   5.633   8.153  0.1204  0.2593 -0.3169
 2558TIP3    H129309   0.657   5.725   8.130 -2.1015 -0.2098 -1.4266
 2558TIP3    H229310   0.639   5.626   8.244 -0.1729  0.5710 -0.3879
 2559TIP3   OH229311   6.819   1.374   1.033  0.8288  0.4158 -0.3813
 2559TIP3    H129312   6.741   1.377   0.977  1.2753  0.6682 -1.0069
 2559TIP3    H229313   6.818   1.286   1.072  0.0779  0.5234 -0.1528
 2560TIP3   OH229314   5.205   3.596   6.731  0.0148 -0.4216  0.3934
 2560TIP3    H129315   5.301   3.598   6.732  0.0459 -0.8818  2.5576
 2560TIP3    H229316   5.179   3.673   6.781 -0.7360 -0.7443  0.5046
 2561TIP3   OH229317   1.650   5.296   0.422 -0.2767 -0.3708  0.1353
 2561TIP3    H129318   1.719   5.230   0.426  0.5776  0.3539 -1.6731
 2561TIP3    H229319   1.569   5.248   0.438  0.3329 -1.8327 -1.0022
 2562TIP3   OH229320   6.061   0.949   8.044  0.2450 -0.0783 -0.4445
 2562TIP3    H129321   6.130   0.972   7.982  1.7663 -0.2105  1.1455
 2562TIP3    H229322   5.980   0.975   7.999  1.3168  0.3942 -2.2162
 2563TIP3   OH229323   4.706   2.443   8.486 -0.2412  0.2624  0.3086
 2563TIP3    H129324   4.772   2.511   8.474  0.9285 -0.6581  1.2493
 2563TIP3    H229325   4.754   2.361   8.478 -1.4806 -0.4619 -0.0308
 2564TIP3   OH229326   3.361   2.430   1.815 -0.3605  0.0636 -0.1872
 2564TIP3    H129327   3.453   2.405   1.826 -0.8720 -2.8738 -1.5602
 2564TIP3    H229328   3.363   2.525   1.805  2.6905 -0.0257 -1.5353
 2565TIP3   OH229329   2.661   1.816   0.354 -0.1183 -0.7746  0.1125
 2565TIP3    H129330   2.605   1.879   0.399 -0.7545  0.1035 -1.7770
 2565TIP3    H229331   2.675   1.746   0.417 -0.2797  0.7498  1.9172
 2566TIP3   OH229332   4.003   5.382   1.062  0.0737 -0.2058 -0.2298
 2566TIP3    H129333   3.977   5.290   1.060 -1.8678  0.3164 -0.7472
 2566TIP3    H229334   4.052   5.395   0.981  2.5159 -1.3019  0.9479
 2567TIP3   OH229335   6.081   2.648   7.456  0.1340  0.2327  0.0025
 2567TIP3    H129336   6.026   2.725   7.461  0.1132  0.2500 -0.4412
 2567TIP3    H229337   6.148   2.670   7.391  2.4456  1.3273  2.5511
 2568TIP3   OH229338   3.246   6.269   8.467  0.0901 -0.2506  0.0422
 2568TIP3    H129339   3.182   6.335   8.441  1.2526 -0.0222 -2.5485
 2568TIP3    H229340   3.296   6.310   8.537 -1.0748  0.4630  0.4824
 2569TIP3   OH229341   5.287   0.569   0.804 -0.4868 -0.1212 -0.2132
 2569TIP3    H129342   5.356   0.536   0.863 -0.5700  0.5614  0.2830
 2569TIP3    H229343   5.259   0.492   0.755  0.4936 -0.4512 -0.2796
 2570TIP3   OH229344   0.548   0.124   7.529 -0.3173  0.3833  0.2332
 2570TIP3    H129345   0.457   0.128   7.557 -0.6415  1.9382 -0.9173
 2570TIP3    H229346   0.547   0.152   7.438  1.3082  0.3522  0.1678
 2571TIP3   OH229347   3.423   4.233   1.152 -0.0403  0.8092 -0.1223
 2571TIP3    H129348   3.487   4.225   1.081  0.1736 -0.5636  0.2035
 2571TIP3    H229349   3.448   4.165   1.215 -1.3686  0.7518  0.3660
 2572TIP3   OH229350   1.296   6.033   7.903  0.5858  0.3141 -0.1543
 2572TIP3    H129351   1.373   5.977   7.901  0.0959 -0.3671 -0.2926
 2572TIP3    H229352   1.265   6.028   7.994 -0.1647 -0.6380 -0.4442
 2573TIP3   OH229353   6.153   0.140   2.592  0.4855 -0.4213 -0.4306
 2573TIP3    H129354   6.174   0.081   2.664 -0.3256 -0.8242 -0.5143
 2573TIP3    H229355   6.193   0.223   2.616  0.3604 -0.5989  0.4008
 2574TIP3   OH229356   0.762   6.552   0.769  0.3085  0.1479 -0.2500
 2574TIP3    H129357   0.794   6.505   0.692 -1.8556 -2.4215  0.2999
 2574TIP3    H229358   0.684   6.598   0.738  1.7016  2.5251 -0.4730
 2575TIP3   OH229359   1.715   4.413   1.162  0.1201 -0.0611  0.2569
 2575TIP3    H129360   1.696   4.489   1.108 -1.2985  0.2619  1.1646
 2575TIP3    H229361   1.706   4.338   1.103  3.0355  0.4840 -1.0382
 2576TIP3   OH229362   3.710   5.280   6.309 -0.2729  0.1045 -0.0481
 2576TIP3    H129363   3.667   5.362   6.286 -0.7653 -0.1206  0.0588
 2576TIP3    H229364   3.666   5.252   6.389  0.1380 -0.0821  0.1162
 2577TIP3   OH229365   3.687   4.874   1.280  0.1870 -0.8268  0.4936
 2577TIP3    H129366   3.616   4.811   1.272  0.3694 -1.2079  1.5981
 2577TIP3    H229367   3.706   4.877   1.374 -0.4269  1.5721  0.6160
 2578TIP3   OH229368   2.937   5.046   7.453  0.4105 -0.1646  0.2591
 2578TIP3    H129369   2.922   5.039   7.358  3.2578 -0.7418 -0.2291
 2578TIP3    H229370   2.994   4.971   7.474  0.0696  0.1136  2.3998
 2579TIP3   OH229371   5.793   0.734   7.340  0.2301  0.5086  0.0206
 2579TIP3    H129372   5.738   0.704   7.413  1.1816 -0.3542  0.4068
 2579TIP3    H229373   5.734   0.733   7.265 -0.2619 -0.5594  0.3921
 2580TIP3   OH229374   5.118   0.391   7.096  0.0364  0.3103 -0.2626
 2580TIP3    H129375   5.136   0.471   7.048  1.0650  2.2453  3.0804
 2580TIP3    H229376   5.025   0.373   7.079 -0.2536  2.2864 -0.9650
 2581TIP3   OH229377   0.338   1.841   0.331  0.0153 -0.1354  0.1569
 2581TIP3    H129378   0.323   1.748   0.310  3.6121 -0.0926 -3.9096
 2581TIP3    H229379   0.383   1.839   0.416 -2.9906 -1.6576  1.8872
 2582TIP3   OH229380   3.479   4.722   7.461  0.5787  0.4150  0.2114
 2582TIP3    H129381   3.419   4.663   7.507  0.9335  0.1363  0.3199
 2582TIP3    H229382   3.421   4.784   7.416  0.1396 -0.8548 -1.0495
 2583TIP3   OH229383   1.980   6.786   8.836  0.2396  0.1898 -0.0619
 2583TIP3    H129384   2.073   6.769   8.847  0.8151  2.4795 -0.9659
 2583TIP3    H229385   1.948   6.713   8.782  2.1860  0.9344 -2.3937
 2584TIP3   OH229386   0.312   3.026   7.391 -0.4592 -0.2568 -0.2930
 2584TIP3    H129387   0.293   3.095   7.328 -0.1498  0.6093  0.5452
 2584TIP3    H229388   0.281   3.061   7.475  0.8904 -0.5847  0.3610
 2585TIP3   OH229389   4.383   2.069   8.866  0.7451  0.2033  0.0259
 2585TIP3    H129390   4.356   2.064   8.774  0.3790 -0.1809  0.1475
 2585TIP3    H229391   4.474   2.096   8.863  0.7622  0.1019 -0.4570
 2586TIP3   OH229392   0.648   1.530   8.172 -0.2578  0.1275  0.4010
 2586TIP3    H129393   0.705   1.525   8.248 -1.1803  1.5216  1.2336
 2586TIP3    H229394   0.675   1.457   8.116 -0.3994 -1.7621  2.6369
 2587TIP3   OH229395   6.541   4.728   8.332 -0.2240  0.1232  0.2766
 2587TIP3    H129396   6.614   4.747   8.274  0.0890  0.9146  0.9117
 2587TIP3    H229397   6.528   4.809   8.382 -1.6529  0.0663  0.0477
 2588TIP3   OH229398   0.860   2.560   8.105  0.7290  0.1753  0.2207
 2588TIP3    H129399   0.841   2.601   8.021  2.2178  0.9729  0.2415
 2588TIP3    H229400   0.787   2.585   8.161 -0.4333 -0.6139 -0.8969
 2589TIP3   OH229401   2.236   4.822   7.102  0.3206  0.5267 -0.5890
 2589TIP3    H129402   2.196   4.830   7.016 -0.8601  2.0741  0.0547
 2589TIP3    H229403   2.168   4.782   7.156  0.7356  0.3661 -0.1808
 2590TIP3   OH229404   4.686   0.827   1.632  0.2461 -0.5193  0.3633
 2590TIP3    H129405   4.716   0.818   1.723  0.4738 -1.6836  0.1946
 2590TIP3    H229406   4.602   0.870   1.639 -0.7679 -2.4968  1.3470
 2591TIP3   OH229407   6.505   3.221   2.338 -0.6034 -0.1614  1.2051
 2591TIP3    H129408   6.556   3.300   2.321 -2.2695  0.8140  0.5101
 2591TIP3    H229409   6.445   3.215   2.264 -2.2339 -0.6216  2.4994
 2592TIP3   OH229410   2.411   2.644   8.814  0.2014 -0.0674  0.2466
 2592TIP3    H129411   2.394   2.558   8.852  0.6000 -0.3185 -0.1219
 2592TIP3    H229412   2.464   2.689   8.880 -0.0378 -0.0938  0.4564
 2593TIP3   OH229413   1.252   3.808   8.023  0.3184 -0.1325  0.2338
 2593TIP3    H129414   1.303   3.872   8.073  0.2131  1.3316 -1.4591
 2593TIP3    H229415   1.238   3.848   7.938 -4.7866  0.2330  0.8910
 2594TIP3   OH229416   4.763   5.022   8.122  0.0252  0.7107  0.0651
 2594TIP3    H129417   4.710   4.962   8.068  0.7981  0.6235 -0.6169
 2594TIP3    H229418   4.776   4.975   8.204  1.5790 -0.5904 -0.8630
 2595TIP3   OH229419   1.664   1.181   0.016 -0.2514  0.0552  0.2281
 2595TIP3    H129420   1.589   1.236   0.042  0.1252  0.4983  0.3784
 2595TIP3    H229421   1.737   1.242   0.007 -0.2938 -0.1106 -1.6359
 2596TIP3   OH229422   5.068   4.777   1.057  0.2667 -0.1706  0.7678
 2596TIP3    H129423   5.123   4.831   1.114  2.1206 -0.1013 -0.9892
 2596TIP3    H229424   5.094   4.687   1.077  1.9392 -0.1015 -0.8474
 2597TIP3   OH229425   5.272   2.435   7.853 -0.4214  0.1193  1.0105
 2597TIP3    H129426   5.344   2.466   7.798  0.2479 -0.7341  1.3678
 2597TIP3    H229427   5.305   2.442   7.942 -1.0390  0.3451  1.2252
 2598TIP3   OH229428   3.861   5.529   7.646  0.0121  0.2351  0.3187
 2598TIP3    H129429   3.946   5.494   7.672 -0.7128 -1.7345  0.1965
 2598TIP3    H229430   3.846   5.493   7.558 -0.6455  1.1252  0.0506
 2599TIP3   OH229431   5.349   0.071   1.139 -0.2752  0.0491  0.2310
 2599TIP3    H129432   5.304   0.005   1.088 -0.2498  1.2269 -1.3875
 2599TIP3    H229433   5.434   0.032   1.161 -0.4960 -0.6692 -0.1931
 2600TIP3   OH229434   4.049   2.841   6.142  0.0645 -0.3105  0.0441
 2600TIP3    H129435   4.083   2.901   6.209  1.7958  2.0957 -2.7398
 2600TIP3    H229436   4.128   2.799   6.106 -0.8918 -2.1604 -0.0134
 2601TIP3   OH229437   3.777   1.563   8.358 -0.7241  0.1120 -0.3101
 2601TIP3    H129438   3.812   1.530   8.275  1.3485 -0.1029  0.5996
 2601TIP3    H229439   3.776   1.487   8.416 -0.1397  0.6819  0.4713
 2602TIP3   OH229440   0.762   4.467   7.248  0.0995  0.4308 -0.0624
 2602TIP3    H129441   0.667   4.476   7.244  0.0691  0.0358 -0.3353
 2602TIP3    H229442   0.792   4.483   7.159  0.4268  1.9179  0.2932
 2603TIP3   OH229443   4.000   3.754   7.557  0.5475  0.5648  0.3664
 2603TIP3    H129444   4.063   3.685   7.575 -1.3561 -1.1339  0.9367
 2603TIP3    H229445   3.992   3.803   7.639  1.9286  1.5568 -0.0515
 2604TIP3   OH229446   6.156   6.480   7.719  0.2985  0.2695  0.0850
 2604TIP3    H129447   6.220   6.502   7.787  0.9009 -2.8939  0.7248
 2604TIP3    H229448   6.209   6.455   7.643 -0.2836  0.4188 -0.3804
 2605TIP3   OH229449   3.170   4.449   8.008 -0.1386 -0.2132 -0.4151
 2605TIP3    H129450   3.160   4.376   7.947 -0.1753 -0.3792 -0.2123
 2605TIP3    H229451   3.087   4.496   8.004 -0.1814 -0.2885 -0.4108
 2606TIP3   OH229452   4.866   3.612   6.924  0.4912 -0.0027 -0.5827
 2606TIP3    H129453   4.944   3.663   6.900  1.1153 -1.5215 -1.8920
 2606TIP3    H229454   4.799   3.642   6.864  0.2302  0.7863  0.0741
 2607TIP3   OH229455   3.279   2.853   7.495  0.8365  0.0133 -0.5706
 2607TIP3    H129456   3.258   2.941   7.462  0.1356 -0.2721 -0.9047
 2607TIP3    H229457   3.204   2.831   7.551  0.0919 -1.1160 -1.9506
 2608TIP3   OH229458   1.863   0.830   1.603  0.0732  0.2917  0.2426
 2608TIP3    H129459   1.866   0.908   1.657 -1.7506  0.7541 -0.2451
 2608TIP3    H229460   1.898   0.760   1.659  3.0162  1.6046  0.2329
 2609TIP3   OH229461   5.066   0.963   1.676 -0.2627 -0.5289 -0.1138
 2609TIP3    H129462   4.988   0.980   1.730 -1.0692 -1.2629 -1.0121
 2609TIP3    H229463   5.125   1.036   1.695 -1.8627  0.9889 -0.6806
 2610TIP3   OH229464   2.693   0.350   6.129  0.2469 -0.1529  0.2238
 2610TIP3    H129465   2.689   0.424   6.189  0.5213 -0.2535  0.3716
 2610TIP3    H229466   2.602   0.326   6.113  0.1413  0.5615 -0.2612
 2611TIP3   OH229467   0.412   2.985   1.337 -0.4740  0.0358 -0.0412
 2611TIP3    H129468   0.374   2.959   1.253  0.0504  1.5428 -0.7883
 2611TIP3    H229469   0.505   3.000   1.318  0.0881 -1.5204  1.2774
 2612TIP3   OH229470   6.169   2.057   1.206  0.2422  0.2872 -0.2356
 2612TIP3    H129471   6.233   2.051   1.136  1.1383 -1.2678  0.6635
 2612TIP3    H229472   6.197   2.131   1.259  1.0809 -0.1118 -0.0971
 2613TIP3   OH229473   6.793   5.335   0.288 -1.0400 -0.1914 -0.1780
 2613TIP3    H129474   6.807   5.301   0.376 -0.1416 -1.6220 -0.8348
 2613TIP3    H229475   6.873   5.384   0.269 -1.6485  0.9629  0.1506
 2614TIP3   OH229476   2.787   4.828   8.329 -0.3094 -0.2031  0.9088
 2614TIP3    H129477   2.824   4.743   8.353 -0.4636 -0.3065  0.7781
 2614TIP3    H229478   2.862   4.881   8.305 -0.2985 -0.5947  0.0664
 2615TIP3   OH229479   0.210   4.087   0.570  0.2464 -0.3761 -0.2510
 2615TIP3    H129480   0.247   4.163   0.525  1.1583  0.5063  1.8623
 2615TIP3    H229481   0.128   4.070   0.525 -0.9444  3.0902  0.3379
 2616TIP3   OH229482   4.667   0.019   7.317  0.2776 -0.1790  0.2719
 2616TIP3    H129483   4.693  -0.063   7.273 -0.1342 -0.4948  0.6037
 2616TIP3    H229484   4.653   0.081   7.246  0.8181 -0.3319  0.0272
 2617TIP3   OH229485   4.718   0.374   7.764  0.7136 -0.5617  0.2737
 2617TIP3    H129486   4.662   0.439   7.722  0.9805 -0.8744 -0.5996
 2617TIP3    H229487   4.687   0.370   7.854  0.5285  0.5886  0.2814
 2618TIP3   OH229488   5.853   1.061   8.194 -0.2847 -0.0550  0.1708
 2618TIP3    H129489   5.815   0.981   8.231 -1.1725 -0.0678 -0.7284
 2618TIP3    H229490   5.943   1.037   8.172 -0.2691 -0.5364  0.7237
 2619TIP3   OH229491   6.296   3.771   7.512 -0.1411  0.1904 -0.1704
 2619TIP3    H129492   6.359   3.741   7.447 -0.1152  0.3754 -0.2317
 2619TIP3    H229493   6.213   3.772   7.466 -0.0407  0.7986 -0.3454
 2620TIP3   OH229494   1.383   2.752   2.880 -0.0748 -0.1676 -0.0553
 2620TIP3    H129495   1.457   2.758   2.819  1.1613  0.8868  1.4531
 2620TIP3    H229496   1.385   2.662   2.912 -1.2915 -1.0044 -2.1529
 2621TIP3   OH229497   0.821   5.257   6.321  0.0447 -0.1209 -0.0114
 2621TIP3    H129498   0.750   5.289   6.376 -2.3826  0.3774 -3.1847
 2621TIP3    H229499   0.864   5.337   6.288  1.8189 -0.4123  1.4205
 2622TIP3   OH229500   6.117   2.177   8.908 -0.0995  0.1683 -0.1905
 2622TIP3    H129501   6.086   2.265   8.930  3.0254  1.2812  0.1625
 2622TIP3    H229502   6.123   2.132   8.993  0.4073  0.3609 -0.1246
 2623TIP3   OH229503   3.768   0.114   0.383 -0.9565 -0.0037 -0.3142
 2623TIP3    H129504   3.773   0.020   0.366 -1.1064  0.0601 -0.7172
 2623TIP3    H229505   3.680   0.129   0.416 -0.5934 -0.1622  0.7732
 2624TIP3   OH229506   6.776   0.187   6.272  0.2905  0.3573  0.2037
 2624TIP3    H129507   6.866   0.210   6.252 -0.2090  3.5150  1.0160
 2624TIP3    H229508   6.773   0.182   6.368 -0.3556  0.0713  0.1736
 2625TIP3   OH229509   5.017   4.034   0.696  0.5250  0.1234 -0.1050
 2625TIP3    H129510   5.016   3.975   0.621 -0.8052 -0.3682  0.2660
 2625TIP3    H229511   5.109   4.050   0.713  0.9392 -1.9127 -0.1846
 2626TIP3   OH229512   6.229   2.612   0.118  0.5350 -0.2275  0.4378
 2626TIP3    H129513   6.305   2.659   0.152  0.3781  0.5915 -0.3039
 2626TIP3    H229514   6.154   2.659   0.154  0.3707  0.4255 -0.6796
 2627TIP3   OH229515   0.982   1.095   0.407 -0.1593 -0.2964  0.0572
 2627TIP3    H129516   0.985   1.015   0.355 -0.9460  0.2055 -0.7900
 2627TIP3    H229517   1.071   1.129   0.404 -0.0253 -0.6668 -0.3366
 2628TIP3   OH229518   2.350   5.931   0.952 -0.4349  0.6322  0.1977
 2628TIP3    H129519   2.292   5.865   0.987  1.4392 -1.0624  0.3053
 2628TIP3    H229520   2.419   5.881   0.908  1.1880  2.4937  0.4791
 2629TIP3   OH229521   3.513   0.647   0.503 -0.0972 -0.0542 -0.1020
 2629TIP3    H129522   3.573   0.623   0.573 -0.1345  0.2895  0.0506
 2629TIP3    H229523   3.520   0.742   0.497  0.1724 -0.1119 -0.8084
 2630TIP3   OH229524   6.539   3.051   1.005  0.0487  0.0033 -0.2617
 2630TIP3    H129525   6.608   3.020   0.947 -0.4438 -0.0423 -0.8302
 2630TIP3    H229526   6.471   2.985   0.999  0.0720 -0.1020  0.5293
 2631TIP3   OH229527   5.326   3.817   0.317  0.2089  0.1470 -0.3790
 2631TIP3    H129528   5.324   3.732   0.360 -1.9954  0.5497  0.4423
 2631TIP3    H229529   5.314   3.797   0.224 -0.1429 -0.4489 -0.2112
 2632TIP3   OH229530   6.032   5.055   0.309 -0.6976 -0.0432 -0.0623
 2632TIP3    H129531   5.990   4.970   0.318  1.0712 -0.9098  0.4289
 2632TIP3    H229532   6.081   5.049   0.227 -3.6574  1.9834 -2.2187
 2633TIP3   OH229533   3.409   2.803   0.453 -0.5245 -0.4925  0.6188
 2633TIP3    H129534   3.448   2.829   0.536 -0.4446 -0.2556  0.5068
 2633TIP3    H229535   3.402   2.707   0.459 -0.0431 -0.5239  0.6899
 2634TIP3   OH229536   4.768   1.183   2.697 -0.1866  0.3872  0.6995
 2634TIP3    H129537   4.859   1.176   2.667 -0.1598  2.0897  0.2864
 2634TIP3    H229538   4.739   1.092   2.706  0.9036 -0.2089 -1.1955
 2635TIP3   OH229539   0.679   6.147   8.704 -0.1062 -0.3074  0.2604
 2635TIP3    H129540   0.722   6.229   8.727  1.0071 -0.3449 -1.5309
 2635TIP3    H229541   0.739   6.079   8.736 -1.1965 -0.4870  2.0677
 2636TIP3   OH229542   6.592   5.751   1.414 -0.0206  0.2223 -0.8157
 2636TIP3    H129543   6.649   5.714   1.481 -0.5175  0.2598 -0.3590
 2636TIP3    H229544   6.583   5.844   1.438 -4.2157 -0.6364  2.1527
 2637TIP3   OH229545   6.479   2.066   7.911  0.3231 -0.1693 -0.2343
 2637TIP3    H129546   6.446   1.987   7.953 -3.3565  0.1684 -2.0823
 2637TIP3    H229547   6.403   2.123   7.902  2.4171  2.8130 -0.7699
 2638TIP3   OH229548   4.043   4.750   7.090 -0.1709 -0.1519  0.2197
 2638TIP3    H129549   4.136   4.729   7.081 -0.1005  0.9234 -2.2306
 2638TIP3    H229550   4.042   4.838   7.126 -0.3508 -0.9899  2.4414
 2639TIP3   OH229551   2.974   3.024   6.426 -0.5835  0.0826  0.5668
 2639TIP3    H129552   2.930   3.108   6.415  0.9982  1.0341  1.1127
 2639TIP3    H229553   3.037   3.039   6.496  1.0300 -1.0042 -0.5738
 2640TIP3   OH229554   0.332   3.417   6.472 -0.3807  0.7070  0.0785
 2640TIP3    H129555   0.333   3.484   6.541  1.2496  1.0822 -0.2717
 2640TIP3    H229556   0.413   3.432   6.423 -0.4119 -0.9904 -0.5442
 2641TIP3   OH229557   0.613   4.524   8.201 -0.1514 -0.1252  0.4310
 2641TIP3    H129558   0.621   4.576   8.281  0.2134 -0.8430  0.8741
 2641TIP3    H229559   0.519   4.510   8.190 -0.2913  1.0706  0.0081
 2642TIP3   OH229560   5.998   0.748   6.376  0.2572 -0.0144 -0.6786
 2642TIP3    H129561   6.023   0.805   6.449 -0.7300  0.1353 -0.4405
 2642TIP3    H229562   5.975   0.808   6.305  0.9120 -0.1574 -1.0285
 2643TIP3   OH229563   4.251   3.829   7.100 -0.2875 -0.3209  0.2522
 2643TIP3    H129564   4.173   3.835   7.045 -1.3717  0.6904  1.8230
 2643TIP3    H229565   4.220   3.850   7.188  1.7679  0.0902  0.9243
 2644TIP3   OH229566   5.531   3.932   8.885  0.7542 -0.2881  0.5538
 2644TIP3    H129567   5.497   3.984   8.812  0.6046 -1.0965  0.0350
 2644TIP3    H229568   5.606   3.983   8.918  0.5374  0.3107  0.1412
 2645TIP3   OH229569   0.376   6.426   0.226 -0.5700 -0.1987 -0.3306
 2645TIP3    H129570   0.364   6.454   0.135  1.5008 -0.6009 -0.7811
 2645TIP3    H229571   0.374   6.330   0.222  0.5950 -0.2448 -0.1526
 2646TIP3   OH229572   5.799   5.673   8.473  0.6007 -0.0044 -0.2371
 2646TIP3    H129573   5.757   5.667   8.559 -0.0591 -1.3563 -0.6154
 2646TIP3    H229574   5.729   5.702   8.415  0.5674 -0.7688 -0.5995
 2647TIP3   OH229575   1.533   5.449   8.406  0.3458 -0.2842  0.2812
 2647TIP3    H129576   1.587   5.378   8.441  0.4771 -0.2131  0.2247
 2647TIP3    H229577   1.596   5.516   8.378  0.2146 -0.0511  0.5358
 2648TIP3   OH229578   3.510   4.094   0.255 -0.1158 -0.4235  0.1689
 2648TIP3    H129579   3.495   4.175   0.302 -1.3066 -0.5805  0.0729
 2648TIP3    H229580   3.497   4.116   0.163 -0.4671 -0.7194  0.1437
 2649TIP3   OH229581   3.357   5.706   1.972  0.4268  0.3057 -0.2715
 2649TIP3    H129582   3.274   5.666   1.948  0.1373  0.4036  0.5473
 2649TIP3    H229583   3.335   5.768   2.042  0.9399  1.5508 -1.1752
 2650TIP3   OH229584   6.267   1.040   8.205 -0.1368  1.0354  0.2393
 2650TIP3    H129585   6.181   1.041   8.163 -0.6118 -2.4715  0.8624
 2650TIP3    H229586   6.251   1.074   8.293 -1.0332  0.0229  0.4886
 2651TIP3   OH229587   2.915   2.919   6.764 -0.0030  0.4877  0.5136
 2651TIP3    H129588   2.896   2.830   6.793  0.9401 -0.0275 -0.3818
 2651TIP3    H229589   2.989   2.909   6.704 -0.4820  1.7604 -0.3241
 2652TIP3   OH229590   4.714   4.521   1.673 -0.2598  0.2629 -0.2102
 2652TIP3    H129591   4.755   4.463   1.608 -0.4229  1.2385 -1.2282
 2652TIP3    H229592   4.638   4.556   1.628  0.2294  1.7992  0.1126
 2653TIP3   OH229593   5.573   3.693   7.960  1.0392  0.7338  0.3996
 2653TIP3    H129594   5.624   3.696   7.879 -1.4084 -1.9108 -1.4630
 2653TIP3    H229595   5.573   3.600   7.984 -0.3193  1.1231  2.0598
 2654TIP3   OH229596   0.038   0.907   6.996 -0.2130  0.3187 -0.5908
 2654TIP3    H129597   0.037   0.978   6.933 -0.0183  0.3492 -0.5620
 2654TIP3    H229598  -0.046   0.862   6.985  0.3217 -0.4364 -1.7377
 2655TIP3   OH229599   3.763   6.498   0.664  0.2947 -0.4852  0.1801
 2655TIP3    H129600   3.833   6.492   0.600 -0.2468  0.4630 -0.5227
 2655TIP3    H229601   3.713   6.576   0.639  0.5016  0.3804  2.1967
 2656TIP3   OH229602   5.284   3.492   8.810  0.2148  0.0974  0.8042
 2656TIP3    H129603   5.229   3.476   8.734  0.6396  0.3118  0.4549
 2656TIP3    H229604   5.354   3.427   8.803  1.0489  1.0423  0.2429
 2657TIP3   OH229605   6.290   6.093   7.238 -0.2446 -0.1040  0.5957
 2657TIP3    H129606   6.213   6.051   7.276 -0.2698  1.1347  2.0351
 2657TIP3    H229607   6.358   6.026   7.240 -1.0444 -0.9434  0.1224
 2658TIP3   OH229608   5.438   2.757   7.060 -0.0570 -0.1825  0.3199
 2658TIP3    H129609   5.507   2.820   7.037  0.1618 -0.2248  0.8658
 2658TIP3    H229610   5.455   2.734   7.151 -1.4803  0.6989  0.8448
 2659TIP3   OH229611   2.512   1.738   7.036  0.0978  0.6140 -0.4354
 2659TIP3    H129612   2.438   1.681   7.055  0.4993 -0.1491 -1.1278
 2659TIP3    H229613   2.575   1.720   7.106  0.1215  0.3889 -0.5143
 2660TIP3   OH229614   0.141   0.716   7.186 -0.0125  0.3218  0.0912
 2660TIP3    H129615   0.101   0.643   7.140 -1.8149  0.7425  0.9005
 2660TIP3    H229616   0.106   0.794   7.143  0.5622  0.7119  0.3174
 2661TIP3   OH229617   0.486   1.447   1.227 -0.5654 -0.2165  0.1267
 2661TIP3    H129618   0.465   1.377   1.166  0.6716 -0.4081 -0.0999
 2661TIP3    H229619   0.458   1.414   1.313 -2.3529  0.0752 -0.3028
 2662TIP3   OH229620   5.822   3.557   7.358 -0.6819 -0.0452 -0.3169
 2662TIP3    H129621   5.863   3.592   7.278  1.0561  2.3261  1.4602
 2662TIP3    H229622   5.852   3.467   7.362 -0.6916 -0.1853 -2.2404
 2663TIP3   OH229623   6.495   2.133   1.084 -0.5376 -0.2695  0.0138
 2663TIP3    H129624   6.447   2.214   1.071 -1.4219 -0.6720  0.6392
 2663TIP3    H229625   6.549   2.149   1.161 -1.2636 -0.4978  0.5858
 2664TIP3   OH229626   5.295   0.197   7.056  0.4055 -0.3817  0.5049
 2664TIP3    H129627   5.231   0.266   7.042  1.1638  0.3727  0.6923
 2664TIP3    H229628   5.251   0.135   7.115 -0.4003 -0.2501  0.0637
 2665TIP3   OH229629   6.709   0.097   8.086  0.1894 -0.0524 -0.4250
 2665TIP3    H129630   6.711   0.137   7.999  0.8896 -1.3890 -1.0450
 2665TIP3    H229631   6.758   0.159   8.141  0.1020  0.6000 -1.0592
 2666TIP3   OH229632   6.259   1.357   2.166 -0.1587  0.4655 -0.1898
 2666TIP3    H129633   6.235   1.370   2.258  0.6848  0.3139  0.0698
 2666TIP3    H229634   6.272   1.445   2.132 -1.2243  0.5573 -0.3884
 2667TIP3   OH229635   0.672   0.079   7.282  0.0745 -0.0269  0.2149
 2667TIP3    H129636   0.656   0.150   7.220 -1.1700 -0.0327  0.5033
 2667TIP3    H229637   0.726   0.119   7.350  1.0743  0.0956 -0.6129
 2668TIP3   OH229638   4.718   1.809   1.100  0.0334 -0.6930 -0.6152
 2668TIP3    H129639   4.805   1.825   1.136  0.7251 -1.1907 -2.0207
 2668TIP3    H229640   4.693   1.892   1.060  0.4709 -0.9386 -1.4231
 2669TIP3   OH229641   0.300   1.945   8.135  0.2989 -0.5093  1.0622
 2669TIP3    H129642   0.324   2.034   8.161 -0.9713  0.3255 -0.4317
 2669TIP3    H229643   0.376   1.912   8.088  0.8254 -0.2757  1.7319
 2670TIP3   OH229644   0.453   5.175   8.370 -0.3414  0.5749  0.3864
 2670TIP3    H129645   0.476   5.241   8.304  0.4130 -0.4679 -0.4448
 2670TIP3    H229646   0.520   5.186   8.438 -0.0673  0.5067  0.1316
 2671TIP3   OH229647   0.395   6.631   1.158  0.0543 -0.2206 -0.0993
 2671TIP3    H129648   0.445   6.572   1.214  0.7430 -0.4802 -0.9530
 2671TIP3    H229649   0.340   6.682   1.218  0.2485 -0.9713  0.7366
 2672TIP3   OH229650   5.321   0.561   0.400 -0.4615 -0.0526  0.0196
 2672TIP3    H129651   5.246   0.580   0.344 -0.6436 -3.3029 -1.0084
 2672TIP3    H229652   5.283   0.521   0.478  0.1136 -0.2036  0.2259
 2673TIP3   OH229653   0.118   0.617   2.519 -0.0768  0.3274  0.2775
 2673TIP3    H129654   0.058   0.675   2.566 -1.1974  0.5523 -1.3645
 2673TIP3    H229655   0.171   0.676   2.465 -1.3003 -0.1085 -1.4911
 2674TIP3   OH229656   0.243   6.291   6.656 -0.0999  0.1294  0.1951
 2674TIP3    H129657   0.158   6.334   6.652 -0.9203 -1.3264  0.9949
 2674TIP3    H229658   0.228   6.203   6.620  1.1962  0.0227 -0.1693
 2675TIP3   OH229659   1.102   0.081   1.855 -0.0363 -0.4236 -0.5258
 2675TIP3    H129660   1.152   0.136   1.916  1.1811 -0.7903 -1.1716
 2675TIP3    H229661   1.149   0.088   1.772 -0.1133 -2.0909 -0.7394
 2676TIP3   OH229662   3.350   6.417   8.665  0.1089  0.2275 -0.7469
 2676TIP3    H129663   3.445   6.428   8.664  0.0836  0.6827  0.2145
 2676TIP3    H229664   3.323   6.455   8.749 -0.9618  0.4508 -1.1819
 2677TIP3   OH229665   0.550   6.727   0.663 -0.1659 -0.2159 -0.0870
 2677TIP3    H129666   0.515   6.726   0.752 -0.0115  0.2787 -0.0155
 2677TIP3    H229667   0.475   6.750   0.608 -0.3601 -0.9472 -0.1368
 2678TIP3   OH229668   0.680   4.258   6.483  0.3486 -0.1869 -0.4284
 2678TIP3    H129669   0.761   4.260   6.432  0.0640 -0.4830 -0.8981
 2678TIP3    H229670   0.672   4.168   6.514  0.1570 -0.1802 -0.4532
 2679TIP3   OH229671   3.833   4.865   0.743  0.0195 -0.0634 -0.4220
 2679TIP3    H129672   3.889   4.860   0.665  0.4590  1.2446 -0.2123
 2679TIP3    H229673   3.753   4.908   0.712  0.1976  0.4632 -0.1548
 2680TIP3   OH229674   0.477   2.649   8.579  0.1896  0.6050 -0.0010
 2680TIP3    H129675   0.448   2.734   8.611  0.9116  0.5862  0.7333
 2680TIP3    H229676   0.570   2.646   8.598  0.2616 -0.1773 -0.4182
 2681TIP3   OH229677   0.233   1.200   7.540  0.0666 -0.1004  0.0532
 2681TIP3    H129678   0.325   1.186   7.518  0.4396  0.8371  0.9529
 2681TIP3    H229679   0.226   1.294   7.557 -1.0294 -0.1799  0.1053
 2682TIP3   OH229680   3.435   0.231   0.210  0.4761  0.2763  0.1745
 2682TIP3    H129681   3.487   0.152   0.199 -0.3566 -0.1971 -0.4938
 2682TIP3    H229682   3.493   0.293   0.255  1.4465 -0.3880 -0.1475
 2683TIP3   OH229683   1.774   6.117   8.694  0.2424  0.3494  0.2554
 2683TIP3    H129684   1.682   6.142   8.688  0.2458  0.5450  0.9784
 2683TIP3    H229685   1.817   6.189   8.740  0.9783  0.7697 -1.0173
 2684TIP3   OH229686   0.337   0.414   8.384 -0.2125 -0.3496  0.1392
 2684TIP3    H129687   0.399   0.423   8.312  0.0468 -0.4491  0.3500
 2684TIP3    H229688   0.391   0.404   8.462 -0.4569 -2.0453  0.1488
 2685TIP3   OH229689   0.694   5.632   2.046 -0.3020 -0.4299  0.1101
 2685TIP3    H129690   0.655   5.682   2.118 -0.4778 -0.1498 -0.1758
 2685TIP3    H229691   0.782   5.669   2.037 -0.1798 -0.6537  0.3602
 2686TIP3   OH229692   2.919   4.006   8.466 -0.1146  0.7856  0.2591
 2686TIP3    H129693   2.867   4.039   8.393  0.3450  0.6087 -0.1493
 2686TIP3    H229694   2.865   3.938   8.505 -0.2996  0.7825  0.0004
 2687TIP3   OH229695   1.596   2.486   7.446 -0.2582 -0.5673 -0.1184
 2687TIP3    H129696   1.617   2.437   7.366  0.2528 -0.8957  0.2043
 2687TIP3    H229697   1.562   2.569   7.415 -0.0555 -0.6870 -0.6834
 2688TIP3   OH229698   6.528   1.105   6.868 -0.1219 -0.4884  0.6574
 2688TIP3    H129699   6.576   1.164   6.926  1.8813  0.0295 -1.3916
 2688TIP3    H229700   6.576   1.022   6.873  0.7559 -0.1205 -1.0203
 2689TIP3   OH229701   4.040   0.564   1.649  0.5420 -0.2856  0.0859
 2689TIP3    H129702   4.072   0.655   1.650  3.0150 -1.0807 -0.1570
 2689TIP3    H229703   3.989   0.556   1.730  1.7082  0.8858  0.9902
 2690TIP3   OH229704   1.833   3.678   0.287  0.6672  0.1815  0.1589
 2690TIP3    H129705   1.884   3.756   0.310 -0.0341  0.6979  0.0095
 2690TIP3    H229706   1.880   3.638   0.215  1.4715  0.0102  0.7637
 2691TIP3   OH229707   4.297   0.448   0.253  0.9764 -0.6868 -0.6210
 2691TIP3    H129708   4.246   0.413   0.327  0.3353 -0.6200 -1.0235
 2691TIP3    H229709   4.362   0.380   0.235  1.2235 -0.6463  0.0913
 2692TIP3   OH229710   1.633   1.576   7.082 -0.2442  0.3227  0.1110
 2692TIP3    H129711   1.672   1.490   7.100  0.3815  0.0375 -2.2859
 2692TIP3    H229712   1.549   1.574   7.128  1.1393 -0.2286  2.8794
 2693TIP3   OH229713   3.593   5.474   7.387  0.3570 -0.0237 -0.2071
 2693TIP3    H129714   3.551   5.427   7.458 -0.5422  1.6827  0.4497
 2693TIP3    H229715   3.671   5.422   7.366  0.1104 -1.0755  1.3469
 2694TIP3   OH229716   0.124   3.475   7.119 -0.4986 -0.1042 -0.5578
 2694TIP3    H129717   0.167   3.496   7.037 -2.5220  0.7995 -1.4684
 2694TIP3    H229718   0.034   3.453   7.095 -1.2920  0.6601  1.4212
 2695TIP3   OH229719   4.210   2.471   0.828  0.4672 -0.4193  0.6955
 2695TIP3    H129720   4.199   2.527   0.905 -2.3527  0.2266 -0.0327
 2695TIP3    H229721   4.130   2.486   0.777  1.6375 -1.8083 -1.7245
 2696TIP3   OH229722   2.642   0.024   6.341  0.1152 -0.2190  0.0396
 2696TIP3    H129723   2.612   0.104   6.297 -0.2023 -0.5836 -0.4175
 2696TIP3    H229724   2.565  -0.007   6.389  0.2978 -0.1392  0.3846
 2697TIP3   OH229725   6.485   1.226   7.150  0.0479 -0.0064  0.6040
 2697TIP3    H129726   6.418   1.159   7.142 -1.4998  1.3399  1.6006
 2697TIP3    H229727   6.555   1.185   7.201  0.2836 -1.6073 -0.9078
 2698TIP3   OH229728   5.817   4.922   2.182 -0.3791 -0.2282  0.1813
 2698TIP3    H129729   5.726   4.935   2.207 -0.5066 -0.2474 -0.2637
 2698TIP3    H229730   5.868   4.955   2.256 -0.7238  0.9409 -0.0909
 2699TIP3   OH229731   5.296   6.799   0.075  0.8128 -0.0577 -0.5065
 2699TIP3    H129732   5.370   6.741   0.088 -0.2187 -1.5451 -0.9756
 2699TIP3    H229733   5.259   6.811   0.163  0.3314 -1.1179 -0.5480
 2700TIP3   OH229734   0.301   5.241   6.508 -0.1310  0.1807 -0.0578
 2700TIP3    H129735   0.219   5.221   6.464 -0.7232  0.3973  0.9204
 2700TIP3    H229736   0.331   5.157   6.542 -0.0969  0.1529 -0.1560
 2701TIP3   OH229737   2.660   5.600   0.916 -0.6180  0.3949 -0.5302
 2701TIP3    H129738   2.725   5.569   0.853  0.4151  1.1455  0.1292
 2701TIP3    H229739   2.628   5.682   0.879  0.4265  1.1482  0.1602
 2702TIP3   OH229740   3.152   0.615   0.187  0.4955  0.3225  0.6208
 2702TIP3    H129741   3.061   0.625   0.158 -0.0077  1.5391  2.4494
 2702TIP3    H229742   3.189   0.703   0.182  1.1053  0.1218  1.3344
 2703TIP3   OH229743   2.978   4.884   0.100  0.0048  0.0648 -0.1274
 2703TIP3    H129744   2.956   4.893   0.007 -1.7127  0.5602  0.2838
 2703TIP3    H229745   2.922   4.948   0.144  0.0325 -0.8780  1.3460
 2704TIP3   OH229746   0.829   1.031   2.152  0.2186  0.0114  0.3907
 2704TIP3    H129747   0.917   0.994   2.155  0.4177  0.3690 -0.6908
 2704TIP3    H229748   0.841   1.124   2.172  0.1611  0.1614 -0.2441
 2705TIP3   OH229749   5.624   5.632   0.987 -0.5182  0.3785 -0.3326
 2705TIP3    H129750   5.684   5.563   0.958 -0.1551  0.1186  0.9900
 2705TIP3    H229751   5.637   5.703   0.924  0.9145  0.1848 -0.2790
 2706TIP3   OH229752   3.673   5.223   8.810  0.2895  0.3659 -0.2389
 2706TIP3    H129753   3.652   5.309   8.773 -1.1464 -0.1307 -0.6405
 2706TIP3    H229754   3.601   5.205   8.871  0.5156 -0.5973 -0.2436
 2707TIP3   OH229755   4.746   4.586   2.057 -0.2733  0.4569 -0.2400
 2707TIP3    H129756   4.767   4.546   1.973 -0.0471  2.3434 -1.1305
 2707TIP3    H229757   4.822   4.569   2.112 -0.0956 -0.1224 -0.6528
 2708TIP3   OH229758   4.410   3.210   6.722 -0.4020  0.1749  0.4088
 2708TIP3    H129759   4.419   3.127   6.768 -0.9024  1.1218  2.3356
 2708TIP3    H229760   4.385   3.186   6.633 -0.5569 -1.7217  0.9194
 2709TIP3   OH229761   1.421   6.151   2.180 -0.1097  0.7020 -0.3907
 2709TIP3    H129762   1.396   6.126   2.091  1.1918 -0.1190 -0.5462
 2709TIP3    H229763   1.497   6.098   2.200 -0.4807  0.7398  1.3057
 2710TIP3   OH229764   0.605   0.843   7.403  0.1338 -0.4678 -0.3242
 2710TIP3    H129765   0.579   0.912   7.465  0.8774  1.0462 -1.6387
 2710TIP3    H229766   0.654   0.888   7.335  0.0879 -2.2134 -1.5968
 2711TIP3   OH229767   2.162   5.105   1.689  0.4330 -0.1756  0.3512
 2711TIP3    H129768   2.124   5.121   1.775 -0.1009 -0.3466  0.1513
 2711TIP3    H229769   2.167   5.009   1.682 -2.0394 -0.3024 -0.8538
 2712TIP3   OH229770   1.769   4.724   8.542  0.0305  0.1686  0.2530
 2712TIP3    H129771   1.699   4.699   8.482 -0.5346  2.7138 -0.2549
 2712TIP3    H229772   1.760   4.663   8.616 -2.4225  0.1087 -0.0193
 2713TIP3   OH229773   4.083   0.691   7.692 -0.2245 -0.1515 -0.4966
 2713TIP3    H129774   4.175   0.714   7.703 -0.3237  0.6867 -1.2608
 2713TIP3    H229775   4.035   0.758   7.740 -0.4517 -0.1039 -0.7818
 2714TIP3   OH229776   4.294   5.581   7.944 -0.7079 -0.6993 -0.1952
 2714TIP3    H129777   4.289   5.645   7.873 -0.9429  0.1107  0.5282
 2714TIP3    H229778   4.203   5.557   7.961 -1.0442  1.6582  2.0297
 2715TIP3   OH229779   1.467   0.711   0.649 -0.0222  0.4617 -0.6354
 2715TIP3    H129780   1.529   0.726   0.721  0.4325  0.8762 -1.1023
 2715TIP3    H229781   1.417   0.634   0.676  0.0886  0.6574  0.1594
 2716TIP3   OH229782   3.795   2.670   6.433 -0.1462  0.0722  0.1893
 2716TIP3    H129783   3.814   2.761   6.458  0.5553  0.6354 -2.1120
 2716TIP3    H229784   3.741   2.636   6.504  0.2906  2.0143  1.5318
 2717TIP3   OH229785   4.343   2.827   6.590  0.3252 -1.4403  1.0828
 2717TIP3    H129786   4.376   2.880   6.662  1.4772 -1.1589  0.3625
 2717TIP3    H229787   4.417   2.819   6.530 -0.7918 -1.1735 -0.3600
 2718TIP3   OH229788   0.838   1.151   0.829  0.5285 -0.3789 -0.6407
 2718TIP3    H129789   0.867   1.073   0.781 -0.6915  0.1219 -2.2939
 2718TIP3    H229790   0.875   1.224   0.779 -0.2041  0.1497 -0.4210
 2719TIP3   OH229791   1.450   4.976   7.360 -0.3386 -0.2835  0.3166
 2719TIP3    H129792   1.473   5.029   7.437 -0.5223  0.1420  0.0776
 2719TIP3    H229793   1.375   5.021   7.321 -0.0565 -0.3336 -0.2886
 2720TIP3   OH229794   1.400   2.557   8.618 -0.0409 -0.2551 -0.2588
 2720TIP3    H129795   1.320   2.540   8.567  0.0163  0.6124 -0.6539
 2720TIP3    H229796   1.427   2.644   8.591  1.7501 -1.0123 -1.0661
 2721TIP3   OH229797   4.443   3.180   0.541 -0.0705  0.5040  0.0645
 2721TIP3    H129798   4.494   3.195   0.620 -1.5531  0.4592  1.0706
 2721TIP3    H229799   4.494   3.117   0.490  0.6183  0.0676  1.2671
 2722TIP3   OH229800   5.464   5.922   0.918  0.0905 -0.4148 -0.3255
 2722TIP3    H129801   5.488   5.882   0.835  1.1291 -0.6408  0.0665
 2722TIP3    H229802   5.540   5.975   0.943 -0.9469  1.2306 -0.4566
 2723TIP3   OH229803   0.585   3.481   1.360 -0.1397 -0.1805 -0.1733
 2723TIP3    H129804   0.554   3.460   1.448 -3.3647  0.3214 -1.0684
 2723TIP3    H229805   0.607   3.574   1.364 -0.7858 -0.0308 -0.0236
 2724TIP3   OH229806   0.364   5.280   6.922 -0.0271  0.2429  0.3405
 2724TIP3    H129807   0.421   5.279   7.000 -0.1811 -1.5591  0.4646
 2724TIP3    H229808   0.412   5.228   6.857 -0.1675  1.2517 -0.6036
 2725TIP3   OH229809   6.455   0.213   2.186  0.4631  0.2784 -0.3031
 2725TIP3    H129810   6.410   0.209   2.102 -0.1412  0.4676  0.0084
 2725TIP3    H229811   6.415   0.144   2.239  1.1884 -0.1745 -0.3370
 2726TIP3   OH229812   4.212   3.908   0.193  0.0936 -0.0792  0.5548
 2726TIP3    H129813   4.125   3.869   0.182  1.1917 -2.1108 -2.0053
 2726TIP3    H229814   4.217   3.975   0.125  0.7443 -0.4378  0.2380
 2727TIP3   OH229815   2.002   1.331   8.301  0.2030  0.2384  0.4758
 2727TIP3    H129816   2.014   1.237   8.288  0.4141  0.1895  1.0008
 2727TIP3    H229817   2.012   1.344   8.395 -0.2985  0.7185  0.4722
 2728TIP3   OH229818   6.024   0.160   7.553 -0.6287  0.3527 -0.2448
 2728TIP3    H129819   6.020   0.172   7.458  2.8160  1.4282 -0.4123
 2728TIP3    H229820   5.978   0.236   7.589 -0.0521  1.1568 -1.1434
 2729TIP3   OH229821   0.849   3.002   7.377  0.6098 -0.0839 -0.2644
 2729TIP3    H129822   0.788   3.065   7.340 -0.1698  0.0506  1.2006
 2729TIP3    H229823   0.861   3.030   7.468  0.8940 -1.5725  0.1776
 2730TIP3   OH229824   5.782   5.906   0.505 -0.2125  0.2740 -0.4071
 2730TIP3    H129825   5.844   5.839   0.474  0.8423  0.3251  1.4344
 2730TIP3    H229826   5.834   5.987   0.507  0.7281 -0.1813  3.8660
 2731TIP3   OH229827   3.268   0.486   1.478  0.8945  0.6481  0.8508
 2731TIP3    H129828   3.198   0.422   1.479  1.3303  0.1631  0.5871
 2731TIP3    H229829   3.347   0.436   1.498  1.4554  0.8456 -0.7377
 2732TIP3   OH229830   2.299   3.669   8.679  0.2939 -0.9555  0.2132
 2732TIP3    H129831   2.342   3.600   8.730 -2.4336 -2.2773  0.9606
 2732TIP3    H229832   2.214   3.630   8.654  0.1990  0.7975 -2.6561
 2733TIP3   OH229833   3.615   5.344   1.724 -0.5364  0.1112 -0.3324
 2733TIP3    H129834   3.636   5.258   1.690  1.2091 -0.4639  1.9611
 2733TIP3    H229835   3.527   5.335   1.761 -0.3469 -0.7043 -0.0750
 2734TIP3   OH229836   5.489   5.819   7.294 -0.9192 -0.1162  0.2032
 2734TIP3    H129837   5.567   5.873   7.288 -0.8479 -0.0622  1.4216
 2734TIP3    H229838   5.519   5.730   7.272 -0.5521 -0.0683  0.5239
 2735TIP3   OH229839   1.367   4.631   7.879 -0.2357 -0.6973  0.2487
 2735TIP3    H129840   1.343   4.720   7.854  1.0010 -0.2651  0.5081
 2735TIP3    H229841   1.308   4.608   7.950 -0.9431 -0.3108 -0.2023
 2736TIP3   OH229842   0.386   6.343   7.415  0.2503 -0.5376  0.3390
 2736TIP3    H129843   0.428   6.426   7.393  0.0494 -0.4555  0.2621
 2736TIP3    H229844   0.292   6.363   7.414  0.2095 -0.7233  0.4908
 2737TIP3   OH229845   1.460   2.405   0.378  0.1005  0.1483 -0.0968
 2737TIP3    H129846   1.474   2.492   0.340  1.5844 -0.8125 -1.9475
 2737TIP3    H229847   1.439   2.349   0.304  1.4900 -1.5102  0.6689
 2738TIP3   OH229848   5.434   4.542   0.368 -0.2927 -0.1014  0.1578
 2738TIP3    H129849   5.380   4.614   0.402 -0.0674 -0.4321  1.2492
 2738TIP3    H229850   5.413   4.538   0.275 -1.9656 -0.0661  0.5162
 2739TIP3   OH229851   4.372   5.524   0.442  0.2052  0.0489 -1.0703
 2739TIP3    H129852   4.381   5.439   0.486 -0.9959 -0.2628 -1.3882
 2739TIP3    H229853   4.454   5.570   0.462  0.6958 -1.0151 -0.5381
 2740TIP3   OH229854   1.114   5.685   6.642 -0.0598  0.2630  0.1016
 2740TIP3    H129855   1.072   5.771   6.654  0.1349  0.3082  0.4417
 2740TIP3    H229856   1.173   5.676   6.716 -2.2473 -1.4722  1.7881
 2741TIP3   OH229857   6.822   0.665   7.789 -0.3193 -0.3375 -0.0238
 2741TIP3    H129858   6.792   0.630   7.705 -1.1063  0.9168 -0.2924
 2741TIP3    H229859   6.761   0.737   7.808  1.0083  0.6445  0.6831
 2742TIP3   OH229860   6.212   4.974   8.405  0.2601 -0.5306  0.0058
 2742TIP3    H129861   6.284   5.031   8.430  0.7451  0.3522 -3.0540
 2742TIP3    H229862   6.139   5.033   8.388  0.4204 -0.8384 -2.0321
 2743TIP3   OH229863   6.819   0.835   8.842 -0.5017 -0.2699 -0.9609
 2743TIP3    H129864   6.748   0.868   8.896  0.3093 -1.6580  1.1088
 2743TIP3    H229865   6.827   0.898   8.771 -1.9352  1.4231  0.2919
 2744TIP3   OH229866   3.840   2.480   7.101 -0.2154  0.5235  0.1258
 2744TIP3    H129867   3.802   2.427   7.031  0.6559  0.6425 -0.4473
 2744TIP3    H229868   3.819   2.570   7.077  2.4201  0.7918 -1.4849
 2745TIP3   OH229869   2.787   1.437   0.214  0.1705  0.3779  0.8355
 2745TIP3    H129870   2.703   1.484   0.216 -0.6475 -1.0516  1.4434
 2745TIP3    H229871   2.789   1.389   0.296  2.2186  1.3972  1.4294
 2746TIP3   OH229872   1.864   6.516   1.265 -0.1995  0.4521  0.0902
 2746TIP3    H129873   1.796   6.579   1.244 -0.1322  0.8130  0.9173
 2746TIP3    H229874   1.920   6.561   1.328 -0.3119 -0.5164  0.9064
 2747TIP3   OH229875   0.995   3.807   2.010  0.3632 -0.5713  0.0378
 2747TIP3    H129876   0.995   3.711   2.018  1.7908 -0.5727  0.3532
 2747TIP3    H229877   0.904   3.830   1.994  0.1936 -2.1128 -1.6174
 2748TIP3   OH229878   2.120   1.818   0.331 -0.5446 -0.1896  0.0494
 2748TIP3    H129879   2.045   1.783   0.283 -1.6063  0.0349  1.4697
 2748TIP3    H229880   2.084   1.846   0.415  1.0112  0.6011  0.5006
 2749TIP3   OH229881   1.313   2.340   1.087 -0.2353  0.5034 -0.3391
 2749TIP3    H129882   1.228   2.297   1.088 -0.6212  1.2418 -0.4430
 2749TIP3    H229883   1.376   2.272   1.111 -0.9610  0.1700  0.6622
 2750TIP3   OH229884   1.829   2.922   1.869  0.4059  0.2347  0.0188
 2750TIP3    H129885   1.920   2.917   1.898 -0.2574 -0.2292  2.2124
 2750TIP3    H229886   1.803   2.831   1.854  0.5011  0.4189 -1.3301
 2751TIP3   OH229887   5.372   1.397   1.405  0.2703  0.2261  0.0506
 2751TIP3    H129888   5.364   1.465   1.338 -1.2136 -0.3574 -0.4032
 2751TIP3    H229889   5.299   1.338   1.388  1.2942 -1.2686  0.6841
 2752TIP3   OH229890   2.953   6.214   7.180 -0.6632  0.5324  0.0758
 2752TIP3    H129891   2.893   6.191   7.109 -2.6879  0.4375  1.7263
 2752TIP3    H229892   2.936   6.306   7.197 -3.1018 -0.2582  2.8633
 2753TIP3   OH229893   5.934   5.809   1.475 -0.7545  0.0371 -0.4333
 2753TIP3    H129894   6.007   5.777   1.422 -1.5592 -0.5578 -1.1932
 2753TIP3    H229895   5.976   5.839   1.556  0.2535 -1.0429 -0.5207
 2754TIP3   OH229896   6.805   3.278   1.456  0.1471 -0.0946  0.3941
 2754TIP3    H129897   6.803   3.193   1.500 -0.9296 -0.7542 -0.8684
 2754TIP3    H229898   6.743   3.269   1.384 -0.1913  1.8676  0.3998
 2755TIP3   OH229899   3.970   4.383   0.885  0.2517 -0.6511 -0.0198
 2755TIP3    H129900   4.063   4.403   0.889 -0.0961  0.8590  1.3630
 2755TIP3    H229901   3.933   4.450   0.828 -0.1897 -0.3912  0.5650
 2756TIP3   OH229902   1.916   0.534   8.174 -0.5106  0.2536  0.3454
 2756TIP3    H129903   1.868   0.455   8.151  2.1640 -1.7678  1.1742
 2756TIP3    H229904   1.878   0.562   8.257 -0.9776 -0.6347  0.4406
 2757TIP3   OH229905   3.421   6.448   0.727 -0.0203  0.0177  0.1284
 2757TIP3    H129906   3.416   6.518   0.793  0.8847 -0.9504  1.2584
 2757TIP3    H229907   3.501   6.400   0.748 -1.0031 -1.8222 -0.1522
 2758TIP3   OH229908   6.161   3.397   8.688  0.6320  0.3522 -0.0968
 2758TIP3    H129909   6.206   3.335   8.745 -0.7145 -0.7454 -0.1894
 2758TIP3    H229910   6.089   3.431   8.741 -1.3573 -1.5440 -1.4053
 2759TIP3   OH229911   2.344   1.953   8.874  0.3384  0.1724 -0.3292
 2759TIP3    H129912   2.316   2.030   8.925 -0.5867  0.8415 -1.7860
 2759TIP3    H229913   2.263   1.905   8.857  0.8305 -0.8166  0.0288
 2760TIP3   OH229914   4.223   4.474   0.870  0.3209  0.6486  0.1528
 2760TIP3    H129915   4.254   4.383   0.865 -0.8285  0.2709 -0.6570
 2760TIP3    H229916   4.303   4.526   0.871  1.0047 -0.3594  0.3880
 2761TIP3   OH229917   2.721   0.441   2.385 -0.0042  0.7667 -0.2637
 2761TIP3    H129918   2.674   0.513   2.426 -1.3127 -0.9673  1.4588
 2761TIP3    H229919   2.772   0.482   2.315 -2.7972  3.0030 -1.1935
 2762TIP3   OH229920   0.850   4.055   8.462  0.7487 -0.4715  0.0373
 2762TIP3    H129921   0.930   4.016   8.429  0.2147 -0.5080 -1.2638
 2762TIP3    H229922   0.822   3.997   8.533  1.4259 -0.9004 -0.0401
 2763TIP3   OH229923   2.334   1.735   6.506 -0.8195 -0.5133 -0.4002
 2763TIP3    H129924   2.276   1.733   6.430 -0.7604 -0.8653 -0.4365
 2763TIP3    H229925   2.300   1.668   6.564 -0.8190 -0.2967 -0.1464
 2764TIP3   OH229926   3.374   1.709   7.901  0.3358  0.2286  0.1310
 2764TIP3    H129927   3.357   1.635   7.960 -0.3480 -0.1117 -0.4699
 2764TIP3    H229928   3.300   1.768   7.915  0.2659  0.2332 -0.2467
 2765TIP3   OH229929   3.560   1.865   0.486 -0.2609 -0.5347  0.0036
 2765TIP3    H129930   3.477   1.902   0.515 -0.5708 -1.0503 -0.2173
 2765TIP3    H229931   3.541   1.773   0.471  1.0840 -1.4020  2.9538
 2766TIP3   OH229932   0.912   0.281   1.827  0.8515  0.2920  0.7045
 2766TIP3    H129933   0.862   0.223   1.770 -0.3714  0.0235  2.0213
 2766TIP3    H229934   1.004   0.258   1.809  0.4278 -1.2800  0.4162
 2767TIP3   OH229935   3.904   0.520   1.343  0.0964 -0.1573 -0.3601
 2767TIP3    H129936   3.966   0.593   1.349  0.6222 -0.4492 -1.7082
 2767TIP3    H229937   3.865   0.529   1.256 -0.4331 -1.0211 -0.2260
 2768TIP3   OH229938   3.091   2.536   7.387 -0.1203  0.3208  0.2782
 2768TIP3    H129939   3.012   2.586   7.366 -0.0939  0.7973  1.2892
 2768TIP3    H229940   3.063   2.444   7.381 -0.8200  0.4872  0.8537
 2769TIP3   OH229941   4.108   4.481   1.713 -0.0016  0.1407 -0.1110
 2769TIP3    H129942   4.081   4.512   1.799 -0.0373  0.4955 -0.2455
 2769TIP3    H229943   4.026   4.463   1.667 -0.0036  0.5215 -0.2693
 2770TIP3   OH229944   2.462   4.797   8.120  0.1028  0.4144  0.6420
 2770TIP3    H129945   2.555   4.810   8.102  0.2439 -0.3162  0.7922
 2770TIP3    H229946   2.460   4.759   8.208 -0.2670 -0.4838  0.2610
 2771TIP3   OH229947   0.220   3.303   2.339 -0.2359  0.1666 -0.1717
 2771TIP3    H129948   0.144   3.316   2.283 -1.3382 -0.3807  1.1379
 2771TIP3    H229949   0.292   3.344   2.291 -1.6777  2.3729 -0.5959
 2772TIP3   OH229950   0.245   5.514   6.548 -0.6458  0.4004 -0.1732
 2772TIP3    H129951   0.188   5.492   6.622 -0.1467  0.8019  0.3345
 2772TIP3    H229952   0.271   5.428   6.513  0.0818  0.1633  0.8729
 2773TIP3   OH229953   4.385   0.130   6.472 -0.3442 -0.1562  0.0508
 2773TIP3    H129954   4.369   0.216   6.510  0.9635  0.1127  0.0470
 2773TIP3    H229955   4.440   0.148   6.395  0.3491 -1.0197  0.3251
 2774TIP3   OH229956   3.995   6.057   0.532 -0.6495  0.0740 -0.7641
 2774TIP3    H129957   4.020   6.149   0.521 -1.3312  0.0278 -3.8199
 2774TIP3    H229958   4.067   6.008   0.492 -0.0680 -0.7945  1.2560
 2775TIP3   OH229959   1.458   1.446   1.246  0.1884 -0.1441  0.2170
 2775TIP3    H129960   1.531   1.483   1.197 -0.6027  0.7187 -0.3538
 2775TIP3    H229961   1.479   1.466   1.338  0.9672 -0.4706  0.1193
 2776TIP3   OH229962   2.995   6.002   8.349  0.1738  0.7226  0.1078
 2776TIP3    H129963   2.915   6.055   8.348  0.0403  0.5171 -0.4878
 2776TIP3    H229964   3.056   6.053   8.402  0.7712  2.6050 -2.2273
 2777TIP3   OH229965   4.314   4.745   0.928  0.3693 -0.3436  0.2913
 2777TIP3    H129966   4.226   4.741   0.891 -0.1457 -1.8570  1.5723
 2777TIP3    H229967   4.318   4.831   0.972 -0.6035 -0.4198  0.5446
 2778TIP3   OH229968   6.152   3.050   8.626 -0.2529  0.5441 -0.1975
 2778TIP3    H129969   6.154   3.137   8.666 -0.6994  0.6041 -0.3042
 2778TIP3    H229970   6.243   3.033   8.603  0.3971 -0.3587  2.6450
 2779TIP3   OH229971   2.974   2.993   7.926 -0.4012 -0.5605 -0.0855
 2779TIP3    H129972   2.938   3.017   8.011  0.1122  0.1221 -0.0474
 2779TIP3    H229973   2.948   2.902   7.913  0.3877 -1.0101  1.2712
 2780TIP3   OH229974   4.935   2.936   8.710  0.2002 -0.2619  0.2138
 2780TIP3    H129975   5.028   2.925   8.690  0.3206  1.6137 -0.3630
 2780TIP3    H229976   4.923   2.888   8.792  2.2662  1.5598  1.6887
 2781TIP3   OH229977   4.454   2.115   8.561 -0.6039 -0.4917  0.6878
 2781TIP3    H129978   4.548   2.099   8.551 -0.5619  0.6427 -1.2534
 2781TIP3    H229979   4.415   2.028   8.566  0.3781 -1.0410 -0.6453
 2782TIP3   OH229980   6.105   2.429   8.605  0.3889  0.0185 -0.0936
 2782TIP3    H129981   6.193   2.458   8.628 -0.1740 -0.4295  3.3189
 2782TIP3    H229982   6.051   2.508   8.611  0.3699  0.0608 -0.8501
 2783TIP3   OH229983   3.662   6.203   1.103 -0.5691 -0.3595  0.0872
 2783TIP3    H129984   3.647   6.114   1.071 -1.3947 -0.0350 -0.4582
 2783TIP3    H229985   3.706   6.247   1.030 -1.9504  0.2260 -0.4098
 2784TIP3   OH229986   4.260   0.116   1.492 -0.2007  0.3119 -0.1049
 2784TIP3    H129987   4.210   0.196   1.510 -1.3331 -0.2996 -0.4272
 2784TIP3    H229988   4.248   0.101   1.398 -0.5774 -0.6120  0.0821
 2785TIP3   OH229989   3.502   4.935   8.150  0.1075 -0.6284  0.4908
 2785TIP3    H129990   3.571   4.939   8.084 -0.9008  1.9258 -0.5413
 2785TIP3    H229991   3.421   4.938   8.100 -0.6934  1.2174  1.7800
 2786TIP3   OH229992   4.413   0.749   6.429 -0.4763  0.0707 -0.7779
 2786TIP3    H129993   4.346   0.813   6.452  0.3690  0.0573  2.1702
 2786TIP3    H229994   4.367   0.665   6.429 -0.7000  0.1906  0.0038
 2787TIP3   OH229995   2.149   5.729   1.285 -0.2346  0.9766 -0.7307
 2787TIP3    H129996   2.120   5.706   1.373 -2.8953  0.9537 -1.5286
 2787TIP3    H229997   2.206   5.805   1.297  1.3832 -0.4437  1.1554
 2788TIP3   OH229998   3.336   5.841   2.229 -0.0304 -0.5068 -0.1888
 2788TIP3    H129999   3.405   5.881   2.283  1.3377  0.1033 -2.2630
 2788TIP3    H230000   3.298   5.774   2.285  0.8810  0.4910  1.7387
 2789TIP3   OH230001   1.905   0.832   8.446  0.4314 -0.3084  0.3141
 2789TIP3    H130002   1.957   0.763   8.488  0.3603 -1.0441 -0.7751
 2789TIP3    H230003   1.814   0.810   8.467  0.4711  0.3131  1.2168
 2790TIP3   OH230004   3.597   5.784   1.418 -0.1482 -0.3539  0.4925
 2790TIP3    H130005   3.648   5.775   1.498 -0.3879  0.5947  0.7651
 2790TIP3    H230006   3.590   5.879   1.405  1.0455 -0.4804 -1.3963
 2791TIP3   OH230007   1.992   5.759   8.194 -0.0262  0.0438 -0.3336
 2791TIP3    H130008   2.015   5.790   8.281  1.4043 -1.8970  0.0361
 2791TIP3    H230009   1.947   5.675   8.209  1.2938 -0.9157 -1.4517
 2792TIP3   OH230010   2.857   2.588   7.206 -0.0857 -0.0050 -0.0654
 2792TIP3    H130011   2.911   2.561   7.132  0.8056 -1.5018  1.0635
 2792TIP3    H230012   2.826   2.675   7.183  1.2304  0.0945 -1.6129
 2793TIP3   OH230013   0.114   2.861   0.388 -0.5128 -0.1144  0.0969
 2793TIP3    H130014   0.193   2.852   0.442 -1.0375 -1.2235  0.7154
 2793TIP3    H230015   0.139   2.923   0.319  0.8480 -0.3146  0.3793
 2794TIP3   OH230016   3.745   3.013   2.228  0.1420  0.0592  0.2638
 2794TIP3    H130017   3.839   3.022   2.241  0.1816  1.7949 -0.8876
 2794TIP3    H230018   3.707   3.087   2.275 -0.5327  0.1803 -0.4570
 2795TIP3   OH230019   6.763   5.789   0.437 -0.2437 -0.1123 -0.0530
 2795TIP3    H130020   6.848   5.794   0.481 -0.4777 -0.5975  0.4715
 2795TIP3    H230021   6.751   5.875   0.397  0.0713  0.2749  0.6679
 2796TIP3   OH230022   4.698   6.411   8.056 -0.3637 -0.3504 -0.4237
 2796TIP3    H130023   4.707   6.464   7.977  1.1080  0.4335  0.2067
 2796TIP3    H230024   4.716   6.322   8.028  2.7339  0.2185 -0.6252
 2797TIP3   OH230025   1.926   0.363   1.771  0.2028 -0.6746 -0.0255
 2797TIP3    H130026   1.975   0.435   1.731  1.7851 -0.3502  2.3269
 2797TIP3    H230027   1.870   0.405   1.836  1.0632 -1.5218  1.3030
 2798TIP3   OH230028   6.005   1.535   0.725 -0.3994 -0.4523  0.7499
 2798TIP3    H130029   5.941   1.540   0.796  0.0373 -0.2220  1.1367
 2798TIP3    H230030   6.076   1.592   0.754  0.3493 -1.3449  0.7095
 2799TIP3   OH230031   3.922   2.954   6.468 -0.6514  0.1234  0.4078
 2799TIP3    H130032   3.996   2.929   6.413 -0.6332  0.3457  0.3279
 2799TIP3    H230033   3.956   3.025   6.523 -1.4835  2.0159 -1.3901
 2800TIP3   OH230034   2.701   1.304   0.739 -0.2254  0.0059 -0.1365
 2800TIP3    H130035   2.771   1.370   0.744 -1.5260  1.4956 -0.8049
 2800TIP3    H230036   2.717   1.247   0.814 -0.4908  2.5522  1.9883
 2801TIP3   OH230037   1.443   6.223   7.536  0.0592 -0.0795 -0.0026
 2801TIP3    H130038   1.397   6.242   7.454  0.7987 -0.4145 -0.5064
 2801TIP3    H230039   1.386   6.258   7.604 -2.2163 -2.6964 -0.3838
 2802TIP3   OH230040   4.073   0.171   1.760 -0.1071 -1.0025 -0.0327
 2802TIP3    H130041   4.039   0.082   1.752  1.6062 -1.6806 -0.3009
 2802TIP3    H230042   4.031   0.207   1.838  0.1192 -2.5015  0.8095
 2803TIP3   OH230043   0.116   3.234   7.437  0.0873  0.1092 -0.5724
 2803TIP3    H130044   0.110   3.225   7.342 -0.9392 -0.3535 -0.4814
 2803TIP3    H230045   0.074   3.155   7.471 -1.5896  1.2922  0.2550
 2804TIP3   OH230046   4.151   6.200   1.306 -0.5079 -0.4811 -0.1691
 2804TIP3    H130047   4.097   6.213   1.384 -0.2950 -0.6870  0.0138
 2804TIP3    H230048   4.206   6.124   1.327  0.2524  0.0592 -0.1197
 2805TIP3   OH230049   3.243   5.612   1.205  0.3658  0.1610 -0.5645
 2805TIP3    H130050   3.163   5.571   1.238  0.5430 -0.2389 -0.6213
 2805TIP3    H230051   3.212   5.678   1.143  0.0721  0.1420 -0.4400
 2806TIP3   OH230052   5.777   5.135   8.520  0.0325  0.0391 -0.0779
 2806TIP3    H130053   5.684   5.111   8.518  0.3200 -1.3516  1.2604
 2806TIP3    H230054   5.790   5.175   8.606  1.1848 -2.2805  0.9078
 2807TIP3   OH230055   0.398   1.765   7.526 -0.1941 -0.2115  0.0123
 2807TIP3    H130056   0.443   1.683   7.505 -1.3166 -1.2775  1.5597
 2807TIP3    H230057   0.337   1.778   7.453  0.1446 -0.6271 -0.3494
 2808TIP3   OH230058   2.401   2.211   1.013 -0.3879 -0.0442 -0.5650
 2808TIP3    H130059   2.401   2.161   1.095 -0.8727  1.0883  0.1505
 2808TIP3    H230060   2.331   2.172   0.961 -2.7034  1.6210  1.1327
 2809TIP3   OH230061   2.479   4.181   1.727  0.2591  0.6646 -0.1310
 2809TIP3    H130062   2.439   4.150   1.645  0.2434 -1.0791  0.5041
 2809TIP3    H230063   2.442   4.269   1.739 -0.8479  0.3913 -1.2543
 2810TIP3   OH230064   6.573   0.895   7.186 -0.5940 -0.0113 -0.2143
 2810TIP3    H130065   6.587   0.873   7.094  0.8485 -1.4531  0.2998
 2810TIP3    H230066   6.489   0.939   7.187  0.8427  3.2345 -2.7102
 2811TIP3   OH230067   3.991   6.746   1.446 -0.4034 -0.3858  0.4619
 2811TIP3    H130068   4.076   6.733   1.405 -0.1680  2.0690  0.0129
 2811TIP3    H230069   3.935   6.678   1.408  1.2170 -1.7712  0.4491
 2812TIP3   OH230070   2.100   1.038   8.107 -0.5226  0.3707  0.1032
 2812TIP3    H130071   2.150   1.012   8.184  1.4728 -1.9397 -1.8371
 2812TIP3    H230072   2.066   0.956   8.071  0.0837  1.1405 -2.4118
 2813TIP3   OH230073   5.735   0.819   7.030 -0.1903  0.2886 -0.1792
 2813TIP3    H130074   5.753   0.735   6.989 -1.2938  1.5028 -3.5175
 2813TIP3    H230075   5.667   0.800   7.095 -2.0099 -1.2171 -2.3277
 2814TIP3   OH230076   1.731   5.986   0.695  0.1059  0.1950  0.5509
 2814TIP3    H130077   1.816   5.994   0.739  1.1388  1.2668 -1.4475
 2814TIP3    H230078   1.668   6.021   0.757  1.4878  1.7504  1.1732
 2815TIP3   OH230079   4.150   4.376   7.501 -0.2422 -0.5214 -0.2097
 2815TIP3    H130080   4.092   4.348   7.431 -1.9395 -0.2264  1.0048
 2815TIP3    H230081   4.236   4.344   7.476 -0.7849 -0.4192 -2.4034
 2816TIP3   OH230082   1.632   3.243   7.866  0.1697 -0.4313  0.0532
 2816TIP3    H130083   1.553   3.188   7.868 -0.1567 -0.1249 -1.8754
 2816TIP3    H230084   1.704   3.181   7.854 -0.1192 -0.5232 -1.3371
 2817TIP3   OH230085   0.884   0.004   1.984  0.0597  0.2796 -0.3044
 2817TIP3    H130086   0.819   0.075   1.987  0.0060  0.4212 -2.9349
 2817TIP3    H230087   0.957   0.041   1.934  2.4560  0.2595  2.8950
 2818TIP3   OH230088   5.704   5.636   0.300  0.2875  0.1050  0.3447
 2818TIP3    H130089   5.696   5.580   0.377  2.6718 -0.3995  0.3130
 2818TIP3    H230090   5.776   5.695   0.321 -1.0401  2.0628 -0.3229
 2819TIP3   OH230091   5.405   6.412   0.899 -0.3604  0.0439 -0.4515
 2819TIP3    H130092   5.437   6.387   0.986 -0.0309  0.3285 -0.4890
 2819TIP3    H230093   5.314   6.383   0.898  0.2074 -1.8335 -0.7654
 2820TIP3   OH230094   0.863   0.576   7.063 -0.1206  0.7112  0.3355
 2820TIP3    H130095   0.941   0.538   7.023 -1.1424 -0.1840 -0.9397
 2820TIP3    H230096   0.792   0.518   7.035 -1.3551  1.9578  0.7637
 2821TIP3   OH230097   5.447   3.299   6.468  0.3119  0.3725 -0.5330
 2821TIP3    H130098   5.434   3.278   6.560 -1.6705  1.4357 -0.5188
 2821TIP3    H230099   5.474   3.217   6.428  0.2476 -0.3330  0.8247
 2822TIP3   OH230100   0.041   1.114   1.138 -0.2182  0.0173 -1.0197
 2822TIP3    H130101  -0.016   1.086   1.067  0.2574  0.4335 -1.5741
 2822TIP3    H230102   0.015   1.059   1.213  1.3988 -2.7558 -2.3409
 2823TIP3   OH230103   5.194   5.452   1.596 -0.2941 -0.5663  0.1866
 2823TIP3    H130104   5.220   5.521   1.534 -0.0789 -0.9290 -0.1300
 2823TIP3    H230105   5.100   5.464   1.607 -0.4918 -1.0193 -0.8718
 2824TIP3   OH230106   5.712   5.382   8.911 -0.1894  0.7834  0.2874
 2824TIP3    H130107   5.631   5.370   8.961  0.2822  1.6143  1.3066
 2824TIP3    H230108   5.769   5.312   8.942 -0.4669  0.2627 -0.3529
 2825TIP3   OH230109   0.480   0.359   0.327  0.7750 -0.5188 -0.4821
 2825TIP3    H130110   0.536   0.284   0.345 -0.6062 -1.2284  1.2394
 2825TIP3    H230111   0.391   0.328   0.346  0.2935  1.9548  2.0398
 2826TIP3   OH230112   0.656   1.450   8.459  0.0969 -0.2565 -0.1110
 2826TIP3    H130113   0.561   1.458   8.447 -0.2229  1.2370  2.6090
 2826TIP3    H230114   0.681   1.530   8.506  2.6640 -0.7827 -0.4199
 2827TIP3   OH230115   1.549   0.433   8.738  0.5178  0.5416  1.3033
 2827TIP3    H130116   1.562   0.487   8.816  1.5542  0.6696  1.0482
 2827TIP3    H230117   1.562   0.492   8.664 -1.4116  0.6457  1.0007
 2828TIP3   OH230118   5.509   4.321   8.434  0.2634  0.4409 -0.0332
 2828TIP3    H130119   5.560   4.240   8.442 -1.7885 -0.8328  0.8382
 2828TIP3    H230120   5.504   4.336   8.339  0.2828 -0.7168 -0.2399
 2829TIP3   OH230121   6.814   3.175   8.481 -0.3771  0.0489 -0.0039
 2829TIP3    H130122   6.741   3.115   8.465  0.0750 -0.3237 -0.7538
 2829TIP3    H230123   6.773   3.258   8.503 -1.0400 -0.9036  2.7164
 2830TIP3   OH230124   6.384   3.067   1.998 -0.4780  0.3738 -0.1014
 2830TIP3    H130125   6.395   2.986   2.049  2.0006  0.8583  0.2964
 2830TIP3    H230126   6.388   3.039   1.907  1.8124  0.0995  0.0207
 2831TIP3   OH230127   3.667   5.524   7.846 -0.3061  0.3595 -0.4989
 2831TIP3    H130128   3.716   5.531   7.764 -2.6749 -0.0507 -2.0506
 2831TIP3    H230129   3.697   5.442   7.885 -0.3876 -0.3560 -1.8718
 2832TIP3   OH230130   0.315   3.010   8.372  0.5896  0.1218  0.2995
 2832TIP3    H130131   0.361   3.065   8.308 -1.4505  0.8145 -0.6873
 2832TIP3    H230132   0.290   3.070   8.442 -0.4275  0.1849 -0.1006
 2833TIP3   OH230133   0.799   3.949   1.710  0.2095  0.1037 -0.3690
 2833TIP3    H130134   0.747   3.870   1.725 -2.7238  2.0169  0.2537
 2833TIP3    H230135   0.811   3.952   1.615 -0.6728 -0.5090 -0.5126
 2834TIP3   OH230136   5.534   5.052   1.305  0.2101  0.2728  0.9018
 2834TIP3    H130137   5.536   4.967   1.261  1.1253  0.0066  1.4381
 2834TIP3    H230138   5.618   5.092   1.285 -0.0078  0.8366  1.0864
 2835TIP3   OH230139   4.598   3.155   1.022  0.3539 -0.0275  0.4545
 2835TIP3    H130140   4.529   3.213   0.989 -0.2573 -0.2801  1.2659
 2835TIP3    H230141   4.551   3.084   1.066  1.0586 -1.3824 -0.8566
 2836TIP3   OH230142   4.730   6.327   7.179  0.2004 -0.9215 -0.2512
 2836TIP3    H130143   4.817   6.300   7.210 -0.0774 -1.8552 -0.2467
 2836TIP3    H230144   4.732   6.311   7.085 -0.0747 -1.2621 -0.2014
 2837TIP3   OH230145   3.248   0.196   1.596  0.0232 -0.4025 -0.0729
 2837TIP3    H130146   3.223   0.268   1.655  0.9528 -0.2516  0.1545
 2837TIP3    H230147   3.175   0.135   1.600  0.2593 -0.6288  1.6319
 2838TIP3   OH230148   2.603   0.220   7.035  0.0539 -0.0578  0.0671
 2838TIP3    H130149   2.661   0.230   6.960 -0.4594 -2.0491 -0.6510
 2838TIP3    H230150   2.590   0.125   7.044 -0.2214  0.1286  2.4306
 2839TIP3   OH230151   6.682   3.510   1.544 -0.1752 -0.1320 -0.3033
 2839TIP3    H130152   6.630   3.530   1.466  1.5450 -0.4539 -1.5664
 2839TIP3    H230153   6.731   3.431   1.521  1.4765  0.6063  0.5555
 2840TIP3   OH230154   2.927   3.275   7.895  0.2922  0.4005 -0.3112
 2840TIP3    H130155   2.982   3.258   7.819 -1.1807 -0.9596 -1.1416
 2840TIP3    H230156   2.910   3.188   7.933 -0.4024  0.8833  0.5350
 2841TIP3   OH230157   2.031   3.403   1.135 -0.3686  0.7485 -0.3068
 2841TIP3    H130158   2.092   3.340   1.173 -0.0343  0.6284 -1.0150
 2841TIP3    H230159   2.072   3.488   1.151 -0.4397  0.7286 -0.0226
 2842TIP3   OH230160   5.000   1.708   7.780  0.4677 -0.1773  0.4221
 2842TIP3    H130161   5.058   1.665   7.843  0.3814 -0.7606  0.1056
 2842TIP3    H230162   4.986   1.643   7.712  0.1519  0.2757  0.0497
 2843TIP3   OH230163   5.337   2.644   0.567  0.0454 -0.4066 -0.9943
 2843TIP3    H130164   5.396   2.678   0.634 -1.4033 -0.7810  0.5512
 2843TIP3    H230165   5.394   2.615   0.496  1.8825 -2.2487  1.0852
 2844TIP3   OH230166   0.613   4.599   2.416 -0.2151 -0.1510 -0.0014
 2844TIP3    H130167   0.697   4.643   2.402 -0.0682 -0.5107 -0.2519
 2844TIP3    H230168   0.636   4.510   2.442 -0.5040  0.0523  1.0009
 2845TIP3   OH230169   0.983   5.854   8.150 -0.2699  0.5432  0.1396
 2845TIP3    H130170   0.951   5.805   8.226  0.3441  0.2200  0.1987
 2845TIP3    H230171   1.056   5.802   8.117 -2.6678 -1.2287 -2.8526
 2846TIP3   OH230172   1.061   5.101   7.192  0.4193  0.4913 -0.2942
 2846TIP3    H130173   1.066   5.016   7.235 -1.9984  0.9697  1.1257
 2846TIP3    H230174   0.969   5.112   7.169  0.8833  2.2195 -1.5635
 2847TIP3   OH230175   3.490   3.897   8.279  0.6742 -0.7162  0.0025
 2847TIP3    H130176   3.426   3.938   8.337  1.7039 -1.4976  1.7703
 2847TIP3    H230177   3.445   3.821   8.242  0.0195 -0.2338 -0.1977
 2848TIP3   OH230178   3.467   0.748   7.568  0.2258 -0.2329  0.3493
 2848TIP3    H130179   3.481   0.834   7.608 -1.0778 -0.3207  1.0603
 2848TIP3    H230180   3.457   0.689   7.642 -2.0133 -0.4461 -0.0578
 2849TIP3   OH230181   1.150   1.539   1.729 -0.0985 -0.4666 -0.2944
 2849TIP3    H130182   1.139   1.562   1.636  0.2753 -2.2721 -0.8115
 2849TIP3    H230183   1.178   1.621   1.770 -1.2898  0.6236 -1.5737
 2850TIP3   OH230184   4.807   3.670   7.460 -0.2654  0.6538 -0.6376
 2850TIP3    H130185   4.832   3.714   7.380  2.7736  0.0842 -0.1039
 2850TIP3    H230186   4.780   3.583   7.432  2.0534 -0.0043 -1.0261
 2851TIP3   OH230187   6.726   4.340   1.036 -0.1603  0.3993  0.1728
 2851TIP3    H130188   6.664   4.281   1.080  0.5474  0.2140  0.9588
 2851TIP3    H230189   6.716   4.321   0.943 -1.7870  0.8764  0.2296
 2852TIP3   OH230190   0.667   6.426   8.673  0.1794 -0.0562 -0.1106
 2852TIP3    H130191   0.631   6.351   8.625 -0.6648  1.6996 -2.4096
 2852TIP3    H230192   0.740   6.456   8.620  1.1379  0.2084  1.2995
 2853TIP3   OH230193   2.123   6.109   0.520  0.3481  0.8031 -0.0466
 2853TIP3    H130194   2.122   6.194   0.475  1.8233  0.3509 -1.0206
 2853TIP3    H230195   2.170   6.126   0.602  1.7430  0.7164 -0.7909
 2854TIP3   OH230196   6.297   0.227   7.556  0.2974 -0.6388  0.3883
 2854TIP3    H130197   6.286   0.318   7.526  1.8256 -0.8840 -1.1029
 2854TIP3    H230198   6.208   0.195   7.567 -0.2884  0.8200  0.2068
 2855TIP3   OH230199   5.405   1.265   8.097 -0.2514 -0.1564  0.2191
 2855TIP3    H130200   5.437   1.248   8.009  0.3440  0.2158  0.3618
 2855TIP3    H230201   5.405   1.360   8.105  0.7033 -0.2068  0.9837
 2856TIP3   OH230202   3.161   2.064   0.790  0.0205 -0.2238 -0.0057
 2856TIP3    H130203   3.204   2.143   0.757 -0.2223  0.1317  0.5096
 2856TIP3    H230204   3.210   2.041   0.869 -0.4312 -0.0884  0.3206
 2857TIP3   OH230205   4.700   4.129   1.829 -1.1309  0.4769 -0.9236
 2857TIP3    H130206   4.772   4.161   1.774 -1.0358  0.5275 -0.7692
 2857TIP3    H230207   4.725   4.153   1.918 -1.5811  0.9600 -0.9201
 2858TIP3   OH230208   3.446   2.388   7.624 -0.3960 -0.5016  0.0225
 2858TIP3    H130209   3.476   2.315   7.570 -1.3540 -0.8544 -0.0440
 2858TIP3    H230210   3.451   2.464   7.567  2.8305 -0.0259  0.7482
 2859TIP3   OH230211   3.380   0.977   1.502  0.4305 -0.3857  0.5869
 2859TIP3    H130212   3.312   0.951   1.564 -0.5381 -0.5637 -0.5138
 2859TIP3    H230213   3.341   1.048   1.452  0.9972 -0.6028 -0.1788
 2860TIP3   OH230214   5.551   1.014   0.854  0.3200 -0.4793  0.1908
 2860TIP3    H130215   5.543   0.920   0.840 -2.0189 -0.4531  0.9171
 2860TIP3    H230216   5.476   1.036   0.909  1.9124  1.5071  1.6908
 2861TIP3   OH230217   0.178   0.835   7.442  0.1858  0.3621 -0.0456
 2861TIP3    H130218   0.139   0.807   7.360 -0.4488  1.8083 -0.2638
 2861TIP3    H230219   0.120   0.904   7.474  0.4490 -0.1319  1.5928
 2862TIP3   OH230220   4.409   6.587   7.789 -0.1092 -0.4229  0.0949
 2862TIP3    H130221   4.466   6.510   7.784 -0.2225 -0.4401 -2.4271
 2862TIP3    H230222   4.465   6.656   7.822  0.3335 -1.2667  1.1846
 2863TIP3   OH230223   0.892   1.091   8.612 -0.0626 -0.2419  0.2801
 2863TIP3    H130224   0.930   1.009   8.646  0.3181 -0.1382  0.1097
 2863TIP3    H230225   0.883   1.075   8.518  0.1993 -0.0149  0.2164
 2864TIP3   OH230226   4.047   1.260   7.670 -0.3457 -0.1303  0.0786
 2864TIP3    H130227   3.960   1.230   7.698 -0.6719  0.0301 -0.7549
 2864TIP3    H230228   4.038   1.355   7.661 -0.1730 -0.1508 -0.3222
 2865TIP3   OH230229   2.413   3.111   8.354  0.0066 -0.1832  0.5003
 2865TIP3    H130230   2.348   3.155   8.410 -1.6781 -1.0649 -0.6622
 2865TIP3    H230231   2.442   3.180   8.294 -0.2589  0.0972  0.6865
 2866TIP3   OH230232   2.357   2.630   7.512  0.0930  0.0233 -0.1011
 2866TIP3    H130233   2.382   2.670   7.595 -0.5490 -1.1297  0.6726
 2866TIP3    H230234   2.399   2.685   7.446  0.8108  0.8318  0.9837
 2867TIP3   OH230235   1.969   3.428   7.604 -0.2720  0.4086  0.3256
 2867TIP3    H130236   1.886   3.429   7.652  0.1705  0.2652  1.0998
 2867TIP3    H230237   1.944   3.404   7.514 -0.7225 -3.1310  1.2417
 2868TIP3   OH230238   2.582   3.131   7.246  0.6061 -0.0309  0.1036
 2868TIP3    H130239   2.622   3.150   7.161 -0.4054  0.5551 -0.2613
 2868TIP3    H230240   2.490   3.111   7.225  0.7810 -1.7595  0.8685
 2869TIP3   OH230241   6.706   3.048   2.058 -0.8114  0.2258 -0.5726
 2869TIP3    H130242   6.625   3.023   2.014 -0.6549  0.4229 -0.9836
 2869TIP3    H230243   6.763   3.077   1.987 -0.0826 -0.7034 -0.3826
 2870TIP3   OH230244   6.469   0.823   8.355 -0.1038  0.1444  0.5183
 2870TIP3    H130245   6.535   0.886   8.326  1.3789 -1.0308  1.1966
 2870TIP3    H230246   6.387   0.855   8.317  1.0332  1.0050 -1.3565
 2871TIP3   OH230247   3.004   5.293   7.041  0.1478  0.4029 -0.5118
 2871TIP3    H130248   3.090   5.293   7.083 -0.1754  0.8369  0.1637
 2871TIP3    H230249   2.942   5.304   7.113 -0.4147  1.2891 -1.1178
 2872TIP3   OH230250   6.163   1.797   1.350 -0.0836  0.4550 -0.4200
 2872TIP3    H130251   6.125   1.874   1.309 -1.9168  0.3326  0.9303
 2872TIP3    H230252   6.105   1.725   1.325 -1.1973  0.3643  2.1899
 2873TIP3   OH230253   3.817   2.072   7.396  0.0638 -0.4832 -0.3585
 2873TIP3    H130254   3.843   2.161   7.373  1.0803 -0.7003 -0.0827
 2873TIP3    H230255   3.894   2.034   7.437 -1.0240 -0.8003  1.4921
 2874TIP3   OH230256   2.161   0.188   8.032  0.4105  0.5646  0.3024
 2874TIP3    H130257   2.218   0.202   7.957  0.1153  1.5514  0.2537
 2874TIP3    H230258   2.072   0.186   7.996  0.3600 -0.3184  0.4583
 2875TIP3   OH230259   2.255   3.657   0.957  0.4290  0.2112  0.4561
 2875TIP3    H130260   2.192   3.716   0.916 -0.0345 -0.5486  0.0321
 2875TIP3    H230261   2.292   3.706   1.030 -0.6630  0.6694  0.7083
 2876TIP3   OH230262   4.372   1.145   1.218  0.2629 -0.2627  0.0991
 2876TIP3    H130263   4.466   1.149   1.199  0.0790  1.3105 -0.6862
 2876TIP3    H230264   4.337   1.225   1.179 -1.5718 -1.3036 -0.5150
 2877TIP3   OH230265   3.788   6.760   6.614  0.6188 -0.1210 -0.4437
 2877TIP3    H130266   3.816   6.759   6.706 -2.2220 -2.1678  0.5503
 2877TIP3    H230267   3.799   6.670   6.584  0.8908  0.3763 -1.9199
 2878TIP3   OH230268   0.347   1.715   8.737  0.4206  0.3410  0.2067
 2878TIP3    H130269   0.319   1.635   8.692 -1.0004  1.0948 -0.3306
 2878TIP3    H230270   0.279   1.730   8.803 -0.3817  2.0974 -0.9480
 2879TIP3   OH230271   5.656   2.010   1.787  0.1376 -0.1027  0.4358
 2879TIP3    H130272   5.722   1.962   1.838 -0.1696 -0.2144  0.7393
 2879TIP3    H230273   5.576   1.960   1.800  0.5341 -1.5985 -2.2095
 2880TIP3   OH230274   2.887   5.093   0.558  0.0131  0.4538 -0.2366
 2880TIP3    H130275   2.908   5.018   0.613  0.0027  0.6740  0.0728
 2880TIP3    H230276   2.851   5.158   0.619 -0.3593  0.5559 -0.5652
 2881TIP3   OH230277   1.489   0.304   8.161 -0.3134  0.0638 -0.0141
 2881TIP3    H130278   1.502   0.379   8.103 -1.1726 -0.2792 -0.6744
 2881TIP3    H230279   1.556   0.315   8.229 -0.4565  1.4639 -0.0536
 2882TIP3   OH230280   4.696   0.850   1.184 -0.5043  0.2331  0.2484
 2882TIP3    H130281   4.702   0.788   1.112 -0.4244 -0.8635  1.1822
 2882TIP3    H230282   4.651   0.926   1.146 -0.1623 -0.1795 -1.0355
 2883TIP3   OH230283   0.719   4.989   7.836 -0.6389  0.1454 -0.1163
 2883TIP3    H130284   0.692   4.900   7.811 -0.0969  0.1255 -0.6516
 2883TIP3    H230285   0.747   4.982   7.927  1.3855 -0.6900 -0.7490
 2884TIP3   OH230286   2.239   1.560   6.755 -0.0366  0.5317 -0.4714
 2884TIP3    H130287   2.160   1.508   6.739  0.4240 -0.5606  0.6340
 2884TIP3    H230288   2.236   1.580   6.848 -0.2289  2.5998 -0.8778
 2885TIP3   OH230289   1.317   2.424   7.188 -0.1324  0.0713 -0.5316
 2885TIP3    H130290   1.277   2.475   7.258 -0.3592  1.2603 -1.4886
 2885TIP3    H230291   1.402   2.397   7.222  0.4208  1.9391 -0.3228
 2886TIP3   OH230292   4.266   5.572   1.841  0.1615  0.0822 -0.4056
 2886TIP3    H130293   4.209   5.501   1.813  0.6956 -0.1282 -1.0088
 2886TIP3    H230294   4.234   5.597   1.927  0.2371 -1.1791  0.0095
 2887TIP3   OH230295   2.442   4.242   2.482  0.6399  0.3770  0.1371
 2887TIP3    H130296   2.452   4.169   2.420  1.2471  0.0605  0.5882
 2887TIP3    H230297   2.453   4.201   2.568  1.0702  1.0113  0.3940
 2888TIP3   OH230298   5.887   6.418   8.102 -0.0618 -0.1205  0.0092
 2888TIP3    H130299   5.831   6.453   8.033  1.7095  1.7819 -0.5724
 2888TIP3    H230300   5.863   6.469   8.180  2.2991  2.3820 -0.7653
 2889TIP3   OH230301   3.056   6.625   1.715  0.0516 -0.4420 -0.2436
 2889TIP3    H130302   3.147   6.596   1.715  0.4123  0.6275 -0.6635
 2889TIP3    H230303   3.030   6.624   1.807  0.4923 -0.7289 -0.1189
 2890TIP3   OH230304   1.066   5.332   1.922 -0.3159  0.3339 -0.3421
 2890TIP3    H130305   1.065   5.365   1.832 -0.9068 -2.0215 -1.2897
 2890TIP3    H230306   1.152   5.359   1.957 -0.3658  1.8811 -1.3411
 2891TIP3   OH230307   3.605   5.881   7.120  0.0379 -0.0578  0.2233
 2891TIP3    H130308   3.679   5.917   7.171 -0.0812 -1.1148  1.1708
 2891TIP3    H230309   3.528   5.898   7.175 -0.1851 -0.5992  0.0799
 2892TIP3   OH230310   4.017   2.639   8.430  0.0028 -0.4549  0.1489
 2892TIP3    H130311   3.956   2.652   8.502  0.0085 -0.7757  0.2134
 2892TIP3    H230312   4.047   2.548   8.439  0.3586 -0.3550  0.0181
 2893TIP3   OH230313   3.848   2.516   1.523  0.2690  0.1047 -0.5262
 2893TIP3    H130314   3.837   2.501   1.429  0.8238 -1.0256 -0.4246
 2893TIP3    H230315   3.761   2.503   1.560  0.3895 -1.2546 -0.6735
 2894TIP3   OH230316   4.005   0.446   8.644 -1.0400  0.1583 -0.3233
 2894TIP3    H130317   4.029   0.425   8.734  1.7310  1.0292 -0.7562
 2894TIP3    H230318   4.088   0.472   8.603 -2.5419  1.7905 -2.5597
 2895TIP3   OH230319   2.523   1.160   1.600 -0.3196 -0.2858  0.1863
 2895TIP3    H130320   2.466   1.191   1.530 -0.4263  1.5950  1.0615
 2895TIP3    H230321   2.559   1.239   1.639  0.3671 -1.3156  1.7522
 2896TIP3   OH230322   5.046   6.147   7.466  0.2966 -0.8560 -0.4273
 2896TIP3    H130323   5.003   6.225   7.501  0.6557 -0.1449 -1.5357
 2896TIP3    H230324   5.108   6.122   7.535  0.9151  0.4556 -0.4721
 2897TIP3   OH230325   1.694   3.792   0.570  0.5834 -0.1895 -0.0234
 2897TIP3    H130326   1.788   3.788   0.558  0.8203  0.9679  1.1341
 2897TIP3    H230327   1.664   3.858   0.507  0.6097 -0.2508 -0.0996
 2898TIP3   OH230328   5.525   4.090   7.632  0.4314 -0.5448  0.4037
 2898TIP3    H130329   5.457   4.139   7.678  1.8111  0.6677  1.2505
 2898TIP3    H230330   5.539   4.012   7.686 -4.3029 -4.1223 -2.7491
 2899TIP3   OH230331   5.899   5.634   6.758 -0.2743  0.7703 -0.4743
 2899TIP3    H130332   5.983   5.593   6.773 -0.3490  1.4068  2.3041
 2899TIP3    H230333   5.916   5.728   6.767 -1.2943  0.8897  0.4945
 2900TIP3   OH230334   1.572   4.865   8.780  0.1259 -0.1082  0.2846
 2900TIP3    H130335   1.496   4.896   8.731  0.0381  0.2825  0.6627
 2900TIP3    H230336   1.648   4.898   8.732  0.0461  0.0138  0.2439
 2901TIP3   OH230337   3.860   2.491   1.254  0.2474 -0.0257  0.1533
 2901TIP3    H130338   3.952   2.512   1.269  0.0367 -0.1476  1.8696
 2901TIP3    H230339   3.817   2.576   1.244  0.1244  0.2577  2.4092
 2902TIP3   OH230340   2.410   5.205   7.767 -0.0806  0.0630  0.6856
 2902TIP3    H130341   2.436   5.185   7.857  0.1045  0.1583  0.6533
 2902TIP3    H230342   2.467   5.277   7.740 -1.2538  1.1612  1.0610
 2903TIP3   OH230343   5.392   4.539   0.098  0.4667  0.2062  0.3832
 2903TIP3    H130344   5.459   4.591   0.053 -0.2210  1.3321  0.6288
 2903TIP3    H230345   5.314   4.546   0.043  0.6408 -1.4665 -0.1289
 2904TIP3   OH230346   6.543   6.202   0.891  0.1897 -0.0592  0.0551
 2904TIP3    H130347   6.556   6.258   0.815  2.4659 -0.1556  0.3077
 2904TIP3    H230348   6.505   6.259   0.957  0.2368  0.5800 -0.4636
 2905TIP3   OH230349   0.723   5.417   6.699 -0.0792 -0.0613 -0.1941
 2905TIP3    H130350   0.678   5.368   6.630  0.5437 -2.0061  0.7125
 2905TIP3    H230351   0.786   5.472   6.652 -1.7255  0.9468 -1.3227
 2906TIP3   OH230352   3.034   1.384   1.401 -0.1966  0.4265 -0.2230
 2906TIP3    H130353   3.067   1.337   1.478  0.0263  0.4311 -0.3168
 2906TIP3    H230354   3.060   1.475   1.415  1.2887  0.1627 -1.0855
 2907TIP3   OH230355   4.941   2.219   7.811  0.6031 -0.0482 -0.6973
 2907TIP3    H130356   5.015   2.160   7.798  0.7449 -0.1341  0.4602
 2907TIP3    H230357   4.901   2.227   7.724  0.9317 -1.3688 -0.9846
 2908TIP3   OH230358   3.397   0.264   8.114 -0.1931  0.1845  0.1654
 2908TIP3    H130359   3.432   0.181   8.149  0.3058  0.0644 -0.5903
 2908TIP3    H230360   3.474   0.310   8.080 -0.4235  1.1093  0.8554
 2909TIP3   OH230361   5.023   2.915   7.338 -0.5571  0.3846 -0.4460
 2909TIP3    H130362   5.063   2.917   7.251 -0.4087 -0.4050 -0.4039
 2909TIP3    H230363   4.928   2.915   7.321 -0.5329  0.7619 -0.5887
 2910TIP3   OH230364   1.189   3.358   7.922  0.1847  0.4842 -0.1835
 2910TIP3    H130365   1.101   3.356   7.884  0.8433  0.6180 -1.8350
 2910TIP3    H230366   1.236   3.424   7.870  1.2418  0.4389  0.6818
 2911TIP3   OH230367   2.918   0.944   1.004 -0.0476  0.0911  0.1733
 2911TIP3    H130368   2.929   0.977   1.093  0.2507  0.9096 -0.1512
 2911TIP3    H230369   2.958   0.857   1.005 -2.5899 -1.1652  1.5659
 2912TIP3   OH230370   3.894   3.923   8.736  0.2272 -0.4401 -0.3254
 2912TIP3    H130371   3.911   3.845   8.684 -1.4334 -1.2000  0.2173
 2912TIP3    H230372   3.803   3.915   8.764  0.2309  1.3398  0.3498
 2913TIP3   OH230373   5.631   2.173   8.261  0.1742  0.3830  0.0626
 2913TIP3    H130374   5.684   2.248   8.287 -1.7985  2.0907 -0.6382
 2913TIP3    H230375   5.691   2.098   8.268  2.2973  2.0312  0.4550
 2914TIP3   OH230376   1.852   5.017   8.599  0.3909 -0.4560 -0.3375
 2914TIP3    H130377   1.899   4.973   8.528  2.3060  1.6964 -0.5196
 2914TIP3    H230378   1.888   4.977   8.679  0.7085 -0.5671 -0.5315
 2915TIP3   OH230379   4.226   1.598   8.638  0.3324  0.4861 -0.2858
 2915TIP3    H130380   4.263   1.647   8.712 -0.3432  0.8664 -0.1911
 2915TIP3    H230381   4.139   1.572   8.668  1.6114 -3.2215  0.7668
 2916TIP3   OH230382   2.582   2.870   0.887 -0.2131 -0.1030 -0.1507
 2916TIP3    H130383   2.533   2.809   0.832 -0.7216 -0.0893  0.2812
 2916TIP3    H230384   2.533   2.873   0.969  0.9783 -0.7612  0.6204
 2917TIP3   OH230385   2.911   4.139   6.713  0.0024  0.1202  0.1370
 2917TIP3    H130386   2.953   4.214   6.755 -1.3867  0.3737  1.1323
 2917TIP3    H230387   2.969   4.117   6.639  0.6086  1.9469  0.0272
 2918TIP3   OH230388   2.842   2.172   7.316  0.2372 -0.1478 -0.4217
 2918TIP3    H130389   2.929   2.206   7.339  0.7369 -1.2302 -0.6546
 2918TIP3    H230390   2.819   2.114   7.388 -0.4441  0.3600 -0.2156
 2919TIP3   OH230391   5.800   1.529   7.303  0.3174 -0.1888  0.5136
 2919TIP3    H130392   5.705   1.525   7.313  0.1611 -0.1243 -0.7778
 2919TIP3    H230393   5.825   1.610   7.349 -0.4739  0.6936 -0.5363
 2920TIP3   OH230394   1.344   0.035   8.096  0.1743 -0.5051 -0.2150
 2920TIP3    H130395   1.290   0.004   8.168  0.6165 -1.8879 -0.4506
 2920TIP3    H230396   1.391   0.110   8.132 -0.6913 -0.2740  0.4733
 2921TIP3   OH230397   1.873   2.166   8.116  0.0256 -0.2215  0.0489
 2921TIP3    H130398   1.905   2.127   8.197 -0.9716 -2.0097 -0.3602
 2921TIP3    H230399   1.853   2.257   8.139  1.4678 -0.1841  1.3135
 2922TIP3   OH230400   1.780   0.581   1.268 -0.2735  0.2548 -0.1173
 2922TIP3    H130401   1.700   0.625   1.296  0.1054  0.2976  0.9759
 2922TIP3    H230402   1.851   0.634   1.304  0.2100 -0.5009  0.0875
 2923TIP3   OH230403   0.666   4.558   1.478 -0.4434  0.6394 -0.6026
 2923TIP3    H130404   0.761   4.549   1.464 -0.1491  0.6654  1.1000
 2923TIP3    H230405   0.655   4.648   1.509 -0.7146  0.0707  1.0860
 2924TIP3   OH230406   0.323   1.188   1.152  0.1677  0.2127  0.0374
 2924TIP3    H130407   0.231   1.162   1.151  0.3836 -0.5504 -0.5929
 2924TIP3    H230408   0.351   1.175   1.242 -0.1002 -0.4246  0.0290
 2925TIP3   OH230409   1.076   0.694   7.286  0.0255 -0.1203 -0.0012
 2925TIP3    H130410   1.057   0.738   7.202 -2.4673 -2.3476 -0.7352
 2925TIP3    H230411   1.099   0.605   7.262  0.0276 -0.6028  1.6777
 2926TIP3   OH230412   3.793   4.466   1.133 -0.2566 -0.1727 -0.3044
 2926TIP3    H130413   3.739   4.397   1.170 -0.0606 -0.6094 -0.8145
 2926TIP3    H230414   3.824   4.430   1.050 -0.7642  0.8104 -0.9460
 2927TIP3   OH230415   5.976   1.601   1.899 -0.0441  0.6068 -0.1058
 2927TIP3    H130416   6.053   1.546   1.883 -0.0163  0.5378  0.2534
 2927TIP3    H230417   5.976   1.664   1.828 -0.5216 -0.3564 -0.9840
 2928TIP3   OH230418   3.900   4.879   1.113 -0.7581  0.1917  0.0802
 2928TIP3    H130419   3.857   4.854   1.196 -0.2047 -2.0312 -0.2302
 2928TIP3    H230420   3.839   4.851   1.045 -1.2224  2.0355 -0.3250
 2929TIP3   OH230421   6.417   5.110   1.438 -0.1789 -1.0356  0.0642
 2929TIP3    H130422   6.361   5.176   1.397 -0.9216 -0.0310  2.4547
 2929TIP3    H230423   6.475   5.161   1.495  1.7799 -2.2201 -0.7837
 2930TIP3   OH230424   2.427   4.457   1.686  0.3281 -0.1983  0.5467
 2930TIP3    H130425   2.509   4.486   1.647  1.7760 -2.8508  1.3490
 2930TIP3    H230426   2.443   4.458   1.780 -0.3349 -1.3242  0.6904
 2931TIP3   OH230427   2.529   0.507   1.699  0.5163 -0.1683 -0.5787
 2931TIP3    H130428   2.497   0.430   1.652 -1.5136 -0.4744  1.1533
 2931TIP3    H230429   2.450   0.556   1.720  1.6805  1.8232 -0.6109
 2932TIP3   OH230430   1.767   0.696   7.396 -0.1235  0.6126  0.2651
 2932TIP3    H130431   1.731   0.626   7.340 -0.1794  1.1472 -0.3745
 2932TIP3    H230432   1.739   0.777   7.354  1.8089  1.0636 -0.2706
 2933TIP3   OH230433   3.426   0.666   6.098 -0.7645  0.2140 -0.9501
 2933TIP3    H130434   3.521   0.670   6.105 -0.8112 -0.0091 -0.0204
 2933TIP3    H230435   3.402   0.749   6.057 -0.1816  0.3637 -0.9978
 2934TIP3   OH230436   3.177   1.542   2.584  0.5537  0.6016 -0.3421
 2934TIP3    H130437   3.092   1.559   2.623 -0.3398 -0.8049 -1.5771
 2934TIP3    H230438   3.182   1.602   2.510  1.0302  1.2821  0.2257
 2935TIP3   OH230439   4.432   3.676   1.445 -0.1630  0.0419  0.4209
 2935TIP3    H130440   4.475   3.695   1.361  0.4266  1.0575  0.9362
 2935TIP3    H230441   4.405   3.762   1.478 -2.4584 -0.5326  0.2063
 2936TIP3   OH230442   0.660   5.006   1.779  0.3977 -0.0873 -0.2990
 2936TIP3    H130443   0.722   5.074   1.805  0.5327 -0.9071  1.7513
 2936TIP3    H230444   0.586   5.053   1.742 -0.8321  1.5386  3.6781
 2937TIP3   OH230445   5.706   2.792   7.083  1.0242 -0.6307  0.1977
 2937TIP3    H130446   5.705   2.776   6.988  1.0639 -0.6913  0.2074
 2937TIP3    H230447   5.798   2.785   7.107  1.1439  0.3183  0.0819
 2938TIP3   OH230448   2.806   5.243   6.032  0.0855 -0.2970 -1.0890
 2938TIP3    H130449   2.715   5.246   6.002 -0.0015  0.7951 -0.7556
 2938TIP3    H230450   2.814   5.157   6.073 -1.1704  0.0736  0.0037
 2939TIP3   OH230451   6.504   1.223   1.263  0.0330  0.1657 -0.0924
 2939TIP3    H130452   6.536   1.197   1.177  1.1820 -0.0387  0.3701
 2939TIP3    H230453   6.465   1.144   1.300  0.1960  0.0607 -0.1441
 2940TIP3   OH230454   4.541   5.732   1.511  0.6400 -0.4582 -0.2857
 2940TIP3    H130455   4.468   5.771   1.463 -0.2673  0.2451  1.5596
 2940TIP3    H230456   4.587   5.679   1.446 -1.1335 -0.4135 -1.6567
 2941TIP3   OH230457   4.348   4.309   0.219 -0.6875 -0.2376  0.1910
 2941TIP3    H130458   4.392   4.229   0.189 -1.4844 -0.3281 -0.8047
 2941TIP3    H230459   4.405   4.380   0.190  0.0344 -0.4344  1.0985
 2942TIP3   OH230460   6.779   5.950   6.385 -0.0905 -0.5675 -0.0903
 2942TIP3    H130461   6.778   5.859   6.355  0.4409 -0.4858 -0.3525
 2942TIP3    H230462   6.793   6.001   6.306  0.9321 -0.3276  0.2307
 2943TIP3   OH230463   1.994   3.138   2.459  0.1897 -0.2953 -0.2645
 2943TIP3    H130464   1.937   3.077   2.506 -0.2297  0.5501  0.3455
 2943TIP3    H230465   2.009   3.210   2.520 -0.1666  0.7149 -1.3283
 2944TIP3   OH230466   0.528   4.851   0.789  0.3397  0.0894 -0.3017
 2944TIP3    H130467   0.600   4.822   0.845 -1.4568  0.6983  2.5639
 2944TIP3    H230468   0.491   4.770   0.753  1.3789 -0.3511 -0.4014
 2945TIP3   OH230469   0.926   5.784   7.196 -0.0595 -0.1676 -0.1120
 2945TIP3    H130470   0.867   5.823   7.132 -0.3790 -0.2416  0.1384
 2945TIP3    H230471   0.971   5.858   7.236  2.3108 -0.2033 -2.4620
 2946TIP3   OH230472   5.877   0.977   7.822  0.3087  0.8408 -0.2033
 2946TIP3    H130473   5.919   1.014   7.745 -0.9462  2.4355 -0.1908
 2946TIP3    H230474   5.784   0.998   7.812  0.2905  2.6209  2.4827
 2947TIP3   OH230475   4.131   2.746   7.007 -0.4910  0.0459 -0.0841
 2947TIP3    H130476   4.058   2.698   7.046 -0.0287  0.4884  1.3764
 2947TIP3    H230477   4.140   2.708   6.920 -0.4649 -2.1971  0.8251
 2948TIP3   OH230478   3.293   1.829   8.799 -0.7140 -0.2470 -0.1044
 2948TIP3    H130479   3.338   1.913   8.804 -0.3601 -0.4264 -0.2438
 2948TIP3    H230480   3.226   1.842   8.732  0.8725 -0.7711 -1.8727
 2949TIP3   OH230481   5.792   0.366   0.433  0.0501  0.0359 -0.0992
 2949TIP3    H130482   5.725   0.433   0.422 -0.1095 -0.2618 -0.9776
 2949TIP3    H230483   5.745   0.290   0.467 -0.0478 -0.1492 -0.6451
 2950TIP3   OH230484   4.062   3.232   7.783 -0.0233 -0.5295 -0.3423
 2950TIP3    H130485   4.037   3.144   7.753 -2.9289  0.3815 -0.9772
 2950TIP3    H230486   4.032   3.291   7.714  2.7059  0.9807 -0.3780
 2951TIP3   OH230487   1.335   2.227   1.613  0.1414 -0.4555 -0.5244
 2951TIP3    H130488   1.418   2.253   1.575 -0.0956 -0.0215 -0.7596
 2951TIP3    H230489   1.354   2.147   1.662  0.8401  0.0264  0.0090
 2952TIP3   OH230490   0.872   3.238   8.255  0.4671  0.4951  0.3396
 2952TIP3    H130491   0.803   3.218   8.318  0.8182 -0.1876  0.5150
 2952TIP3    H230492   0.833   3.305   8.198 -0.2165  0.3650  0.6365
 2953TIP3   OH230493   3.493   2.281   0.836 -0.7917 -0.4287 -0.1372
 2953TIP3    H130494   3.491   2.268   0.931 -0.1698  0.9468  0.0920
 2953TIP3    H230495   3.406   2.313   0.814 -0.7711 -0.2441  0.0510
 2954TIP3   OH230496   3.452   4.572   8.183  0.1589 -0.4430 -0.6318
 2954TIP3    H130497   3.542   4.595   8.204  0.0499 -1.0051  0.5231
 2954TIP3    H230498   3.451   4.476   8.183 -0.7193 -0.4720  0.7642
 2955TIP3   OH230499   0.106   1.320   1.520  0.3084 -0.3874 -0.8034
 2955TIP3    H130500   0.022   1.353   1.551  0.9274 -0.2268  0.8117
 2955TIP3    H230501   0.105   1.227   1.542  0.9041 -0.1949  0.0991
 2956TIP3   OH230502   5.451   0.596   8.738 -0.1023 -0.3766 -0.3803
 2956TIP3    H130503   5.456   0.689   8.719  0.5505 -0.5323 -1.0348
 2956TIP3    H230504   5.506   0.555   8.671 -0.4128 -1.2327 -0.1282
 2957TIP3   OH230505   2.104   3.257   7.768  0.3650  0.2879  0.1567
 2957TIP3    H130506   2.167   3.323   7.796  0.4073  0.2371  0.1816
 2957TIP3    H230507   2.045   3.303   7.708 -0.0041  0.5065  0.6905
 2958TIP3   OH230508   2.242   1.674   0.921 -0.1471 -0.1445  0.1362
 2958TIP3    H130509   2.175   1.613   0.892 -1.4971  1.0585  0.5862
 2958TIP3    H230510   2.197   1.759   0.924  1.5881  0.8367 -0.2470
 2959TIP3   OH230511   5.062   6.187   6.729  0.5664 -0.0487  0.3056
 2959TIP3    H130512   5.083   6.094   6.732  1.3401  0.1397  2.3657
 2959TIP3    H230513   5.128   6.225   6.671  0.8971 -0.6305  0.2957
 2960TIP3   OH230514   6.183   3.104   1.613 -0.4141  0.4184  0.5185
 2960TIP3    H130515   6.215   3.088   1.524 -0.2681  2.4019  0.1773
 2960TIP3    H230516   6.251   3.157   1.654  0.5865 -2.2097  2.6129
 2961TIP3   OH230517   5.283   2.390   0.697 -0.2905 -0.0859 -0.0389
 2961TIP3    H130518   5.254   2.481   0.705 -0.4650  0.4798 -4.5034
 2961TIP3    H230519   5.378   2.393   0.707 -0.2405  0.7020 -0.7258
 2962TIP3   OH230520   4.524   2.801   2.199 -0.2345  0.0455  0.4316
 2962TIP3    H130521   4.606   2.752   2.187 -1.6478 -1.9331 -2.5108
 2962TIP3    H230522   4.474   2.749   2.263  0.1089  0.2629  0.8769
 2963TIP3   OH230523   1.800   4.357   7.008 -0.3102  0.3732 -0.3149
 2963TIP3    H130524   1.863   4.346   6.936  0.8538 -1.5795  0.8881
 2963TIP3    H230525   1.715   4.338   6.969  0.5381 -3.4439 -0.7716
 2964TIP3   OH230526   1.590   5.797   0.026 -0.9225  0.3104  0.1056
 2964TIP3    H130527   1.672   5.826   0.065 -0.6282 -0.7763  0.3183
 2964TIP3    H230528   1.606   5.799  -0.069  0.3977 -2.6376  0.1373
 2965TIP3   OH230529   5.135   5.032   8.433 -0.7706  0.1007 -0.1668
 2965TIP3    H130530   5.215   5.065   8.475 -0.6149 -0.8460  0.3354
 2965TIP3    H230531   5.100   4.970   8.497 -1.0320 -0.6924 -1.0590
 2966TIP3   OH230532   3.951   4.002   7.111  0.2613 -0.3267 -0.0228
 2966TIP3    H130533   3.991   3.948   7.179 -1.9600 -1.6631  0.3367
 2966TIP3    H230534   3.971   3.956   7.029 -0.8350 -1.2295  0.1946
 2967TIP3   OH230535   4.509   5.222   8.445 -0.4419  0.2361  0.1579
 2967TIP3    H130536   4.582   5.283   8.438 -1.4932  1.4548 -0.5091
 2967TIP3    H230537   4.505   5.199   8.538 -1.1855  2.7084  0.8021
 2968TIP3   OH230538   6.319   3.591   7.259  0.9685 -0.5544  0.2960
 2968TIP3    H130539   6.370   3.513   7.238 -0.8248 -1.6788 -0.0786
 2968TIP3    H230540   6.278   3.572   7.344 -0.6919 -0.7041 -0.4904
 2969TIP3   OH230541   3.570   0.719   8.589  0.4299  0.0686  0.0810
 2969TIP3    H130542   3.617   0.799   8.613 -0.6186  0.2356  1.7027
 2969TIP3    H230543   3.612   0.650   8.640 -1.8062  0.4221  2.5602
 2970TIP3   OH230544   6.578   3.179   1.278 -0.1482 -0.4855 -0.1457
 2970TIP3    H130545   6.593   3.139   1.192  1.6681 -0.3275  0.0686
 2970TIP3    H230546   6.565   3.105   1.337  0.7486 -0.6866 -0.1878
 2971TIP3   OH230547   0.960   4.139   0.125  0.4282 -0.2241  0.1623
 2971TIP3    H130548   0.903   4.099   0.190 -0.6538 -1.1436 -1.2732
 2971TIP3    H230549   0.994   4.218   0.167  0.6382 -1.3430  2.1964
 2972TIP3   OH230550   5.679   2.032   1.034  0.4463  0.5049  0.0146
 2972TIP3    H130551   5.597   2.059   0.994  0.0149  0.7031  1.0117
 2972TIP3    H230552   5.700   2.101   1.097  0.8980  0.0094  0.4255
 2973TIP3   OH230553   4.320   0.758   7.995 -0.3792  0.3723  0.2436
 2973TIP3    H130554   4.229   0.772   7.970 -0.6882  1.1402  1.6813
 2973TIP3    H230555   4.368   0.754   7.913 -1.9400 -1.9259 -0.6526
 2974TIP3   OH230556   4.516   2.490   0.812 -0.6903 -0.5571  0.0715
 2974TIP3    H130557   4.553   2.560   0.866 -2.1791  0.5672 -0.3055
 2974TIP3    H230558   4.421   2.501   0.819 -0.9561 -0.6065 -2.4128
 2975TIP3   OH230559   3.371   1.374   1.206  0.4728  0.4993 -0.2405
 2975TIP3    H130560   3.454   1.373   1.159 -0.6045 -2.6120 -2.4131
 2975TIP3    H230561   3.309   1.412   1.144 -0.1105  1.0407  0.6484
 2976TIP3   OH230562   5.496   4.048   2.131 -0.5292  0.0078 -0.5783
 2976TIP3    H130563   5.532   3.967   2.097  0.8960  0.7474 -0.9066
 2976TIP3    H230564   5.404   4.047   2.103 -0.2160 -0.9009 -1.6575
 2977TIP3   OH230565   5.885   3.648   1.437  0.3452  0.3207  0.5295
 2977TIP3    H130566   5.955   3.583   1.435 -0.2907 -0.3588  0.1663
 2977TIP3    H230567   5.929   3.731   1.419  0.8957 -0.2552 -0.9109
 2978TIP3   OH230568   3.786   3.149   8.845 -0.3963  0.0031 -0.3129
 2978TIP3    H130569   3.735   3.100   8.781 -0.4847 -0.1485 -0.1281
 2978TIP3    H230570   3.720   3.189   8.903 -0.3226 -2.1412  1.3997
 2979TIP3   OH230571   3.528   4.632   8.639 -0.1973 -0.1546 -0.3538
 2979TIP3    H130572   3.474   4.560   8.608 -2.0656  0.9421  0.2375
 2979TIP3    H230573   3.533   4.692   8.565  0.9756 -0.6318 -0.6912
 2980TIP3   OH230574   6.251   6.275   7.057 -0.5486 -0.2063  0.0732
 2980TIP3    H130575   6.245   6.225   7.138  0.9991 -1.0005 -0.2670
 2980TIP3    H230576   6.345   6.280   7.038 -0.8876 -1.2415 -2.3527
 2981TIP3   OH230577   3.069   5.430   8.312 -0.1422 -0.3578  0.1772
 2981TIP3    H130578   3.128   5.474   8.372  1.4681 -2.2279  0.0673
 2981TIP3    H230579   3.070   5.484   8.232  2.0048 -0.7046 -0.0718
 2982TIP3   OH230580   2.888   2.911   1.753 -0.1748 -0.3100 -0.4798
 2982TIP3    H130581   2.874   2.992   1.704 -0.2134 -0.9783 -1.6201
 2982TIP3    H230582   2.965   2.929   1.807 -1.0244  0.9482  0.3721
 2983TIP3   OH230583   4.514   3.435   0.996 -0.4748  0.2456 -0.1640
 2983TIP3    H130584   4.499   3.407   1.086  1.5015 -1.8987 -0.3957
 2983TIP3    H230585   4.530   3.529   1.002 -0.0745  0.0925  1.7920
 2984TIP3   OH230586   0.838   6.561   0.484  0.1255  0.0376 -0.5003
 2984TIP3    H130587   0.811   6.650   0.461  2.3404  0.6056 -1.1697
 2984TIP3    H230588   0.857   6.519   0.401  0.3551 -0.6415 -0.1153
 2985TIP3   OH230589   4.515   3.762   2.724 -0.1998  0.3552 -0.8438
 2985TIP3    H130590   4.517   3.708   2.802  0.8706  0.2450 -0.9408
 2985TIP3    H230591   4.421   3.777   2.707 -0.4372  0.9542  0.8391
 2986TIP3   OH230592   4.999   1.030   0.306  0.1867  0.5626  0.2551
 2986TIP3    H130593   4.966   1.108   0.261 -1.1209 -0.7909 -1.2259
 2986TIP3    H230594   5.084   1.014   0.265 -0.2688  0.2814 -0.5874
 2987TIP3   OH230595   1.908   1.860   2.436  0.0825  0.3741 -0.4969
 2987TIP3    H130596   1.932   1.952   2.431 -1.6549  0.8648 -0.2743
 2987TIP3    H230597   1.832   1.851   2.378 -0.5365 -0.6333  0.4228
 2988TIP3   OH230598   3.275   2.122   1.697  0.1983 -0.2096 -0.1259
 2988TIP3    H130599   3.359   2.154   1.665 -0.8352  0.5279 -2.3405
 2988TIP3    H230600   3.230   2.090   1.619 -1.4575 -0.8771  1.0349
 2989TIP3   OH230601   5.425   5.604   7.675 -0.2127  0.3012 -0.0573
 2989TIP3    H130602   5.445   5.573   7.763 -0.5897 -0.7689 -0.3253
 2989TIP3    H230603   5.375   5.532   7.636  1.2040  0.1005 -1.6433
 2990TIP3   OH230604   5.683   3.467   1.412 -0.0531  0.1610 -0.1272
 2990TIP3    H130605   5.730   3.535   1.461  0.6993 -0.7103  0.4080
 2990TIP3    H230606   5.685   3.391   1.470 -0.0290 -0.5991 -1.0993
 2991TIP3   OH230607   6.483   5.324   7.952 -0.0569  0.0627  0.4546
 2991TIP3    H130608   6.569   5.360   7.970 -0.4018  1.1465 -0.0039
 2991TIP3    H230609   6.422   5.382   7.999 -0.4848 -1.4694  1.9203
 2992TIP3   OH230610   1.596   2.755   0.025  0.4032 -0.3413 -0.2793
 2992TIP3    H130611   1.557   2.670   0.007 -0.0280 -0.1686 -0.1719
 2992TIP3    H230612   1.613   2.793  -0.062  0.1587 -0.3368 -0.3240
 2993TIP3   OH230613   2.340   2.342   7.993 -0.3112  0.4515 -0.2885
 2993TIP3    H130614   2.354   2.248   7.996  0.3752  0.5521 -0.1043
 2993TIP3    H230615   2.384   2.370   7.913  1.3631  0.8869  0.7166
 2994TIP3   OH230616   0.974   3.414   1.155  0.0043  0.1055  0.5123
 2994TIP3    H130617   1.026   3.377   1.227  2.1384  0.2496 -0.8537
 2994TIP3    H230618   1.021   3.494   1.131 -0.4111 -0.1632 -1.2871
 2995TIP3   OH230619   4.709   2.604   0.342  0.2834  0.3967  0.2476
 2995TIP3    H130620   4.621   2.637   0.362  0.9492  2.9303 -0.5357
 2995TIP3    H230621   4.708   2.589   0.247  0.9985  1.6066  0.0265
 2996TIP3   OH230622   2.982   6.059   1.504  0.1703  0.5879  0.1511
 2996TIP3    H130623   2.894   6.022   1.505  0.1468  0.6328 -0.2447
 2996TIP3    H230624   2.972   6.147   1.539  0.3224  0.0246  1.7076
 2997TIP3   OH230625   0.202   3.319   0.823  0.6380 -0.0396 -0.1586
 2997TIP3    H130626   0.235   3.254   0.885 -0.7731  0.1397  0.8053
 2997TIP3    H230627   0.144   3.270   0.765  1.1589 -0.0139 -0.7091
 2998TIP3   OH230628   3.159   3.080   6.609 -0.1077  0.5066  0.1741
 2998TIP3    H130629   3.210   3.147   6.564 -1.3870  1.2558 -0.2145
 2998TIP3    H230630   3.171   3.100   6.702  1.8352 -0.5180  0.2035
 2999TIP3   OH230631   6.046   6.824   8.515  0.2143 -0.3428 -0.5699
 2999TIP3    H130632   6.076   6.733   8.515  3.5522  0.6332 -0.3850
 2999TIP3    H230633   5.993   6.831   8.436  0.3919 -2.2876 -0.9358
 3000TIP3   OH230634   0.827   4.405   0.091  0.1266  0.0002  0.6297
 3000TIP3    H130635   0.849   4.324   0.045 -0.5664 -1.1282  2.1818
 3000TIP3    H230636   0.791   4.462   0.023 -1.2917 -1.7715 -0.2016
 3001TIP3   OH230637   1.882   6.358   1.526 -0.1055 -0.2533  0.0394
 3001TIP3    H130638   1.889   6.453   1.512  0.4284 -0.2439  0.3141
 3001TIP3    H230639   1.789   6.339   1.519 -0.1629  0.2133 -0.5264
 3002TIP3   OH230640   3.014   1.314   0.739  0.2947 -0.7051 -0.4204
 3002TIP3    H130641   2.973   1.396   0.768  0.8128 -0.8538  0.8264
 3002TIP3    H230642   3.082   1.342   0.677 -2.0520 -0.5073 -3.1185
 3003TIP3   OH230643   6.677   4.329   8.884 -0.1552  0.3494  0.3024
 3003TIP3    H130644   6.743   4.361   8.823 -0.3136  1.0961  0.5180
 3003TIP3    H230645   6.602   4.307   8.829  0.3105 -0.6641  0.0355
 3004TIP3   OH230646   5.439   3.208   1.906  0.3679 -0.3009  0.1648
 3004TIP3    H130647   5.394   3.256   1.975 -1.9024 -0.1608 -1.3145
 3004TIP3    H230648   5.530   3.238   1.911 -0.2460  1.4545  1.5750
 3005TIP3   OH230649   4.072   3.509   1.152 -0.4502 -0.7130 -0.1763
 3005TIP3    H130650   4.153   3.494   1.202  0.4021  0.9945 -0.9382
 3005TIP3    H230651   4.068   3.605   1.143 -3.1439 -0.6635  0.7435
 3006TIP3   OH230652   0.048   2.985   1.041  1.1269  0.7868  0.5927
 3006TIP3    H130653   0.080   3.058   1.093  0.1316  1.6634  0.0098
 3006TIP3    H230654   0.038   3.021   0.952 -0.9325  0.4325  0.6375
 3007TIP3   OH230655   6.645   6.447   1.498 -0.2327 -0.0246 -0.1404
 3007TIP3    H130656   6.721   6.475   1.548 -0.4088 -0.7093  0.5137
 3007TIP3    H230657   6.571   6.461   1.556 -0.5565  0.1240 -0.5786
 3008TIP3   OH230658   3.901   3.371   7.565  0.0165  0.2277 -0.1306
 3008TIP3    H130659   3.815   3.378   7.606 -0.5162  0.1763 -1.2067
 3008TIP3    H230660   3.889   3.310   7.493  1.0044  0.0906 -0.2000
 3009TIP3   OH230661   0.098   3.087   8.225 -0.0863  0.4222  0.2297
 3009TIP3    H130662   0.054   3.148   8.283 -0.1029 -0.1280  0.8134
 3009TIP3    H230663   0.155   3.036   8.283  3.1414  2.6043 -0.7515
 3010TIP3   OH230664   3.175   1.300   6.866 -0.2321 -0.3153  0.4596
 3010TIP3    H130665   3.100   1.360   6.859  0.3126  0.2985 -0.2949
 3010TIP3    H230666   3.136   1.212   6.864 -0.9077 -0.0088 -0.4255
 3011TIP3   OH230667   5.184   2.933   6.647  0.3408  0.4475 -0.1012
 3011TIP3    H130668   5.098   2.890   6.638  0.4631  0.2458 -0.3281
 3011TIP3    H230669   5.164   3.027   6.644  0.0675  0.4112  0.4331
 3012TIP3   OH230670   0.442   3.859   1.163 -0.1121  0.0338 -0.0144
 3012TIP3    H130671   0.386   3.931   1.194 -0.6471 -0.1924 -0.4307
 3012TIP3    H230672   0.387   3.781   1.173 -0.2078 -0.0793 -1.2666
 3013TIP3   OH230673   1.914   1.926   7.663 -0.1884  0.1865 -0.2779
 3013TIP3    H130674   1.897   1.842   7.706 -0.4095  0.4925  0.2469
 3013TIP3    H230675   1.966   1.904   7.586 -0.9922 -0.5320 -0.6356
 3014TIP3   OH230676   2.789   3.944   7.310 -0.5339 -0.3165 -0.0646
 3014TIP3    H130677   2.736   3.874   7.272  0.1538  0.1232 -1.9768
 3014TIP3    H230678   2.879   3.915   7.299 -0.2209  0.9236 -1.1375
 3015TIP3   OH230679   5.398   2.308   8.068 -0.1803 -0.2151 -0.0624
 3015TIP3    H130680   5.462   2.239   8.085 -0.9299 -0.9797 -0.2445
 3015TIP3    H230681   5.399   2.362   8.147  1.1350  0.1652 -0.3197
 3016TIP3   OH230682   5.078   3.345   1.387  0.7931  0.3865  0.4315
 3016TIP3    H130683   5.083   3.421   1.330 -1.7113  0.6050  0.4070
 3016TIP3    H230684   5.074   3.381   1.475 -0.2745  0.3029  0.4272
 3017TIP3   OH230685   5.950   0.429   7.877  0.4649  0.7946 -0.4258
 3017TIP3    H130686   6.036   0.409   7.914  0.2369  0.6504  0.0334
 3017TIP3    H230687   5.969   0.457   7.787  0.9276 -0.0071 -0.5932
 3018TIP3   OH230688   4.094   5.274   0.092  0.3683 -0.0378  0.9041
 3018TIP3    H130689   4.154   5.241   0.025  2.2460  1.8856  1.5051
 3018TIP3    H230690   4.045   5.197   0.121  1.3726 -1.3929 -0.7952
 3019TIP3   OH230691   2.660   1.959   8.457  0.7506 -0.6490  0.0563
 3019TIP3    H130692   2.643   1.888   8.520  0.9585 -1.9058 -1.2609
 3019TIP3    H230693   2.752   1.981   8.470  1.1753 -1.8727 -0.7378
 3020TIP3   OH230694   3.204   2.288   1.159  0.2583  0.5412 -0.3215
 3020TIP3    H130695   3.123   2.270   1.206  0.1498 -1.6898 -1.2260
 3020TIP3    H230696   3.187   2.368   1.109 -0.9479  0.7645  0.4268
 3021TIP3   OH230697   4.411   0.070   7.643 -0.0514 -0.1804  0.2323
 3021TIP3    H130698   4.322   0.060   7.607  0.0358  0.8867 -0.3167
 3021TIP3    H230699   4.399   0.064   7.738 -0.9898  1.7312  0.2719
 3022TIP3   OH230700   5.910   0.726   2.365  0.4022 -0.1136 -0.1336
 3022TIP3    H130701   5.834   0.726   2.306  1.3791 -0.6823 -1.4368
 3022TIP3    H230702   5.892   0.798   2.427 -1.4359 -0.5789 -0.0568
 3023TIP3   OH230703   0.286   3.806   7.681  0.5079  0.2909  0.3063
 3023TIP3    H130704   0.242   3.824   7.764 -1.1164  0.0728 -0.4585
 3023TIP3    H230705   0.245   3.726   7.649  0.9236  0.4993 -0.8108
 3024TIP3   OH230706   5.448   5.160   1.585 -0.1722  0.4661 -0.3495
 3024TIP3    H130707   5.470   5.138   1.494  0.3658  1.0143 -0.3575
 3024TIP3    H230708   5.355   5.139   1.592  0.3739 -2.3670 -0.1686
 3025TIP3   OH230709   2.937   5.924   6.849 -0.1295  0.4346 -0.1708
 3025TIP3    H130710   3.022   5.884   6.830 -0.4557 -1.0114  1.1724
 3025TIP3    H230711   2.910   5.884   6.931 -2.3321  0.5040 -0.7987
 3026TIP3   OH230712   2.606   3.400   7.329  0.1251 -0.2626 -0.0410
 3026TIP3    H130713   2.585   3.309   7.307 -0.8109 -0.4573  1.5233
 3026TIP3    H230714   2.696   3.396   7.363  0.5930 -0.3684 -1.2598
 3027TIP3   OH230715   3.318   2.669   0.125  0.0504  0.1490  0.0543
 3027TIP3    H130716   3.257   2.737   0.097 -1.2148 -0.5366  1.0505
 3027TIP3    H230717   3.281   2.635   0.207  0.6602 -1.7039 -0.3863
 3028TIP3   OH230718   0.372   1.159   0.229 -0.2145  0.3877  0.5025
 3028TIP3    H130719   0.380   1.099   0.155 -0.0684  1.5963 -0.4862
 3028TIP3    H230720   0.459   1.196   0.240 -0.9460  2.8716 -1.0844
 3029TIP3   OH230721   2.486   0.737   0.342 -0.7107 -0.1093  0.1250
 3029TIP3    H130722   2.529   0.731   0.257 -2.3723 -0.2093 -0.7713
 3029TIP3    H230723   2.554   0.763   0.403  0.3372  0.8810 -1.4142
 3030TIP3   OH230724   1.294   5.600   2.362 -0.3060  0.0642 -0.9351
 3030TIP3    H130725   1.206   5.608   2.325 -0.7920  1.5600  0.4626
 3030TIP3    H230726   1.315   5.688   2.395  0.5310 -0.9213  1.3391
 3031TIP3   OH230727   5.878   6.294   8.767  0.2838 -0.5350 -0.0490
 3031TIP3    H130728   5.846   6.232   8.833 -2.1153 -0.5036 -1.0686
 3031TIP3    H230729   5.809   6.295   8.700  0.8039  2.2984 -0.6786
 3032TIP3   OH230730   1.033   2.763   7.503 -0.0189 -0.2151 -0.1789
 3032TIP3    H130731   1.078   2.847   7.506 -0.2147 -0.0862 -0.7451
 3032TIP3    H230732   0.973   2.764   7.578  0.0672  0.0975 -0.1165
 3033TIP3   OH230733   5.515   5.351   0.349  0.3310 -0.5275 -0.4184
 3033TIP3    H130734   5.464   5.423   0.385  0.0165 -0.5462 -0.8190
 3033TIP3    H230735   5.479   5.337   0.262  0.1941 -1.3540 -0.2448
 3034TIP3   OH230736   2.797   3.560   0.615 -0.0759 -0.1133  0.5568
 3034TIP3    H130737   2.743   3.513   0.678  1.2501 -0.8807  1.1737
 3034TIP3    H230738   2.883   3.519   0.622  0.1851 -0.0233 -1.5658
 3035TIP3   OH230739   1.819   3.170   0.371  0.3986 -0.3942 -0.3702
 3035TIP3    H130740   1.882   3.101   0.349 -0.3049 -0.5567 -1.9857
 3035TIP3    H230741   1.865   3.251   0.350  0.3293 -0.4796 -0.8480
 3036TIP3   OH230742   2.151   6.109   0.161  0.2434  0.7384  0.2100
 3036TIP3    H130743   2.136   6.041   0.096 -1.2138  0.6690  0.5835
 3036TIP3    H230744   2.064   6.128   0.197  0.8557  1.5813  1.3257
 3037TIP3   OH230745   4.945   4.671   8.071  0.0548  0.6508 -0.5177
 3037TIP3    H130746   4.994   4.705   8.146 -0.5389  0.6618 -0.1244
 3037TIP3    H230747   4.885   4.743   8.047  0.8209  0.9716 -1.5465
 3038TIP3   OH230748   1.385   1.058   1.066  0.1758  0.0512 -0.3687
 3038TIP3    H130749   1.348   1.115   1.134 -1.0982  0.4867 -1.3953
 3038TIP3    H230750   1.453   1.009   1.112 -0.6679  0.2948  1.2423
 3039TIP3   OH230751   0.794   6.790   0.179 -0.4646 -0.2519 -0.0980
 3039TIP3    H130752   0.865   6.807   0.241 -1.4198  1.4217  0.5968
 3039TIP3    H230753   0.835   6.797   0.093  0.1577  1.1269  0.2837
 3040TIP3   OH230754   1.311   6.697   2.599 -0.0345 -0.6670  0.0831
 3040TIP3    H130755   1.374   6.732   2.662 -2.0764 -1.4857  2.7227
 3040TIP3    H230756   1.364   6.679   2.521  2.1055  3.1009  0.4130
 3041TIP3   OH230757   0.353   4.125   8.316  0.7805  0.2433  0.1989
 3041TIP3    H130758   0.306   4.146   8.235  0.9117 -1.3685 -0.3310
 3041TIP3    H230759   0.291   4.146   8.386 -0.1245 -0.2597 -0.4284
 3042TIP3   OH230760   6.306   3.019   1.382  0.4257  0.9684  0.1055
 3042TIP3    H130761   6.317   3.082   1.311 -0.0623  0.5873 -0.3190
 3042TIP3    H230762   6.389   2.972   1.385  0.0937  0.2506 -0.9567
 3043TIP3   OH230763   4.426   1.553   6.526  0.2289  0.1640  0.0720
 3043TIP3    H130764   4.451   1.644   6.510  2.0674  0.1986  2.4805
 3043TIP3    H230765   4.479   1.502   6.464 -0.5702  0.6816 -1.0628
 3044TIP3   OH230766   6.126   6.319   1.358 -0.1386  0.1551 -0.2459
 3044TIP3    H130767   6.043   6.353   1.392  0.2989  0.4776  0.5346
 3044TIP3    H230768   6.189   6.389   1.375  0.2726 -0.0460 -0.9353
 3045TIP3   OH230769   6.266   5.694   1.457 -0.1891  0.0187 -0.1950
 3045TIP3    H130770   6.334   5.646   1.409 -0.3804  0.2109 -0.6586
 3045TIP3    H230771   6.315   5.745   1.522  0.1897  0.7837 -1.0603
 3046TIP3   OH230772   0.074   0.949   1.406 -0.7068  0.0654  0.0565
 3046TIP3    H130773   0.055   0.990   1.490  0.8875  2.3255 -0.5712
 3046TIP3    H230774   0.165   0.920   1.414  0.2209  2.2630 -1.4893
 3047TIP3   OH230775   0.615   1.196   0.052 -0.2642 -0.5503  0.2776
 3047TIP3    H130776   0.593   1.289   0.055  0.5874 -0.3285 -0.0055
 3047TIP3    H230777   0.642   1.180  -0.039  2.0875 -0.4542  0.8906
 3048TIP3   OH230778   3.177   3.719   8.457 -0.8264 -0.5551  0.2738
 3048TIP3    H130779   3.204   3.634   8.421  0.5095  0.5032 -1.3765
 3048TIP3    H230780   3.173   3.705   8.551  0.0779 -2.2654  0.0961
 3049TIP3   OH230781   5.275   4.200   7.665  0.2531 -0.2409  0.0778
 3049TIP3    H130782   5.229   4.270   7.711  0.0573 -0.7190  0.6335
 3049TIP3    H230783   5.289   4.233   7.577  0.8901  0.8209  0.5570
 3050TIP3   OH230784   2.103   6.545   7.915 -0.8367 -0.7062 -0.1211
 3050TIP3    H130785   2.079   6.546   7.822 -0.9237 -1.8997 -0.1297
 3050TIP3    H230786   2.045   6.609   7.956  0.9381  1.8314 -1.2467
 3051TIP3   OH230787   2.151   0.004   0.642 -0.2886  0.0822 -0.3526
 3051TIP3    H130788   2.078   0.047   0.686 -0.8236 -1.8934  0.8133
 3051TIP3    H230789   2.225   0.017   0.701 -0.8682 -2.0484  0.9384
 3052TIP3   OH230790   2.512   6.807   0.508 -0.4148  0.0093  0.5143
 3052TIP3    H130791   2.513   6.744   0.436  0.5056  0.3645  0.2063
 3052TIP3    H230792   2.437   6.864   0.490  1.0895  1.5017 -1.4200
 3053TIP3   OH230793   3.927   0.669   0.694 -0.1682  0.6233 -0.0445
 3053TIP3    H130794   3.985   0.710   0.759  1.6851 -0.3629 -1.0021
 3053TIP3    H230795   3.931   0.728   0.618  0.4991 -0.0219 -0.5189
 3054TIP3   OH230796   6.537   4.336   8.432  0.4899  0.0803  0.1822
 3054TIP3    H130797   6.483   4.394   8.488 -0.9562 -0.4297 -0.6228
 3054TIP3    H230798   6.558   4.262   8.489 -1.9141 -0.9787 -0.1677
 3055TIP3   OH230799   5.496   5.253   1.945  1.2320 -0.3688 -0.1457
 3055TIP3    H130800   5.548   5.205   1.881  1.6786  0.5646 -0.5134
 3055TIP3    H230801   5.407   5.222   1.932  0.9598  1.1332 -2.5865
 3056TIP3   OH230802   1.639   2.759   2.070  0.3599  0.2383 -0.2113
 3056TIP3    H130803   1.701   2.685   2.068  2.0431  1.4495  2.3933
 3056TIP3    H230804   1.589   2.747   2.150 -0.6138  0.9930 -0.6839
 3057TIP3   OH230805   4.193   6.661   1.689  0.6545  0.0036  0.7429
 3057TIP3    H130806   4.137   6.660   1.767 -0.1656 -2.1284  0.2023
 3057TIP3    H230807   4.140   6.620   1.621  2.7879 -1.9967  0.1559
 3058TIP3   OH230808   2.100   2.997   7.650 -0.4851 -0.3766 -0.0156
 3058TIP3    H130809   2.098   3.085   7.688 -0.0324  1.2389 -3.3568
 3058TIP3    H230810   2.036   3.000   7.578  0.3316 -2.4044 -0.9103
 3059TIP3   OH230811   6.481   6.724   7.745 -0.2004  0.6837  0.3111
 3059TIP3    H130812   6.526   6.647   7.778 -1.6985 -1.2518 -1.7987
 3059TIP3    H230813   6.511   6.733   7.654 -2.0680  0.8741 -0.3415
 3060TIP3   OH230814   5.896   0.525   8.748 -0.3349 -0.6869  0.1345
 3060TIP3    H130815   5.877   0.584   8.822  0.3379  1.2254 -1.1358
 3060TIP3    H230816   5.810   0.498   8.716 -0.7939  1.5865 -0.7306
 3061TIP3   OH230817   0.481   5.612   0.391 -0.1053 -0.1031  0.2799
 3061TIP3    H130818   0.463   5.675   0.321 -0.2895 -0.3167  0.1366
 3061TIP3    H230819   0.560   5.567   0.363  0.1517  0.2148  0.4866
 3062TIP3   OH230820   4.523   4.896   1.598  0.1502 -0.2394  0.3488
 3062TIP3    H130821   4.521   4.974   1.654  2.5563  0.7125 -0.7365
 3062TIP3    H230822   4.478   4.829   1.648 -0.0690  1.2568  2.2764
 3063TIP3   OH230823   6.186   0.486   7.507  0.2764  0.6840  0.1883
 3063TIP3    H130824   6.214   0.547   7.439  1.1811 -0.2799 -0.3420
 3063TIP3    H230825   6.120   0.534   7.557 -0.0927  1.5805 -1.0957
 3064TIP3   OH230826   1.004   2.086   7.479  0.0127 -0.5393 -0.3836
 3064TIP3    H130827   1.008   2.154   7.412  0.0722 -1.1858 -1.0491
 3064TIP3    H230828   1.018   2.133   7.562  0.6724  0.1702 -0.8771
 3065TIP3   OH230829   4.721   4.115   8.138  0.3865 -0.5814  0.1207
 3065TIP3    H130830   4.756   4.110   8.049  0.0437  1.0299 -0.1239
 3065TIP3    H230831   4.796   4.138   8.193  0.2415  0.2462 -0.0221
 3066TIP3   OH230832   1.323   0.503   0.050  0.2858  0.3562 -0.1851
 3066TIP3    H130833   1.359   0.424   0.010 -1.5654 -0.3631 -0.5237
 3066TIP3    H230834   1.261   0.537  -0.015 -3.0584 -1.0169  1.9568
 3067TIP3   OH230835   1.441   3.037   0.659 -0.3071 -0.1648 -0.1614
 3067TIP3    H130836   1.417   3.019   0.568 -0.7831  0.7438 -0.2359
 3067TIP3    H230837   1.361   3.020   0.709 -0.1990 -0.1593  0.0170
 3068TIP3   OH230838   3.419   3.460   0.218 -0.5326  0.5287 -0.5276
 3068TIP3    H130839   3.400   3.536   0.163  0.8813  1.9504  0.8615
 3068TIP3    H230840   3.406   3.491   0.307  1.9529 -0.2599  0.1764
 3069TIP3   OH230841   0.029   1.938   7.750 -0.2017  0.0903 -0.5565
 3069TIP3    H130842   0.098   2.002   7.769 -0.4583 -0.2989  1.9913
 3069TIP3    H230843  -0.016   1.925   7.833 -1.3345 -2.0644 -1.4149
 3070TIP3   OH230844   6.455   1.444   6.589 -0.4727 -0.4153  0.1155
 3070TIP3    H130845   6.539   1.488   6.582 -1.0541  1.1052  1.8686
 3070TIP3    H230846   6.450   1.387   6.512  2.0772 -0.4547 -0.0811
 3071TIP3   OH230847   5.587   1.674   0.442  0.2900  0.3471 -0.0068
 3071TIP3    H130848   5.674   1.639   0.461  0.2153  0.7678  1.2120
 3071TIP3    H230849   5.594   1.767   0.462 -0.8236  0.1282  1.5741
 3072TIP3   OH230850   4.819   3.644   8.434 -0.1847  0.0940  0.4374
 3072TIP3    H130851   4.740   3.686   8.400  0.7083  1.3094 -0.1948
 3072TIP3    H230852   4.838   3.575   8.370  0.9855  1.8060 -1.1604
 3073TIP3   OH230853   0.016   4.751   0.205 -0.1520 -0.1108  0.6044
 3073TIP3    H130854   0.014   4.839   0.241  2.6975 -0.6438  2.3058
 3073TIP3    H230855  -0.071   4.740   0.165 -0.4511  3.5808 -0.1464
 3074TIP3   OH230856   2.656   2.368   7.296 -0.2083  0.4859 -0.1194
 3074TIP3    H130857   2.714   2.295   7.317 -0.1106  0.9680  1.4631
 3074TIP3    H230858   2.683   2.397   7.209  2.3808  1.0936  0.8021
 3075TIP3   OH230859   0.114   4.931   2.006 -0.2129 -0.5543  0.3950
 3075TIP3    H130860   0.122   5.026   1.993 -0.6609 -0.2905  1.7959
 3075TIP3    H230861   0.181   4.893   1.949  0.8690  0.6907  0.7837
 3076TIP3   OH230862   0.181   4.453   7.387  0.0316  0.4654 -0.2119
 3076TIP3    H130863   0.143   4.417   7.307  0.3431 -1.7662  0.5881
 3076TIP3    H230864   0.162   4.388   7.454  0.3349  1.9884  1.4169
 3077TIP3   OH230865   0.858   3.358   7.455  0.3754 -0.0724 -0.1500
 3077TIP3    H130866   0.799   3.338   7.527  1.5426  1.4834  1.3379
 3077TIP3    H230867   0.812   3.329   7.377 -2.5592  1.4394  0.8599
 3078TIP3   OH230868   6.779   5.654   6.872 -0.1991 -0.1417 -0.0520
 3078TIP3    H130869   6.707   5.672   6.812  0.3588  0.9866 -0.4012
 3078TIP3    H230870   6.824   5.737   6.882  1.3121 -0.9109 -0.1574
 3079TIP3   OH230871   0.683   3.778   6.389  0.2649 -0.1469  0.0428
 3079TIP3    H130872   0.742   3.724   6.440  0.3649 -0.2816 -0.2123
 3079TIP3    H230873   0.652   3.845   6.450  0.2637 -0.3964  0.3167
 3080TIP3   OH230874   6.139   6.122   1.914  0.2088 -0.4413  0.3397
 3080TIP3    H130875   6.219   6.143   1.866  1.0104 -0.9265  1.4176
 3080TIP3    H230876   6.083   6.198   1.902 -0.2570 -1.0981 -2.5650
 3081TIP3   OH230877   4.983   6.804   1.207 -0.0883  0.1570  0.0876
 3081TIP3    H130878   5.062   6.856   1.190 -1.0731  1.1463 -1.8038
 3081TIP3    H230879   5.015   6.727   1.254  2.2677 -0.2266 -1.9236
 3082TIP3   OH230880   4.443   1.461   0.326 -0.0258  0.0396 -0.3246
 3082TIP3    H130881   4.442   1.387   0.387  1.3553  0.2764  0.0047
 3082TIP3    H230882   4.435   1.538   0.382  0.3413  0.2170 -0.5155
 3083TIP3   OH230883   5.907   4.323   7.006 -0.0252 -0.4713 -0.1135
 3083TIP3    H130884   5.849   4.265   7.056  1.3239 -0.0042  2.1467
 3083TIP3    H230885   5.985   4.270   6.989  0.8163  0.3253  1.1109
 3084TIP3   OH230886   6.114   2.925   7.670  0.1835 -0.2486  0.2503
 3084TIP3    H130887   6.140   3.012   7.699 -1.8404  0.7225 -0.6524
 3084TIP3    H230888   6.154   2.916   7.583  0.6863 -0.3863  0.4911
 3085TIP3   OH230889   3.556   4.251   1.535 -0.6907 -0.3422 -0.0927
 3085TIP3    H130890   3.602   4.168   1.525  0.0924 -0.1092  1.2927
 3085TIP3    H230891   3.488   4.233   1.600 -1.7335 -0.3519 -1.1655
 3086TIP3   OH230892   5.962   1.029   2.384  0.6115  0.2483 -0.4010
 3086TIP3    H130893   5.989   1.082   2.459 -0.5522  1.5546 -0.8681
 3086TIP3    H230894   6.019   1.058   2.313  1.2784 -0.5275 -0.1906
 3087TIP3   OH230895   6.399   1.773   1.234  0.6166  0.3396 -0.1045
 3087TIP3    H130896   6.309   1.794   1.260  0.8290  0.9568  0.1539
 3087TIP3    H230897   6.406   1.679   1.245 -0.4375  0.0642 -1.5144
 3088TIP3   OH230898   0.801   3.032   2.794  0.1392  0.0626 -0.1538
 3088TIP3    H130899   0.770   2.945   2.817  1.2633 -0.3270 -0.0408
 3088TIP3    H230900   0.722   3.086   2.792 -0.6684 -1.1157 -1.0108
 3089TIP3   OH230901   1.708   5.225   8.482 -0.4148 -0.6134  0.2994
 3089TIP3    H130902   1.741   5.149   8.530 -0.1330 -0.7991 -0.1837
 3089TIP3    H230903   1.769   5.236   8.409 -1.0902 -0.6042 -0.2758
 3090TIP3   OH230904   4.645   6.338   8.754 -0.1545 -0.1277  0.4769
 3090TIP3    H130905   4.664   6.268   8.816  1.0046 -0.2192  0.0362
 3090TIP3    H230906   4.601   6.405   8.806  1.3598  0.0729  1.5612
 3091TIP3   OH230907   0.092   6.758   1.938  0.4412 -0.2090  0.0220
 3091TIP3    H130908   0.041   6.716   2.007  1.1936 -1.7129 -0.2822
 3091TIP3    H230909   0.030   6.770   1.866 -0.2277  0.9210  0.7673
 3092TIP3   OH230910   6.673   1.000   7.803 -0.1747  0.3976 -0.1570
 3092TIP3    H130911   6.646   1.092   7.798 -0.8714  0.2349  0.4764
 3092TIP3    H230912   6.617   0.962   7.870 -0.8504 -0.8270 -1.3704
 3093TIP3   OH230913   5.191   5.811   0.097 -0.1976 -0.3520  0.1105
 3093TIP3    H130914   5.128   5.875   0.129  0.2082 -0.2757  0.7736
 3093TIP3    H230915   5.276   5.854   0.108  0.0311 -0.7769  0.0010
 3094TIP3   OH230916   4.535   1.698   0.465  0.3457  0.2638 -0.0269
 3094TIP3    H130917   4.607   1.718   0.405 -0.4544 -1.7800 -1.7885
 3094TIP3    H230918   4.578   1.687   0.550  1.7185  1.7255 -0.4916
 3095TIP3   OH230919   4.240   5.545   7.198 -0.2207 -0.1802 -0.0830
 3095TIP3    H130920   4.174   5.579   7.258 -0.0979  0.8703 -0.5333
 3095TIP3    H230921   4.296   5.490   7.253  0.0929  1.0330  0.8412
 3096TIP3   OH230922   5.610   0.474   1.740  0.1496  0.1488  0.2646
 3096TIP3    H130923   5.613   0.389   1.784 -0.9760  0.0425  0.1642
 3096TIP3    H230924   5.593   0.537   1.811  2.2899  0.4831  0.5415
 3097TIP3   OH230925   1.553   3.360   8.687  0.1701  0.1510 -0.3429
 3097TIP3    H130926   1.639   3.400   8.698 -0.1094  0.6636 -0.0427
 3097TIP3    H230927   1.490   3.428   8.710 -0.3149 -0.3502 -0.1557
 3098TIP3   OH230928   4.474   1.277   0.914 -0.0079 -1.0035  0.0854
 3098TIP3    H130929   4.432   1.363   0.915  1.0602 -0.4567 -0.6476
 3098TIP3    H230930   4.405   1.218   0.881 -0.4762 -0.2819 -0.2502
 3099TIP3   OH230931   5.283   1.555   6.539  0.3906 -0.3080  0.2634
 3099TIP3    H130932   5.348   1.563   6.469  0.3204  0.1139  0.2443
 3099TIP3    H230933   5.298   1.632   6.594 -0.3313 -0.0192  0.0637
 3100TIP3   OH230934   2.107   3.289   2.719 -0.2082 -0.4922 -0.3083
 3100TIP3    H130935   2.133   3.201   2.743 -0.8414 -0.9820 -1.3342
 3100TIP3    H230936   2.182   3.344   2.742  0.9653 -1.5781 -1.4178
 3101TIP3   OH230937   2.608   3.735   0.938  0.1312 -0.3394  0.5877
 3101TIP3    H130938   2.588   3.697   1.023  0.3105  1.0354  1.2703
 3101TIP3    H230939   2.527   3.723   0.887  0.4021 -2.1978  0.5219
 3102TIP3   OH230940   3.875   3.387   1.321 -0.5745  0.2818  0.3382
 3102TIP3    H130941   3.951   3.414   1.269 -0.4266 -1.2104 -0.2931
 3102TIP3    H230942   3.801   3.428   1.278 -0.3908 -0.4761 -0.7437
 3103TIP3   OH230943   5.501   0.937   1.280  0.0946  0.2099 -0.2428
 3103TIP3    H130944   5.462   0.850   1.272 -0.0508  0.2112  0.3723
 3103TIP3    H230945   5.521   0.945   1.374 -1.0594  1.3283 -0.0676
 3104TIP3   OH230946   1.887   4.707   7.936 -0.1713 -0.8794  0.6067
 3104TIP3    H130947   1.824   4.638   7.919  0.6334 -1.2706 -0.9648
 3104TIP3    H230948   1.953   4.697   7.868  0.2704  1.0883  0.6807
 3105TIP3   OH230949   2.512   0.120   1.354  0.7296 -0.5300  0.4136
 3105TIP3    H130950   2.532   0.027   1.341 -0.8773 -0.9794  0.9891
 3105TIP3    H230951   2.420   0.129   1.330  0.8092  0.8902  0.5338
 3106TIP3   OH230952   1.176   0.666   1.144 -0.5044 -0.6078 -0.2675
 3106TIP3    H130953   1.166   0.743   1.200 -1.6853 -1.7386  1.1620
 3106TIP3    H230954   1.268   0.667   1.118 -0.3666  0.9610  0.1781
 3107TIP3   OH230955   4.570   2.668   7.501  0.0756 -0.0695  0.6337
 3107TIP3    H130956   4.642   2.606   7.488  0.6618  0.6293  0.4836
 3107TIP3    H230957   4.607   2.736   7.557  0.6727  2.1321 -2.1913
 3108TIP3   OH230958   2.361   2.449   1.919 -0.2626  0.0644 -0.0802
 3108TIP3    H130959   2.322   2.362   1.917 -1.4277  0.5580  0.2432
 3108TIP3    H230960   2.450   2.435   1.949 -0.3900 -1.0271 -0.1698
 3109TIP3   OH230961   0.998   4.949   8.703 -0.0195 -0.0586  0.1790
 3109TIP3    H130962   1.018   5.008   8.631  0.8123  0.3789  0.7583
 3109TIP3    H230963   1.074   4.954   8.761 -1.3615  0.9020  1.9439
 3110TIP3   OH230964   6.806   3.384   8.223 -0.6247  0.2939  0.2226
 3110TIP3    H130965   6.890   3.365   8.181 -0.1341 -0.5308  1.5330
 3110TIP3    H230966   6.815   3.474   8.256 -0.7121  0.6401 -0.6613
 3111TIP3   OH230967   6.518   4.155   1.138  0.4736  0.1660 -0.2143
 3111TIP3    H130968   6.471   4.080   1.099 -2.3183  1.4796  0.3736
 3111TIP3    H230969   6.560   4.119   1.216  0.1718 -1.0276 -0.5796
 3112TIP3   OH230970   4.265   1.960   7.866  0.0924  0.2383  0.4747
 3112TIP3    H130971   4.253   1.879   7.816 -2.3985  1.2527 -0.7663
 3112TIP3    H230972   4.338   2.005   7.822  1.2945 -1.1413  0.9917
 3113TIP3   OH230973   2.350   3.798   1.203 -0.1784 -0.0954 -0.1404
 3113TIP3    H130974   2.397   3.812   1.285  0.0387  0.4685 -0.3486
 3113TIP3    H230975   2.289   3.872   1.197  0.2108  0.1907 -0.7513
 3114TIP3   OH230976   2.781   5.344   7.946  0.3854 -0.5890  0.0128
 3114TIP3    H130977   2.752   5.432   7.921  0.1531  0.1839  2.6234
 3114TIP3    H230978   2.877   5.350   7.948  0.4134 -0.7253 -0.8630
 3115TIP3   OH230979   1.470   5.920   7.502 -0.6748  0.0651  0.2348
 3115TIP3    H130980   1.464   6.015   7.510  0.3012  0.0044  2.1355
 3115TIP3    H230981   1.559   5.899   7.528 -0.9872 -1.4138  0.1886
 3116TIP3   OH230982   4.180   2.831   0.244 -0.2248  0.1700  0.4311
 3116TIP3    H130983   4.129   2.764   0.198  0.7074  0.1276 -0.5711
 3116TIP3    H230984   4.189   2.797   0.333 -0.1852 -0.8001  0.0678
 3117TIP3   OH230985   5.435   4.221   0.134 -0.4561 -0.1854  0.2291
 3117TIP3    H130986   5.439   4.316   0.120  0.0672 -0.2425 -0.0200
 3117TIP3    H230987   5.425   4.184   0.046  1.3502 -0.4615  0.0983
 3118TIP3   OH230988   2.623   0.828   6.280  0.1758  0.8278  0.3087
 3118TIP3    H130989   2.532   0.846   6.304 -0.0201  0.9564 -0.5257
 3118TIP3    H230990   2.631   0.857   6.189  0.3109 -1.6929 -0.5500
 3119TIP3   OH230991   2.569   0.203   8.378  0.1260 -0.0348 -0.3331
 3119TIP3    H130992   2.663   0.184   8.371  0.0590  0.0749 -2.2540
 3119TIP3    H230993   2.529   0.152   8.307 -1.1310  0.6942 -0.1884
 3120TIP3   OH230994   5.637   5.969   8.499  0.4103  0.7203  0.1583
 3120TIP3    H130995   5.616   5.932   8.585 -0.0492  0.8393  0.0984
 3120TIP3    H230996   5.646   6.063   8.516  4.6398  0.3792  0.9472
 3121TIP3   OH230997   2.869   6.101   6.661 -0.0317 -0.7737  0.1428
 3121TIP3    H130998   2.881   6.044   6.737 -0.4576  0.5475  1.2454
 3121TIP3    H230999   2.774   6.115   6.656  0.1652  1.2276  1.0133
 3122TIP3   OH231000   6.427   0.714   0.016  0.3395  0.0668  0.2527
 3122TIP3    H131001   6.421   0.762  -0.066 -0.4250  0.0586  0.3009
 3122TIP3    H231002   6.337   0.712   0.050  0.7812  0.9268  1.5713
 3123TIP3   OH231003   5.024   0.706   0.726  0.8534  0.3326  0.4402
 3123TIP3    H131004   4.978   0.736   0.804 -1.7775 -2.3188  0.0796
 3123TIP3    H231005   5.107   0.672   0.759  0.1983  0.1543  1.9891
 3124TIP3   OH231006   6.184   2.593   1.114 -0.1761  0.0137  0.6013
 3124TIP3    H131007   6.101   2.636   1.095 -0.6198 -1.2701 -0.5308
 3124TIP3    H231008   6.162   2.527   1.180  0.1487  0.3230  1.0250
 3125TIP3   OH231009   3.101   2.697   7.638 -0.2247  0.8805  0.6928
 3125TIP3    H131010   3.028   2.717   7.696  0.1682  0.0572  1.5048
 3125TIP3    H231011   3.060   2.676   7.554 -0.8286  1.6671  0.7792
 3126TIP3   OH231012   1.488   3.995   1.060 -0.4379  0.4890  0.8667
 3126TIP3    H131013   1.575   4.033   1.057 -0.6528  1.0177  1.2047
 3126TIP3    H231014   1.465   3.994   1.153 -0.6757  0.0953  0.8045
 3127TIP3   OH231015   4.431   0.249   7.967  0.7245  0.1582 -0.1344
 3127TIP3    H131016   4.398   0.276   8.053 -0.6953  0.5325 -0.7817
 3127TIP3    H231017   4.488   0.321   7.940  1.0638  0.1058  0.4170
 3128TIP3   OH231018   5.920   0.563   1.749 -0.2375 -0.4817 -0.4683
 3128TIP3    H131019   5.858   0.583   1.820  0.2550  0.4596 -0.3000
 3128TIP3    H231020   5.995   0.523   1.794 -0.3624 -0.8454 -0.5802
 3129TIP3   OH231021   6.259   3.260   2.157 -0.3210  0.3188 -0.3061
 3129TIP3    H131022   6.283   3.181   2.110  0.5461  1.1308 -1.2842
 3129TIP3    H231023   6.294   3.332   2.104  2.0515  1.2442  2.2665
 3130TIP3   OH231024   3.471   4.119   0.730  0.2295 -0.0402  0.2084
 3130TIP3    H131025   3.432   4.088   0.811 -1.4931 -0.5611 -0.7520
 3130TIP3    H231026   3.479   4.040   0.675 -1.6379  0.7069 -1.2572
 3131TIP3   OH231027   0.764   0.750   0.669  0.5310  0.1446 -0.2178
 3131TIP3    H131028   0.845   0.798   0.652  1.0654 -0.2564  1.0799
 3131TIP3    H231029   0.702   0.785   0.605  1.5933  0.7797 -0.9380
 3132TIP3   OH231030   1.246   6.033   8.898  0.5179  0.2132  0.1432
 3132TIP3    H131031   1.200   5.961   8.853 -0.0904  0.4350  0.3946
 3132TIP3    H231032   1.321   5.991   8.939  1.3971  0.0869 -1.4913
 3133TIP3   OH231033   4.340   4.069   7.722  0.0368  0.2919 -0.4915
 3133TIP3    H131034   4.312   3.990   7.676 -1.5866  0.9051 -0.5954
 3133TIP3    H231035   4.433   4.053   7.742 -0.2685 -1.6698 -0.4342
 3134TIP3   OH231036   3.787   3.410   7.308 -0.0570 -0.3829  0.1763
 3134TIP3    H131037   3.730   3.339   7.279 -1.5166  0.0764  1.7476
 3134TIP3    H231038   3.727   3.482   7.326  0.6002 -0.6047  4.1815
 3135TIP3   OH231039   3.113   0.448   1.185 -0.0418  0.1428  0.0857
 3135TIP3    H131040   3.186   0.387   1.187 -1.0823 -1.1321  1.6904
 3135TIP3    H231041   3.154   0.535   1.189  1.4250 -0.5333  3.3194
 3136TIP3   OH231042   0.397   1.218   8.146  0.1567  0.4180  0.2990
 3136TIP3    H131043   0.440   1.166   8.213  2.2268  1.1364 -0.3890
 3136TIP3    H231044   0.380   1.156   8.075  0.6970  0.2493  0.3110
 3137TIP3   OH231045   0.544   1.457   8.869  0.4121  0.4448 -0.1898
 3137TIP3    H131046   0.544   1.380   8.811  1.0086  0.7686 -0.6281
 3137TIP3    H231047   0.573   1.529   8.814 -3.0248  1.6924 -0.6418
 3138TIP3   OH231048   0.558   2.865   2.019 -0.7948  0.2084  0.1307
 3138TIP3    H131049   0.530   2.914   1.941 -0.7299  1.3521  0.7922
 3138TIP3    H231050   0.578   2.777   1.987 -1.3663  0.4848 -1.0290
 3139TIP3   OH231051   5.558   3.495   0.238  0.2006  0.0270 -0.1449
 3139TIP3    H131052   5.538   3.550   0.314 -0.5847  0.4131 -0.6219
 3139TIP3    H231053   5.496   3.524   0.171  0.3427 -0.8729 -0.6697
 3140TIP3   OH231054   0.992   0.303   0.516  0.0134  0.1866 -0.2223
 3140TIP3    H131055   1.066   0.253   0.552 -0.9362 -0.4957  0.8395
 3140TIP3    H231056   0.925   0.299   0.584 -0.8534  1.1675 -0.9888
 3141TIP3   OH231057   1.661   2.944   2.387  0.0812  0.2357 -0.2581
 3141TIP3    H131058   1.585   2.898   2.423 -0.2888  0.5353 -0.6554
 3141TIP3    H231059   1.734   2.913   2.440 -0.3651  0.2013  0.3494
 3142TIP3   OH231060   5.427   2.200   2.040  0.8913  0.0970 -0.2432
 3142TIP3    H131061   5.382   2.231   2.119  1.0470 -2.3848  0.9435
 3142TIP3    H231062   5.520   2.214   2.059  0.8635  0.7079 -0.5577
 3143TIP3   OH231063   6.164   1.995   6.722  0.2598  0.1317  0.6745
 3143TIP3    H131064   6.161   1.944   6.641  1.3321  1.3827 -0.1852
 3143TIP3    H231065   6.226   1.948   6.778 -0.9031 -1.0453  1.0358
 3144TIP3   OH231066   3.132   0.256   7.923 -0.3692  0.3373 -0.6150
 3144TIP3    H131067   3.046   0.232   7.958 -0.7774 -1.1525 -2.4342
 3144TIP3    H231068   3.186   0.271   8.000 -2.4406  2.2103  0.5916
 3145TIP3   OH231069   0.506   2.389   8.490 -0.7988  0.1780 -0.0689
 3145TIP3    H131070   0.490   2.473   8.534 -1.1673 -0.6024  1.3683
 3145TIP3    H231071   0.477   2.323   8.554  0.4179 -1.0712 -0.7540
 3146TIP3   OH231072   1.678   0.965   0.680  0.1718 -0.2323 -0.3787
 3146TIP3    H131073   1.619   1.031   0.642  0.1645  1.1964  1.9569
 3146TIP3    H231074   1.754   0.964   0.621 -0.5177  0.6669 -1.3287
 3147TIP3   OH231075   3.779   1.545   6.791  0.1083  0.0203 -0.0871
 3147TIP3    H131076   3.745   1.493   6.718  1.4237 -0.1718 -0.5987
 3147TIP3    H231077   3.709   1.544   6.857  0.5757 -3.6851  0.5684
 3148TIP3   OH231078   6.160   5.056   6.325  0.1749  0.2025  0.6953
 3148TIP3    H131079   6.142   5.117   6.254 -0.6212  2.2775  2.5498
 3148TIP3    H231080   6.253   5.070   6.346  1.0710 -2.0773 -1.3144
 3149TIP3   OH231081   1.526   0.800   8.721  0.4671  0.1752 -0.1237
 3149TIP3    H131082   1.543   0.731   8.786 -1.6486 -1.5366 -1.2919
 3149TIP3    H231083   1.582   0.777   8.647  0.8933  0.6109  0.0571
 3150TIP3   OH231084   3.890   0.951   7.451 -0.4019 -0.4377  0.3572
 3150TIP3    H131085   3.871   0.996   7.533 -1.0532 -0.9943  0.5222
 3150TIP3    H231086   3.806   0.918   7.421 -0.3234  0.5237 -1.0200
 3151TIP3   OH231087   0.920   4.213   0.585  0.7703 -0.5484  0.3152
 3151TIP3    H131088   0.975   4.224   0.508 -0.0469  1.5791 -0.0317
 3151TIP3    H231089   0.897   4.120   0.586  1.3237 -0.7388 -1.6310
 3152TIP3   OH231090   4.402   4.586   0.225 -0.5751 -0.3633  0.5025
 3152TIP3    H131091   4.469   4.612   0.288 -0.8300  0.4279  0.4569
 3152TIP3    H231092   4.424   4.634   0.145 -0.1923 -1.4289 -0.0673
 3153TIP3   OH231093   1.440   2.113   8.879 -0.2156 -0.3839  0.7989
 3153TIP3    H131094   1.391   2.032   8.893 -2.4166  0.9765  1.3306
 3153TIP3    H231095   1.477   2.133   8.966  1.2181 -1.3029  0.4412
 3154TIP3   OH231096   6.125   6.516   0.571  0.3343  0.2151 -0.2198
 3154TIP3    H131097   6.118   6.600   0.616  0.2889  0.0877  0.0108
 3154TIP3    H231098   6.039   6.476   0.580  0.4898 -0.0589  0.0763
 3155TIP3   OH231099   0.329   6.506   0.497  0.5933 -0.1737 -0.1997
 3155TIP3    H131100   0.350   6.443   0.566 -1.3365 -1.0620 -0.3260
 3155TIP3    H231101   0.359   6.464   0.416  1.0764 -0.0305 -0.0956
 3156TIP3   OH231102   4.609   1.387   6.388 -0.5629  0.0034 -0.0615
 3156TIP3    H131103   4.703   1.369   6.394 -0.4699  0.3098 -0.5918
 3156TIP3    H231104   4.586   1.366   6.298 -0.3266  3.0068 -0.9230
 3157TIP3   OH231105   5.440   3.381   7.520 -0.0115  0.2691 -0.7258
 3157TIP3    H131106   5.370   3.445   7.504 -1.4833 -1.5988 -2.3301
 3157TIP3    H231107   5.438   3.324   7.443  1.2751 -1.6608  0.5892
 3158TIP3   OH231108   3.871   2.331   6.551  0.1691  0.3474 -0.2371
 3158TIP3    H131109   3.825   2.355   6.470 -0.6207 -0.4742 -0.0481
 3158TIP3    H231110   3.957   2.303   6.522 -0.2661 -0.3961 -0.8619
 3159TIP3   OH231111   1.094   3.040   7.263  0.2664  0.3053 -0.0106
 3159TIP3    H131112   1.075   3.132   7.247 -0.7046  0.1259  0.0595
 3159TIP3    H231113   1.014   3.005   7.302  0.0942 -0.9134 -1.3615
 3160TIP3   OH231114   1.998   6.140   1.403  0.0708 -0.0840  0.0025
 3160TIP3    H131115   2.093   6.145   1.409 -0.0208  0.0306  2.4808
 3160TIP3    H231116   1.967   6.218   1.449 -1.2505  0.3014 -1.4706
 3161TIP3   OH231117   3.236   1.395   8.503 -0.2656  0.0695  0.5032
 3161TIP3    H131118   3.217   1.486   8.528  0.7798  0.4562 -0.0214
 3161TIP3    H231119   3.184   1.342   8.563  0.3129  0.9935  1.8669
 3162TIP3   OH231120   0.664   1.772   0.794  0.0004  0.0884 -0.2314
 3162TIP3    H131121   0.705   1.859   0.796 -0.6089  0.3861 -0.3307
 3162TIP3    H231122   0.662   1.744   0.885  0.0536  0.2493 -0.1798
 3163TIP3   OH231123   3.344   1.062   8.706 -0.2499  0.1138  0.0148
 3163TIP3    H131124   3.274   1.053   8.770  0.1433  0.8080  0.5507
 3163TIP3    H231125   3.304   1.036   8.623 -0.8182 -0.5997  0.4990
 3164TIP3   OH231126   2.925   1.429   6.364  0.1032  0.1049 -0.0817
 3164TIP3    H131127   2.892   1.380   6.439  0.3885  1.1532  0.7584
 3164TIP3    H231128   2.999   1.377   6.331 -0.5078 -0.7452 -0.1184
 3165TIP3   OH231129   2.013   4.555   0.863  0.4923 -0.2710 -0.2202
 3165TIP3    H131130   2.059   4.609   0.927 -0.3447 -0.7941  0.8399
 3165TIP3    H231131   2.081   4.504   0.820  1.2630  1.3297 -0.9795
 3166TIP3   OH231132   5.954   5.912   8.592  0.3557  0.4731  0.8582
 3166TIP3    H131133   5.887   5.875   8.649 -0.4483  1.1249  0.3600
 3166TIP3    H231134   6.012   5.959   8.651  1.8013 -2.0714  1.6013
 3167TIP3   OH231135   6.021   4.890   1.756 -0.3480 -0.5280 -0.4350
 3167TIP3    H131136   5.976   4.958   1.706  1.3263 -0.4527 -1.9409
 3167TIP3    H231137   6.046   4.825   1.691  0.3750 -1.2983  0.5817
 3168TIP3   OH231138   0.690   0.301   8.908  0.2899  0.6472 -0.5324
 3168TIP3    H131139   0.624   0.368   8.922 -0.4047  0.0971 -1.0820
 3168TIP3    H231140   0.648   0.238   8.849  0.9404 -0.2473 -0.0607
 3169TIP3   OH231141   4.552   6.041   1.973 -0.4501 -0.4069 -0.3036
 3169TIP3    H131142   4.522   5.952   1.995 -1.8903 -0.1948 -1.2906
 3169TIP3    H231143   4.484   6.076   1.916 -0.2799  1.6164  0.6376
 3170TIP3   OH231144   1.452   0.247   0.680  0.2704  0.0361 -0.4021
 3170TIP3    H131145   1.542   0.268   0.657  0.4983 -0.4075  0.0572
 3170TIP3    H231146   1.426   0.314   0.742  0.5004 -0.1871 -0.0585
 3171TIP3   OH231147   3.941   1.059   1.446 -0.1236 -0.4081  0.0129
 3171TIP3    H131148   3.856   1.030   1.479  0.8857 -0.9786  2.3586
 3171TIP3    H231149   3.921   1.116   1.372 -2.4128 -2.4595 -1.0698
 3172TIP3   OH231150   1.712   2.204   1.817 -0.4191 -0.0864  0.5745
 3172TIP3    H131151   1.710   2.144   1.742 -2.1614  1.1895 -0.4935
 3172TIP3    H231152   1.689   2.149   1.892 -3.2483 -0.6695 -0.5557
 3173TIP3   OH231153   3.777   1.337   1.933  0.2878  0.5509  0.1131
 3173TIP3    H131154   3.719   1.288   1.991  0.6087 -1.8915 -1.4732
 3173TIP3    H231155   3.721   1.403   1.892 -0.8800 -0.3510  0.2089
 3174TIP3   OH231156   1.418   2.816   8.317 -0.0733  0.6291  0.0891
 3174TIP3    H131157   1.392   2.883   8.379  0.4928  1.9385 -1.0182
 3174TIP3    H231158   1.497   2.851   8.275  0.0605 -0.5849 -0.7512
 3175TIP3   OH231159   3.744   4.530   0.743  0.2993 -0.4832 -0.2413
 3175TIP3    H131160   3.657   4.502   0.771  0.7022 -0.1339  1.4232
 3175TIP3    H231161   3.728   4.587   0.668 -0.9442 -0.0114  0.3662
 3176TIP3   OH231162   5.681   1.585   0.023  0.0376 -0.0251  0.9119
 3176TIP3    H131163   5.650   1.661  -0.026 -1.2813  1.2797  3.5697
 3176TIP3    H231164   5.768   1.610   0.053  0.0830 -0.0583  0.8095
 3177TIP3   OH231165   2.873   0.149   6.284  0.3412 -0.4021 -0.1699
 3177TIP3    H131166   2.799   0.095   6.311 -1.3920  1.9376  0.1260
 3177TIP3    H231167   2.859   0.163   6.191 -0.3106  0.9722  0.1021
 3178TIP3   OH231168   2.090   3.870   2.674 -0.1652  0.0636 -0.0373
 3178TIP3    H131169   2.138   3.840   2.751 -0.2841 -0.0722 -0.0175
 3178TIP3    H231170   2.141   3.836   2.600  0.2379  0.6283 -0.0277
 3179TIP3   OH231171   2.752   6.240   8.320 -0.5277 -0.2063 -0.4952
 3179TIP3    H131172   2.669   6.287   8.317 -0.1229  0.5550 -0.0390
 3179TIP3    H231173   2.792   6.257   8.234  0.0088  1.0458 -0.0262
 3180TIP3   OH231174   5.888   4.018   7.010  0.0965 -0.5824 -0.0267
 3180TIP3    H131175   5.887   4.009   6.915 -0.2757 -0.4230 -0.0419
 3180TIP3    H231176   5.979   4.039   7.031  0.9523 -3.9026  0.0010
 3181TIP3   OH231177   5.322   4.126   7.036  0.0537 -0.5191  0.6055
 3181TIP3    H131178   5.255   4.083   6.983  0.7152 -2.6830  1.4330
 3181TIP3    H231179   5.397   4.067   7.033  1.4173  1.1120  0.9510
 3182TIP3   OH231180   0.505   5.048   6.816  0.1823  0.7015 -0.1091
 3182TIP3    H131181   0.558   5.031   6.739  0.5295 -1.4517  0.5487
 3182TIP3    H231182   0.566   5.042   6.890 -0.6767 -0.3481  0.5466
 3183TIP3   OH231183   2.835   6.456   7.239 -0.4466 -0.5097  0.1902
 3183TIP3    H131184   2.826   6.428   7.330 -1.7132 -0.6260  0.0430
 3183TIP3    H231185   2.757   6.423   7.196 -0.7533  1.0891 -0.5496
 3184TIP3   OH231186   3.186   2.427   8.904 -0.2821 -0.3899 -0.0603
 3184TIP3    H131187   3.122   2.387   8.846  0.1252  2.4974 -2.7382
 3184TIP3    H231188   3.135   2.485   8.960 -0.2293  0.4790 -0.8958
 3185TIP3   OH231189   2.897   4.204   1.290 -0.0020 -0.0740  0.4759
 3185TIP3    H131190   2.983   4.162   1.284  1.1059  2.1323 -0.0725
 3185TIP3    H231191   2.868   4.213   1.199 -1.1653 -1.3522  0.6716
 3186TIP3   OH231192   3.604   4.752   0.273 -0.1117 -0.0744  0.0115
 3186TIP3    H131193   3.669   4.816   0.302  0.1225 -0.0839 -0.4887
 3186TIP3    H231194   3.621   4.742   0.179  0.7139 -1.8279  0.3086
 3187TIP3   OH231195   2.272   0.923   8.644  0.0949  0.1100  0.1751
 3187TIP3    H131196   2.345   0.979   8.670 -0.6435  1.3556 -0.3173
 3187TIP3    H231197   2.301   0.879   8.564  0.1995  0.8543 -0.2053
 3188TIP3   OH231198   3.501   2.905   0.691  0.1507  0.1794  0.9013
 3188TIP3    H131199   3.579   2.942   0.650 -1.5307  0.1246 -2.7808
 3188TIP3    H231200   3.438   2.977   0.692 -1.6483 -1.1229 -2.0878
 3189TIP3   OH231201   1.851   4.382   7.484 -0.3347 -0.1310 -0.2072
 3189TIP3    H131202   1.887   4.409   7.399 -1.4411  0.3511 -0.5353
 3189TIP3    H231203   1.888   4.295   7.498  2.4294  1.0333  0.3600
 3190TIP3   OH231204   1.561   3.352   0.420  0.4093  0.1571 -0.2660
 3190TIP3    H131205   1.638   3.306   0.389 -0.3041  0.1663 -2.2151
 3190TIP3    H231206   1.504   3.358   0.343 -1.7172 -0.2044  1.1717
 3191TIP3   OH231207   3.784   6.520   1.023 -0.6584  0.2765 -0.1034
 3191TIP3    H131208   3.810   6.599   0.977  0.0957  0.3691  0.4598
 3191TIP3    H231209   3.762   6.457   0.954 -1.7565  1.1221 -0.5537
 3192TIP3   OH231210   5.059   2.570   7.276  0.6003  0.0094  0.6015
 3192TIP3    H131211   5.101   2.653   7.297 -1.5450  1.1464  0.5713
 3192TIP3    H231212   5.068   2.518   7.357  0.2822  0.9875  1.2769
 3193TIP3   OH231213   1.950   4.287   0.616  0.0580  0.4839  0.0330
 3193TIP3    H131214   1.858   4.258   0.615 -0.5885  2.3899  0.0056
 3193TIP3    H231215   1.975   4.292   0.524 -0.3260  1.4058 -0.0345
 3194TIP3   OH231216   4.858   6.146   1.004 -0.0083  0.1318  0.8775
 3194TIP3    H131217   4.909   6.210   0.953 -0.6940 -0.5326 -0.7016
 3194TIP3    H231218   4.787   6.198   1.042 -0.6421  0.3168 -0.5069
 3195TIP3   OH231219   2.888   0.653   0.122 -0.2968 -0.1770  0.1861
 3195TIP3    H131220   2.810   0.668   0.069 -0.3644 -0.1926  0.2800
 3195TIP3    H231221   2.860   0.669   0.212 -0.3390 -0.7225  0.2762
 3196TIP3   OH231222   0.334   4.265   6.604 -0.6899  0.0334 -0.1971
 3196TIP3    H131223   0.406   4.245   6.662 -2.7154  0.0779  2.5188
 3196TIP3    H231224   0.261   4.213   6.637 -2.0139  0.1793 -2.6521
 3197TIP3   OH231225   3.561   4.933   0.655 -0.5064 -0.0803 -0.2767
 3197TIP3    H131226   3.486   4.953   0.711  0.7867 -0.8165  1.7793
 3197TIP3    H231227   3.548   4.842   0.628 -0.8191  0.0902 -0.7214
 3198TIP3   OH231228   5.433   6.402   8.506 -0.5361 -0.8797 -0.0358
 3198TIP3    H131229   5.359   6.387   8.564  0.3438 -0.3640  1.2692
 3198TIP3    H231230   5.443   6.497   8.505 -0.0531 -0.9322 -0.4031
 3199TIP3   OH231231   4.993   3.418   0.285  0.1047  0.6304 -0.2459
 3199TIP3    H131232   4.954   3.501   0.256  0.8519  1.0276 -0.1268
 3199TIP3    H231233   5.066   3.404   0.226  0.0831  0.1387 -0.1557
 3200TIP3   OH231234   1.346   0.631   7.767 -0.4131  0.0577  0.0542
 3200TIP3    H131235   1.333   0.661   7.677  2.1677 -0.6572 -0.6512
 3200TIP3    H231236   1.345   0.710   7.820 -1.4800  0.5372 -0.6611
 3201TIP3   OH231237   2.047   0.624   8.515 -0.5073  0.2510 -0.6034
 3201TIP3    H131238   2.042   0.624   8.610 -0.0813  0.6554 -0.5741
 3201TIP3    H231239   2.102   0.549   8.493 -0.3390  0.3468 -0.5108
 3202TIP3   OH231240   5.256   1.679   7.241  0.9124  0.2122 -0.0181
 3202TIP3    H131241   5.231   1.725   7.321 -0.2474 -1.9079  0.9406
 3202TIP3    H231242   5.175   1.675   7.190  1.3747  0.5908 -0.7824
 3203TIP3   OH231243   0.625   6.786   7.975 -0.0352  0.0863 -0.2412
 3203TIP3    H131244   0.646   6.713   8.033 -0.4698 -0.9740 -1.3685
 3203TIP3    H231245   0.579   6.849   8.031 -0.3579 -0.8626  0.5927
 3204TIP3   OH231246   6.780   6.567   8.540  0.3518  0.0085  1.0130
 3204TIP3    H131247   6.868   6.604   8.552  0.5509 -0.6821  1.7749
 3204TIP3    H231248   6.761   6.524   8.623 -1.2698  1.2926  1.3696
 3205TIP3   OH231249   0.465   1.035   7.615 -0.3998 -0.7475 -0.0791
 3205TIP3    H131250   0.508   1.072   7.693  1.6232 -1.1475 -0.9235
 3205TIP3    H231251   0.426   0.953   7.645  0.3446 -0.8890  0.5341
 3206TIP3   OH231252   3.611   6.306   8.201 -0.4984 -0.3901 -0.8589
 3206TIP3    H131253   3.706   6.309   8.214 -0.7691  2.0341  1.5235
 3206TIP3    H231254   3.584   6.223   8.239  0.4339  0.2391  1.3727
 3207TIP3   OH231255   4.336   1.036   7.279  0.1524  0.0442 -0.2757
 3207TIP3    H131256   4.332   1.095   7.354 -1.2983 -0.8929  0.4324
 3207TIP3    H231257   4.247   1.002   7.270  0.3704 -0.1336 -2.2309
 3208TIP3   OH231258   0.907   6.065   7.958  0.6528 -0.0310  0.2172
 3208TIP3    H131259   0.923   6.026   7.872 -0.3418 -0.7395  0.3293
 3208TIP3    H231260   0.946   6.004   8.020  1.1658  0.3626  0.2914
 3209TIP3   OH231261   6.816   6.629   7.378 -0.1374  0.0616 -0.3742
 3209TIP3    H131262   6.849   6.566   7.314 -0.2680  0.9950 -1.3837
 3209TIP3    H231263   6.828   6.585   7.462 -0.4153 -1.3826 -1.0589
 3210TIP3   OH231264   3.666   0.845   0.872  0.1494  0.0348 -0.6018
 3210TIP3    H131265   3.714   0.920   0.836  1.4661  0.5430  1.9850
 3210TIP3    H231266   3.577   0.855   0.839  0.4872  2.3193 -0.9489
 3211TIP3   OH231267   1.911   4.022   2.351  0.0026 -0.3961 -0.1553
 3211TIP3    H131268   1.866   3.998   2.270  0.4049 -1.4062 -0.0951
 3211TIP3    H231269   1.987   4.072   2.322 -0.1066 -0.3504 -0.3681
 3212TIP3   OH231270   0.322   5.549   6.895  0.5571  0.1337  0.5497
 3212TIP3    H131271   0.410   5.575   6.866  0.3762  0.2582  0.0945
 3212TIP3    H231272   0.325   5.454   6.901  0.3018  0.0168 -0.9117
 3213TIP3   OH231273   0.177   5.000   0.877 -0.0181 -0.0269 -0.3046
 3213TIP3    H131274   0.155   4.971   0.966 -0.4266 -1.2558 -0.7917
 3213TIP3    H231275   0.093   5.013   0.834  0.1825 -0.4205 -0.8184
 3214TIP3   OH231276   5.833   1.372   0.340 -0.5369  0.4870 -0.1346
 3214TIP3    H131277   5.903   1.368   0.274  1.1360  0.0321  1.5953
 3214TIP3    H231278   5.781   1.293   0.324  0.8614 -0.5187  0.1285
 3215TIP3   OH231279   4.233   5.941   0.441 -0.5895 -0.5721  0.4684
 3215TIP3    H131280   4.280   5.866   0.405  0.0316  0.8116 -1.7822
 3215TIP3    H231281   4.249   6.012   0.379 -0.3433  1.7330  2.9853
 3216TIP3   OH231282   1.146   4.359   7.895  0.6970 -0.1646 -0.1439
 3216TIP3    H131283   1.188   4.382   7.978  0.0476 -0.9064  0.3968
 3216TIP3    H231284   1.060   4.324   7.920  0.5443 -0.5090 -1.1185
 3217TIP3   OH231285   0.022   6.626   1.268 -0.1192  0.2354 -0.1238
 3217TIP3    H131286   0.030   6.719   1.291 -0.8206 -0.0464  1.3494
 3217TIP3    H231287   0.033   6.625   1.173  1.2556  1.6596 -0.0249
 3218TIP3   OH231288   6.051   3.933   7.704 -0.2716 -0.0615  0.0124
 3218TIP3    H131289   6.011   3.868   7.647 -0.2836 -0.4430  0.4465
 3218TIP3    H231290   6.066   4.009   7.648  1.1847 -0.9797 -0.9014
 3219TIP3   OH231291   2.620   3.781   7.664 -0.3550 -0.8600 -0.5221
 3219TIP3    H131292   2.571   3.720   7.609 -1.5827  0.2198 -0.6803
 3219TIP3    H231293   2.553   3.820   7.722  0.3255  0.5757 -0.6691
 3220TIP3   OH231294   2.996   0.195   2.204 -0.3194 -0.4046 -0.0157
 3220TIP3    H131295   3.025   0.137   2.135  0.3033  0.6146 -0.6284
 3220TIP3    H231296   3.066   0.259   2.214 -0.8193  0.0301  0.8941
 3221TIP3   OH231297   1.306   1.606   8.474  0.0341  0.0478 -0.4738
 3221TIP3    H131298   1.301   1.616   8.379  2.1155  0.3605 -0.5842
 3221TIP3    H231299   1.399   1.600   8.493 -0.3135  0.5443  1.6178
 3222TIP3   OH231300   4.295   2.236   6.524  0.0067 -0.0777  0.4242
 3222TIP3    H131301   4.218   2.181   6.515  1.2574 -1.7144 -0.8086
 3222TIP3    H231302   4.367   2.176   6.544  1.4660  1.0260 -1.1521
 3223TIP3   OH231303   1.114   3.659   8.815 -0.1450  0.0335  0.5414
 3223TIP3    H131304   1.115   3.746   8.854 -0.4131  0.4606 -0.3734
 3223TIP3    H231305   1.082   3.601   8.885  3.1764  0.0551  2.3063
 3224TIP3   OH231306   0.694   6.011   1.376  0.0206 -0.6402 -0.1693
 3224TIP3    H131307   0.786   6.033   1.390 -0.0953 -0.3301  0.1135
 3224TIP3    H231308   0.668   5.963   1.454 -0.3858  0.3336  0.3118
 3225TIP3   OH231309   0.382   6.660   7.972 -0.0350  0.7469 -0.6593
 3225TIP3    H131310   0.363   6.703   8.056  0.4568 -0.2419 -0.0233
 3225TIP3    H231311   0.463   6.702   7.942  0.1607  0.6437 -0.2916
 3226TIP3   OH231312   4.381   1.264   1.662  0.2074  0.2801  0.1984
 3226TIP3    H131313   4.305   1.223   1.620  1.0441 -2.1131  0.8496
 3226TIP3    H231314   4.350   1.350   1.689 -2.5940 -0.9546  1.2936
 3227TIP3   OH231315   2.851   2.918   1.448 -0.1418 -0.4116 -0.2573
 3227TIP3    H131316   2.757   2.900   1.458 -0.2294  0.0129 -0.2766
 3227TIP3    H231317   2.883   2.928   1.538 -0.1640 -0.3310 -0.2578
 3228TIP3   OH231318   0.109   3.203   2.890 -0.4002  0.2321 -0.0839
 3228TIP3    H131319   0.016   3.221   2.901 -0.7839 -1.3732 -0.4896
 3228TIP3    H231320   0.143   3.279   2.842 -1.1975  1.4548  1.1823
 3229TIP3   OH231321   1.679   5.713   7.799  0.1385 -0.2340  0.0243
 3229TIP3    H131322   1.705   5.763   7.722 -0.0768  0.5929  0.4792
 3229TIP3    H231323   1.760   5.705   7.850  0.0926 -0.0505  0.1230
 3230TIP3   OH231324   6.480   3.952   1.356 -0.4367 -0.5265 -0.4175
 3230TIP3    H131325   6.564   3.905   1.353 -2.0132 -3.5588 -3.5999
 3230TIP3    H231326   6.432   3.909   1.427 -0.4416 -1.0390 -0.7259
 3231TIP3   OH231327   0.276   0.314   0.048 -0.0045 -0.8466 -0.1086
 3231TIP3    H131328   0.358   0.364   0.040  0.1098 -1.0496 -0.2098
 3231TIP3    H231329   0.224   0.364   0.111 -0.6742  0.4746 -1.6248
 3232TIP3   OH231330   0.347   4.101   1.261 -0.2700  0.1122 -0.3557
 3232TIP3    H131331   0.355   4.182   1.211 -0.2762 -0.0452 -0.6145
 3232TIP3    H231332   0.414   4.108   1.329  1.0515 -0.4901 -1.5256
 3233TIP3   OH231333   6.010   0.757   0.550  0.2776  0.6110  0.0561
 3233TIP3    H131334   6.011   0.851   0.570 -0.1874  0.7644 -0.6199
 3233TIP3    H231335   5.928   0.725   0.587 -0.3655  0.8067 -1.1797
 3234TIP3   OH231336   0.996   1.962   1.899  0.1435  0.7607 -0.3164
 3234TIP3    H131337   0.911   1.934   1.866  0.7868 -0.2085 -1.2104
 3234TIP3    H231338   0.980   1.985   1.991 -1.0522  0.4888 -0.4451
 3235TIP3   OH231339   3.655   2.369   6.949  0.3000 -0.6661  0.9925
 3235TIP3    H131340   3.602   2.294   6.974 -0.6235 -0.7055 -0.9347
 3235TIP3    H231341   3.633   2.385   6.857 -0.5559  2.7637  1.6361
 3236TIP3   OH231342   4.296   3.248   2.224 -0.4699  0.4385 -0.2614
 3236TIP3    H131343   4.327   3.259   2.134 -0.2233  0.4975 -0.1706
 3236TIP3    H231344   4.374   3.265   2.278 -0.6309  0.4605 -0.0361
 3237TIP3   OH231345   4.557   4.715   7.633  0.3824 -0.0016 -0.5105
 3237TIP3    H131346   4.578   4.807   7.645 -1.8763  0.4481  0.5621
 3237TIP3    H231347   4.464   4.714   7.607  0.5031 -1.9463 -1.0744
 3238TIP3   OH231348   1.765   3.576   1.508  0.6367 -0.0553  0.1718
 3238TIP3    H131349   1.750   3.658   1.463 -1.5684 -0.9879 -0.9531
 3238TIP3    H231350   1.799   3.601   1.594  1.6510  1.9003 -0.7427
 3239TIP3   OH231351   5.788   3.693   0.814 -0.2560 -0.2183 -0.0054
 3239TIP3    H131352   5.841   3.615   0.832 -0.7812 -0.5399  0.1839
 3239TIP3    H231353   5.832   3.736   0.741 -0.2995 -1.0258 -0.5124
 3240TIP3   OH231354   6.047   2.530   0.427 -0.2456 -0.2607 -0.3213
 3240TIP3    H131355   5.980   2.585   0.387 -1.9000  0.3457  2.9655
 3240TIP3    H231356   6.130   2.561   0.390 -1.3590  2.5706 -0.6219
 3241TIP3   OH231357   4.729   4.318   0.190  0.5792  0.0540  0.7588
 3241TIP3    H131358   4.646   4.275   0.211  0.9712 -1.6712 -0.9663
 3241TIP3    H231359   4.763   4.348   0.274  0.0109 -2.5496  2.0036
 3242TIP3   OH231360   1.167   5.891   7.674 -0.4150 -0.6427  0.0613
 3242TIP3    H131361   1.199   5.956   7.736  1.5727 -0.7904 -0.7181
 3242TIP3    H231362   1.173   5.934   7.589 -0.1181 -1.4576 -0.3438
 3243TIP3   OH231363   4.199   2.108   0.450 -0.0124  0.7198  0.1354
 3243TIP3    H131364   4.197   2.089   0.357 -1.1225 -0.1941  0.3188
 3243TIP3    H231365   4.260   2.045   0.487 -2.8827 -2.0672  0.5896
 3244TIP3   OH231366   5.928   5.123   6.484  0.1925 -0.3762  0.4888
 3244TIP3    H131367   5.879   5.043   6.499 -0.3765  0.2920  2.4882
 3244TIP3    H231368   6.005   5.095   6.434 -1.3021 -1.7022 -1.2182
 3245TIP3   OH231369   0.458   4.382   7.629 -0.4272  0.2108 -0.6162
 3245TIP3    H131370   0.546   4.371   7.594  0.6566  0.4995  1.7994
 3245TIP3    H231371   0.414   4.299   7.611  0.1844  0.2109 -2.1969
 3246TIP3   OH231372   4.339   2.669   2.430 -0.2063 -0.4986  0.0901
 3246TIP3    H131373   4.245   2.658   2.416 -0.3776  0.3034  0.5794
 3246TIP3    H231374   4.364   2.597   2.488 -0.6977 -0.1731  0.7065
 3247TIP3   OH231375   0.837   5.203   0.180  0.3042 -0.0667  0.1721
 3247TIP3    H131376   0.832   5.149   0.101 -0.6635  0.1598  0.0576
 3247TIP3    H231377   0.748   5.201   0.215  0.6010  0.2806  0.9574
 3248TIP3   OH231378   0.732   6.700   7.733  1.0076 -0.5595  0.1059
 3248TIP3    H131379   0.692   6.747   7.806 -0.2814  0.5056 -1.1871
 3248TIP3    H231380   0.700   6.747   7.655  1.3061 -2.3853 -1.1861
 3249TIP3   OH231381   4.221   0.863   1.674 -0.2368 -0.2617 -0.4823
 3249TIP3    H131382   4.304   0.891   1.637  1.1303 -4.1329 -0.8161
 3249TIP3    H231383   4.155   0.910   1.624  1.6964  1.3250 -1.6735
 3250TIP3   OH231384   4.070   0.354   1.483 -0.0656 -0.7525 -0.1513
 3250TIP3    H131385   4.031   0.393   1.405 -1.6810 -1.8614  0.0475
 3250TIP3    H231386   4.054   0.417   1.553  2.0664  0.6025 -0.7928
 3251TIP3   OH231387   0.014   1.021   7.555  0.1310 -0.1548 -0.0035
 3251TIP3    H131388  -0.022   1.009   7.643 -0.4638  3.1378  0.3486
 3251TIP3    H231389   0.100   1.060   7.570 -0.8267  2.4999 -0.7340
 3252TIP3   OH231390   1.703   4.501   7.885  0.2114  0.0941  0.3890
 3252TIP3    H131391   1.755   4.426   7.856 -0.9402 -0.5315 -0.1039
 3252TIP3    H231392   1.621   4.495   7.836  0.5467  2.3683 -0.5908
 3253TIP3   OH231393   3.314   0.269   7.519  0.1568 -0.2227  0.0875
 3253TIP3    H131394   3.315   0.243   7.427 -1.1498  0.1608 -0.0479
 3253TIP3    H231395   3.265   0.200   7.563 -0.4885  0.3297  0.2518
 3254TIP3   OH231396   0.372   1.169   8.717 -0.2109 -0.1166  0.1949
 3254TIP3    H131397   0.464   1.163   8.693  0.3894  3.3276  1.0670
 3254TIP3    H231398   0.326   1.177   8.634  0.4829 -0.1402 -0.2010
 3255TIP3   OH231399   0.497   0.484   0.078 -0.1952  0.0880 -0.5659
 3255TIP3    H131400   0.485   0.577   0.098  1.3771  0.2705 -0.3314
 3255TIP3    H231401   0.502   0.442   0.164 -2.1138 -0.4288 -0.6599
 3256TIP3   OH231402   0.503   4.120   1.807 -0.2972  0.1283 -0.4369
 3256TIP3    H131403   0.510   4.049   1.871 -2.8908 -0.3604 -0.5899
 3256TIP3    H231404   0.540   4.196   1.852 -1.2671 -0.3989  1.3671
 3257TIP3   OH231405   0.055   6.437   0.794  0.0462 -0.5521 -0.0572
 3257TIP3    H131406   0.051   6.525   0.832 -1.3311 -0.6058 -0.0073
 3257TIP3    H231407  -0.019   6.390   0.834  0.1118 -1.3976 -0.8888
 3258TIP3   OH231408   1.346   0.370   7.395 -0.0713 -0.0625  0.0334
 3258TIP3    H131409   1.304   0.454   7.414  0.0280  0.3443 -1.4203
 3258TIP3    H231410   1.278   0.305   7.409 -0.4069  0.3425  0.2930
 3259TIP3   OH231411   5.951   3.481   0.235 -0.5568 -0.3681 -0.2441
 3259TIP3    H131412   5.916   3.399   0.272 -0.1645 -0.9760 -1.1911
 3259TIP3    H231413   5.882   3.545   0.251 -0.7383 -0.8006  0.8033
 3260TIP3   OH231414   1.161   0.118   6.870  0.1947  0.1013  0.4537
 3260TIP3    H131415   1.116   0.064   6.935 -0.7967 -0.7634 -0.8883
 3260TIP3    H231416   1.214   0.179   6.921 -1.6372  0.4160  2.1031
 3261TIP3   OH231417   0.308   1.097   7.913  0.0121 -0.2594  0.0899
 3261TIP3    H131418   0.338   1.048   7.837  2.3829  0.7722  0.2833
 3261TIP3    H231419   0.236   1.045   7.948 -1.4543 -0.5495 -3.0592
 3262TIP3   OH231420   1.529   0.574   8.458 -0.1109 -0.3385  0.5206
 3262TIP3    H131421   1.492   0.630   8.390 -0.1539 -1.8908 -0.7967
 3262TIP3    H231422   1.464   0.506   8.472 -0.6394  0.5826  3.0458
 3263TIP3   OH231423   2.124   1.406   8.564 -0.3842  0.0422 -0.0314
 3263TIP3    H131424   2.153   1.451   8.644 -0.2718  1.5345 -0.8552
 3263TIP3    H231425   2.205   1.369   8.528  0.0125  1.4269 -0.6546
 3264TIP3   OH231426   2.841   1.884   0.169 -0.0943  0.2296 -0.2482
 3264TIP3    H131427   2.783   1.886   0.245 -1.3058  0.7087 -1.1493
 3264TIP3    H231428   2.832   1.970   0.129  0.3073 -0.0954 -1.0841
 3265TIP3   OH231429   0.993   6.423   8.606 -0.0066 -0.3196  0.2396
 3265TIP3    H131430   0.939   6.484   8.556 -0.4459 -0.0563  1.0049
 3265TIP3    H231431   1.021   6.358   8.542 -1.3861 -0.5655 -0.1584
 3266TIP3   OH231432   5.000   6.581   0.821 -0.3500  0.0376 -0.2093
 3266TIP3    H131433   5.001   6.516   0.751 -3.2550 -0.4476  0.0920
 3266TIP3    H231434   4.936   6.548   0.883  0.5590  1.5610  1.6284
 3267TIP3   OH231435   0.936   5.245   0.890  0.1022 -0.1038 -0.5911
 3267TIP3    H131436   0.965   5.324   0.935 -0.4542 -0.4196  0.3386
 3267TIP3    H231437   1.005   5.229   0.824 -0.2085  1.6134 -1.3933
 3268TIP3   OH231438   3.706   5.644   1.649 -0.0995 -0.2789  0.0463
 3268TIP3    H131439   3.705   5.628   1.744  1.0581 -1.6647 -0.1420
 3268TIP3    H231440   3.757   5.572   1.613 -0.7171  0.0941 -1.6789
 3269TIP3   OH231441   1.843   3.060   7.836 -0.0081  0.2433  0.0701
 3269TIP3    H131442   1.929   3.020   7.848 -0.2253  0.2061  1.7657
 3269TIP3    H231443   1.793   2.995   7.787  0.6714 -0.1018 -0.1784
 3270TIP3   OH231444   4.278   6.281   0.357  0.1315  0.0217  0.2155
 3270TIP3    H131445   4.366   6.247   0.372  0.2933  0.2841 -0.1489
 3270TIP3    H231446   4.262   6.267   0.264  0.2963  1.1724 -0.0007
 3271TIP3   OH231447   2.111   1.675   8.165  0.1507  0.2792 -0.2317
 3271TIP3    H131448   2.175   1.694   8.234  0.3225 -1.0280 -0.0004
 3271TIP3    H231449   2.148   1.600   8.118 -0.9985 -0.2354 -0.3533
 3272TIP3   OH231450   0.364   5.656   7.953  0.2392  0.3353  0.5175
 3272TIP3    H131451   0.327   5.601   7.884 -0.6995  0.2981  1.0342
 3272TIP3    H231452   0.410   5.725   7.907 -1.1145  0.8133 -0.1795
 3273TIP3   OH231453   0.593   2.309   1.811  0.3714 -0.0810 -0.1014
 3273TIP3    H131454   0.598   2.231   1.755 -0.0961 -0.1225 -0.0923
 3273TIP3    H231455   0.632   2.379   1.758 -0.2342 -0.0799 -0.5689
 3274TIP3   OH231456   6.202   0.277   1.604  0.2719 -0.1468 -0.2156
 3274TIP3    H131457   6.284   0.315   1.636 -0.0797 -0.5620  1.2968
 3274TIP3    H231458   6.156   0.249   1.684 -0.7901 -1.0449 -1.1015
 3275TIP3   OH231459   5.485   6.647   1.426 -0.2222  0.1239  0.2056
 3275TIP3    H131460   5.557   6.619   1.482  1.3395  1.4228 -1.0768
 3275TIP3    H231461   5.473   6.574   1.365  0.8263  0.3728 -0.3199
 3276TIP3   OH231462   1.725   0.319   0.912  0.2502 -0.3144  0.1584
 3276TIP3    H131463   1.727   0.370   0.832 -2.2541 -1.1412 -0.5074
 3276TIP3    H231464   1.693   0.233   0.885  0.5034 -0.9977  1.8754
 3277TIP3   OH231465   5.756   4.493   0.772  0.5091 -0.2798  0.2011
 3277TIP3    H131466   5.709   4.428   0.825  2.1486 -2.5831 -1.0013
 3277TIP3    H231467   5.769   4.450   0.688  1.0771  1.9192 -0.8947
 3278TIP3   OH231468   6.775   6.243   0.568  0.4859 -0.0949 -0.0559
 3278TIP3    H131469   6.701   6.290   0.607  0.0365 -1.7246  1.1133
 3278TIP3    H231470   6.779   6.277   0.478 -1.0711  0.7165  0.1411
 3279TIP3   OH231471   1.035   0.831   8.677  0.2953 -0.5386  0.1190
 3279TIP3    H131472   0.999   0.855   8.763  0.4015 -1.7969  0.5325
 3279TIP3    H231473   1.127   0.858   8.680  1.4053 -4.0155  1.9168
 3280TIP3   OH231474   1.739   3.551   7.065 -0.5587 -0.6123 -0.0702
 3280TIP3    H131475   1.772   3.633   7.028 -1.4589 -0.3903 -0.4327
 3280TIP3    H231476   1.805   3.524   7.128  0.5205 -0.4377 -1.0947
 3281TIP3   OH231477   3.260   4.637   1.422  0.0288  0.2097  0.7877
 3281TIP3    H131478   3.204   4.689   1.365  1.1035 -0.9490 -1.4252
 3281TIP3    H231479   3.344   4.684   1.423  0.7411 -0.9735 -0.5478
 3282TIP3   OH231480   6.613   3.489   2.332  0.4005 -0.9043 -0.4811
 3282TIP3    H131481   6.557   3.547   2.280  0.5732  0.0096  0.3266
 3282TIP3    H231482   6.655   3.547   2.395  0.0297 -2.0264  0.8301
 3283TIP3   OH231483   5.980   4.770   1.999  0.0904 -0.0496  0.1339
 3283TIP3    H131484   5.965   4.805   1.911 -0.5416  0.3497  0.3995
 3283TIP3    H231485   5.932   4.828   2.057  0.0549 -0.6276  0.6984
 3284TIP3   OH231486   3.742   4.915   0.058 -0.0843 -0.0698  0.0069
 3284TIP3    H131487   3.691   4.975   0.112  0.9864  0.6520  0.2408
 3284TIP3    H231488   3.689   4.903  -0.021 -0.6832  0.5371  0.3045
 3285TIP3   OH231489   0.234   1.454   8.689 -0.1120  0.2405  0.5540
 3285TIP3    H131490   0.276   1.370   8.710 -0.7210  0.0329  0.9807
 3285TIP3    H231491   0.197   1.483   8.773 -1.0665  0.2677  0.1362
 3286TIP3   OH231492   6.034   6.505   8.846 -0.3265 -0.1706 -0.3517
 3286TIP3    H131493   5.962   6.567   8.856  1.4478  2.1107 -0.7566
 3286TIP3    H231494   5.995   6.430   8.802 -2.0152  1.9797 -2.8807
 3287TIP3   OH231495   5.047   4.635   7.301 -0.2998  0.2451  0.0712
 3287TIP3    H131496   5.031   4.714   7.250 -0.2998 -1.0721 -2.0708
 3287TIP3    H231497   4.985   4.571   7.266 -0.0177 -0.8585  1.4769
 3288TIP3   OH231498   0.108   5.321   8.457  0.0608 -0.1507 -0.0377
 3288TIP3    H131499   0.137   5.353   8.372 -0.6706 -1.2328 -0.7205
 3288TIP3    H231500   0.107   5.399   8.513  0.4201  0.6009 -1.0507
 3289TIP3   OH231501   3.792   0.456   7.240  0.5080 -0.1432  0.5126
 3289TIP3    H131502   3.815   0.409   7.159 -0.5800  0.7865 -0.3744
 3289TIP3    H231503   3.875   0.464   7.287  1.3572  0.0562 -0.9362
 3290TIP3   OH231504   4.602   0.041   8.685  0.0822  0.8047  0.2276
 3290TIP3    H131505   4.517   0.013   8.719 -0.0501  0.0825 -0.6505
 3290TIP3    H231506   4.595   0.028   8.590  1.6964 -0.7477  0.2648
 3291TIP3   OH231507   3.294   2.966   7.098  0.4527  0.3045 -0.1621
 3291TIP3    H131508   3.267   2.884   7.057 -1.5146  1.0936 -0.5640
 3291TIP3    H231509   3.241   2.971   7.178 -0.5250  1.8010 -0.8502
 3292TIP3   OH231510   0.017   5.926   6.875  0.1335 -0.1320  0.6048
 3292TIP3    H131511   0.090   5.978   6.839  0.6994 -2.2066 -1.5263
 3292TIP3    H231512   0.014   5.951   6.967  1.6368  2.1682  0.1413
 3293TIP3   OH231513   1.685   4.206   0.611  0.6704 -0.4481  0.6491
 3293TIP3    H131514   1.600   4.182   0.648  1.0329 -0.9004  1.1862
 3293TIP3    H231515   1.683   4.172   0.522  0.2069 -0.2795  0.5940
 3294TIP3   OH231516   2.412   6.806   0.758  0.0484 -0.0316 -0.2451
 3294TIP3    H131517   2.453   6.892   0.769  0.1224 -0.0013 -0.7320
 3294TIP3    H231518   2.437   6.779   0.669  1.2491 -1.2046  0.4154
 3295TIP3   OH231519   0.311   1.694   2.260 -0.6280 -0.1230  0.3542
 3295TIP3    H131520   0.224   1.674   2.295 -0.2964 -0.8886  0.7659
 3295TIP3    H231521   0.348   1.758   2.322 -0.6104 -0.3630  0.5939
 3296TIP3   OH231522   2.566   0.333   8.646  0.2567  0.3669  0.6038
 3296TIP3    H131523   2.555   0.285   8.564 -1.9968  1.1176  0.4163
 3296TIP3    H231524   2.659   0.356   8.647  0.5923 -0.6961 -1.1222
 3297TIP3   OH231525   4.039   2.189   6.995 -0.0160  0.0147 -0.1003
 3297TIP3    H131526   4.061   2.143   6.914 -1.8655  1.6959 -1.6666
 3297TIP3    H231527   3.948   2.166   7.012 -0.3752  1.5007  0.1563
 3298TIP3   OH231528   5.416   1.543   8.128  0.0194 -0.2577  0.4697
 3298TIP3    H131529   5.388   1.603   8.197 -2.8140  0.2818 -0.9944
 3298TIP3    H231530   5.466   1.598   8.068  0.8369 -0.2918  1.1100
 3299TIP3   OH231531   3.549   0.183   7.338 -0.4499  0.3110  0.2124
 3299TIP3    H131532   3.628   0.193   7.392  0.5112 -1.4130 -0.7716
 3299TIP3    H231533   3.559   0.249   7.269 -1.0023  1.5817  1.2934
 3300TIP3   OH231534   6.668   0.555   1.166 -0.2579 -0.0802 -0.7227
 3300TIP3    H131535   6.686   0.641   1.205  2.7978 -0.5042 -0.9641
 3300TIP3    H231536   6.611   0.512   1.228  0.8479  0.9383  1.0861
 3301TIP3   OH231537   6.792   6.543   8.213 -0.5598 -0.5467  0.3401
 3301TIP3    H131538   6.866   6.534   8.152 -1.9116  0.2666 -1.5280
 3301TIP3    H231539   6.830   6.531   8.299  1.8823  0.4749 -0.5152
 3302TIP3   OH231540   4.019   4.556   1.973 -0.3786 -0.2406  0.2011
 3302TIP3    H131541   3.965   4.538   2.051  0.3222 -1.5163  0.4094
 3302TIP3    H231542   4.107   4.528   1.998  0.0894  0.4451 -0.6533
 3303TIP3   OH231543   0.196   6.697   8.574  0.2950  0.9481 -0.2650
 3303TIP3    H131544   0.277   6.646   8.572 -0.2532  0.0265  0.0320
 3303TIP3    H231545   0.193   6.742   8.489  0.8699  0.5873 -0.4796
 3304TIP3   OH231546   1.012   4.018   7.821 -0.0475 -0.5114 -0.0567
 3304TIP3    H131547   0.939   3.979   7.773 -0.6505  1.1623 -0.5795
 3304TIP3    H231548   1.089   3.968   7.795 -0.2149  0.7350 -3.3500
 3305TIP3   OH231549   4.769   0.061   8.076 -0.4155  0.3170  0.2419
 3305TIP3    H131550   4.727   0.006   8.010  0.0603  0.9538 -0.6226
 3305TIP3    H231551   4.697   0.098   8.126 -0.7581 -0.6602  0.4885
 3306TIP3   OH231552   2.070   5.482   0.280  0.2463 -0.0144 -0.1880
 3306TIP3    H131553   2.078   5.450   0.190 -1.9256 -1.3097  0.0113
 3306TIP3    H231554   2.049   5.575   0.271  1.3576  0.1787 -0.9514
 3307TIP3   OH231555   2.766   1.619   1.257  0.5414  0.1870  0.1230
 3307TIP3    H131556   2.691   1.613   1.198  0.9376  0.8282 -0.4525
 3307TIP3    H231557   2.806   1.703   1.237  1.4881 -0.2028  0.3437
 3308TIP3   OH231558   5.578   5.660   8.888  0.1458  0.0402 -0.3365
 3308TIP3    H131559   5.544   5.635   8.801 -1.1985 -0.6253  0.3356
 3308TIP3    H231560   5.613   5.578   8.924 -0.4710  0.0172  0.2376
 3309TIP3   OH231561   6.777   1.160   8.079  0.0450  0.0184 -0.5980
 3309TIP3    H131562   6.686   1.193   8.080 -0.2411 -0.7667 -0.2130
 3309TIP3    H231563   6.816   1.202   8.002 -0.2886  1.2963 -0.1090
 3310TIP3   OH231564   2.558   1.343   1.162  0.3447 -0.5641 -0.2219
 3310TIP3    H131565   2.508   1.289   1.223  0.1432 -0.4775 -0.3115
 3310TIP3    H231566   2.520   1.324   1.076  0.7190 -0.7918 -0.3406
 3311TIP3   OH231567   6.281   4.680   0.351 -0.7777 -0.4022  0.2212
 3311TIP3    H131568   6.345   4.751   0.343 -1.5742  0.5762  2.0420
 3311TIP3    H231569   6.197   4.723   0.335 -1.3503 -0.7220  2.1773
 3312TIP3   OH231570   1.673   6.076   1.094 -0.1054  0.3516  0.1313
 3312TIP3    H131571   1.728   6.132   1.149  1.3522 -1.5140  0.6576
 3312TIP3    H231572   1.703   5.987   1.111  0.1305 -0.3868 -3.3300
 3313TIP3   OH231573   2.685   5.402   0.219 -0.0095  0.1591 -0.3967
 3313TIP3    H131574   2.651   5.404   0.129 -0.3156  0.1581 -0.2799
 3313TIP3    H231575   2.649   5.480   0.260 -1.1335 -0.6383  0.1853
 3314TIP3   OH231576   5.379   4.451   0.682  0.9679 -0.2017 -0.1916
 3314TIP3    H131577   5.379   4.468   0.776  2.6781 -0.2064 -0.1536
 3314TIP3    H231578   5.389   4.537   0.642  0.8754 -0.2592 -0.3393
 3315TIP3   OH231579   0.722   3.277   1.203 -0.2924  0.1023  0.2817
 3315TIP3    H131580   0.805   3.314   1.175 -0.3868  0.4417  0.4451
 3315TIP3    H231581   0.676   3.350   1.246 -0.8510  0.0356 -0.1885
 3316TIP3   OH231582   2.585   4.611   2.482  0.2327  0.4779 -0.2800
 3316TIP3    H131583   2.491   4.593   2.479  0.1726  0.6603  0.3728
 3316TIP3    H231584   2.615   4.597   2.392 -0.5928  1.3387 -0.7118
 3317TIP3   OH231585   0.402   6.648   7.075  0.2406  0.6575 -0.5769
 3317TIP3    H131586   0.485   6.667   7.031  1.7093 -0.3873  1.5572
 3317TIP3    H231587   0.374   6.564   7.040  0.2718  0.8197 -1.0006
 3318TIP3   OH231588   5.204   5.846   7.320  0.1220  0.6753 -0.1428
 3318TIP3    H131589   5.278   5.824   7.263  0.5994  4.3534 -1.2062
 3318TIP3    H231590   5.239   5.838   7.409  1.7028  1.7926 -0.6123
 3319TIP3   OH231591   3.425   2.587   7.135 -0.1917 -0.1120 -0.2858
 3319TIP3    H131592   3.358   2.640   7.091 -0.8104 -0.3094  0.3954
 3319TIP3    H231593   3.390   2.574   7.223  0.4821 -0.7119 -0.1052
 3320TIP3   OH231594   1.091   6.246   8.413  0.1449 -0.6936  0.0489
 3320TIP3    H131595   1.114   6.188   8.340 -0.1913 -1.4453  0.5198
 3320TIP3    H231596   1.127   6.201   8.490 -0.0971 -0.2544  0.4193
 3321TIP3   OH231597   0.398   1.476   8.274 -0.5026 -0.8733 -0.2377
 3321TIP3    H131598   0.471   1.535   8.257 -1.3139  0.3253  0.2970
 3321TIP3    H231599   0.418   1.397   8.225  0.2521  0.1328 -1.5835
 3322TIP3   OH231600   1.484   3.828   7.622  0.4126 -0.6759  0.4599
 3322TIP3    H131601   1.573   3.832   7.657  0.3921  1.7367  0.3812
 3322TIP3    H231602   1.488   3.760   7.555  2.1513 -0.7329  0.5777
 3323TIP3   OH231603   6.270   4.864   2.626 -0.0352  0.0316  0.1134
 3323TIP3    H131604   6.253   4.824   2.711 -1.2218  1.4770  0.5941
 3323TIP3    H231605   6.230   4.804   2.563 -1.0981  0.0300  0.7571
 3324TIP3   OH231606   3.686   3.720   2.294 -0.4101 -0.6276  0.1613
 3324TIP3    H131607   3.597   3.711   2.329 -1.1479  1.6913 -0.9458
 3324TIP3    H231608   3.735   3.649   2.336 -2.7130 -1.8673  0.9483
 3325TIP3   OH231609   6.307   1.052   7.442 -0.3128 -0.5375 -0.1610
 3325TIP3    H131610   6.242   1.015   7.502  0.2660 -2.7105 -0.8049
 3325TIP3    H231611   6.300   0.999   7.363  0.6574  0.6827 -1.1080
 3326TIP3   OH231612   6.108   6.309   6.542 -0.1011 -0.1605 -0.4793
 3326TIP3    H131613   6.116   6.221   6.579 -0.0446 -0.5054 -1.2956
 3326TIP3    H231614   6.015   6.317   6.519  0.0433 -0.3292 -1.1584
 3327TIP3   OH231615   0.731   5.932   0.310 -0.0018 -0.0742 -0.7199
 3327TIP3    H131616   0.760   6.018   0.340  2.9158 -1.9610  2.5866
 3327TIP3    H231617   0.790   5.910   0.237 -0.0647  0.2887 -0.8803
 3328TIP3   OH231618   2.022   1.931   8.304 -0.0592  0.3136  0.3148
 3328TIP3    H131619   2.110   1.967   8.312 -0.6801  1.9910  0.0428
 3328TIP3    H231620   2.035   1.836   8.304  1.5963  0.4881  1.7983
 3329TIP3   OH231621   3.222   1.580   0.851 -0.4132  0.3704 -0.1683
 3329TIP3    H131622   3.299   1.614   0.897  0.7190 -1.6918 -0.3595
 3329TIP3    H231623   3.256   1.554   0.765 -1.4354 -0.0918 -0.4488
 3330TIP3   OH231624   3.460   4.805   1.541 -0.3394 -0.2507  0.3306
 3330TIP3    H131625   3.405   4.826   1.616  0.0154  3.8097 -0.3255
 3330TIP3    H231626   3.546   4.841   1.564 -0.0969  0.6458 -1.7440
 3331TIP3   OH231627   0.689   0.455   0.770 -0.4897 -0.0193 -0.1159
 3331TIP3    H131628   0.740   0.463   0.851  1.4041 -0.4264 -1.2147
 3331TIP3    H231629   0.684   0.545   0.737  1.5950 -0.2225 -1.1622
 3332TIP3   OH231630   1.079   0.670   8.207 -0.2077  0.4685  0.1010
 3332TIP3    H131631   1.045   0.690   8.119  0.7405 -1.6307 -0.8087
 3332TIP3    H231632   1.169   0.642   8.192 -0.2501 -0.6160  1.6663
 3333TIP3   OH231633   2.440   0.958   0.596 -0.0732  0.2770 -0.1007
 3333TIP3    H131634   2.358   0.923   0.633  0.6708 -0.9670  0.4285
 3333TIP3    H231635   2.418   0.977   0.505 -0.9911  0.0651  0.0618
 3334TIP3   OH231636   6.079   1.300   0.224 -0.0018  0.3553  0.0089
 3334TIP3    H131637   6.100   1.264   0.138 -0.7445  0.2320 -0.1253
 3334TIP3    H231638   6.149   1.363   0.241 -0.0124  0.6032 -0.8265
 3335TIP3   OH231639   1.656   2.166   0.711  0.0036 -0.5167 -0.3470
 3335TIP3    H131640   1.675   2.221   0.635 -0.8324 -0.6848 -0.6870
 3335TIP3    H231641   1.561   2.169   0.719  0.0545 -0.8550  0.4325
 3336TIP3   OH231642   3.158   6.749   1.447 -0.1687  0.1685  0.6154
 3336TIP3    H131643   3.077   6.798   1.436 -0.0604  0.7692  2.2324
 3336TIP3    H231644   3.141   6.692   1.522  0.4764 -0.6646  0.1515
 3337TIP3   OH231645   2.993   3.346   8.394 -0.1619 -0.8291 -0.0395
 3337TIP3    H131646   3.015   3.387   8.310 -0.8136  0.4152  0.3808
 3337TIP3    H231647   3.040   3.263   8.393  2.5954  0.6426 -0.1989
 3338TIP3   OH231648   6.258   2.300   7.583 -0.6289  0.1976 -0.8530
 3338TIP3    H131649   6.214   2.249   7.514 -1.5634 -0.0400 -0.1117
 3338TIP3    H231650   6.351   2.291   7.564 -0.8758  0.8997 -2.6193
 3339TIP3   OH231651   0.845   3.144   7.055 -0.0865 -0.2268  0.3709
 3339TIP3    H131652   0.876   3.190   7.133  1.2811 -1.0927  0.3724
 3339TIP3    H231653   0.925   3.108   7.015 -0.9078 -0.9468 -0.6800
 3340TIP3   OH231654   5.547   1.805   1.346  0.9526  0.0071  0.0724
 3340TIP3    H131655   5.563   1.713   1.365 -1.7811 -0.3826  0.9822
 3340TIP3    H231656   5.505   1.839   1.425 -0.0658  1.4506 -1.0348
 3341TIP3   OH231657   2.292   1.683   8.364  0.2780 -0.1677 -0.0773
 3341TIP3    H131658   2.322   1.772   8.344  1.8941 -0.2805  1.5445
 3341TIP3    H231659   2.357   1.626   8.325  1.2308 -0.4864  1.8525
 3342TIP3   OH231660   2.853   3.038   8.164 -0.2868 -0.9453 -0.4787
 3342TIP3    H131661   2.803   3.116   8.187  1.1149 -0.0986 -0.2009
 3342TIP3    H231662   2.923   3.033   8.229 -0.1451 -2.2499 -0.6926
 3343TIP3   OH231663   2.384   4.903   8.674 -0.1090  0.1271 -0.7008
 3343TIP3    H131664   2.432   4.954   8.609  2.0662  2.1131  2.1709
 3343TIP3    H231665   2.440   4.828   8.692  0.1790  0.5273  0.1027
 3344TIP3   OH231666   4.085   6.389   7.968  0.0984 -0.4549 -0.4429
 3344TIP3    H131667   4.049   6.377   8.056  0.0083  0.3281 -0.3698
 3344TIP3    H231668   4.171   6.346   7.971 -0.6637 -2.0871 -0.5319
 3345TIP3   OH231669   3.937   2.817   1.501 -0.7772 -0.3710  0.2545
 3345TIP3    H131670   3.985   2.895   1.530 -0.2121 -0.4891 -0.3357
 3345TIP3    H231671   3.920   2.768   1.582 -0.4539 -0.0116  0.5421
 3346TIP3   OH231672   5.725   2.228   6.788  0.2445 -0.4862 -0.2523
 3346TIP3    H131673   5.770   2.155   6.746 -0.4251 -0.2160 -1.4957
 3346TIP3    H231674   5.632   2.208   6.778  0.0646 -0.2721  0.8750
 3347TIP3   OH231675   2.765   0.401   0.247  0.2975  0.2012 -0.4556
 3347TIP3    H131676   2.709   0.375   0.174 -1.1430  1.3474  0.1618
 3347TIP3    H231677   2.839   0.445   0.206 -0.3971  0.6613 -1.2611
 3348TIP3   OH231678   3.724   1.931   2.573  0.2170 -0.1298  0.5705
 3348TIP3    H131679   3.779   1.854   2.590 -0.4947 -0.6654  0.5046
 3348TIP3    H231680   3.782   2.006   2.589  1.8322 -0.6390 -2.1011
 3349TIP3   OH231681   5.563   3.617   1.952 -0.6831  0.1094  0.3264
 3349TIP3    H131682   5.501   3.592   2.020 -0.4978 -1.0869  0.0767
 3349TIP3    H231683   5.602   3.534   1.924 -0.7098  0.5869 -1.1828
 3350TIP3   OH231684   5.327   5.697   8.425 -0.1027  0.6623 -0.5692
 3350TIP3    H131685   5.289   5.702   8.338  0.7424  0.5622 -0.9521
 3350TIP3    H231686   5.285   5.768   8.474  0.0171  1.2417 -1.2959
 3351TIP3   OH231687   0.561   6.203   0.597 -0.1518  0.1702  0.7057
 3351TIP3    H131688   0.639   6.247   0.630  0.9248 -1.7302  0.8958
 3351TIP3    H231689   0.501   6.202   0.671  1.6167 -2.6291  2.3024
 3352TIP3   OH231690   0.854   4.120   7.313  0.4025  0.2385 -0.1623
 3352TIP3    H131691   0.815   4.127   7.226  0.0590  1.1684  0.0495
 3352TIP3    H231692   0.845   4.028   7.336 -1.9778  0.4443  0.0073
 3353TIP3   OH231693   5.212   0.028   7.305 -0.1849 -0.2853 -0.8399
 3353TIP3    H131694   5.224   0.042   7.399 -1.1813 -0.6638 -0.6419
 3353TIP3    H231695   5.295  -0.008   7.275 -0.0994 -0.8504  0.0444
 3354TIP3   OH231696   4.652   3.197   1.525 -0.3529 -0.2574  0.1885
 3354TIP3    H131697   4.713   3.173   1.595 -0.9586 -2.3593  0.0603
 3354TIP3    H231698   4.708   3.233   1.456  0.4617  0.0668  1.0027
 3355TIP3   OH231699   6.365   6.404   6.657  0.2945 -0.2824 -0.0104
 3355TIP3    H131700   6.284   6.413   6.608  0.0038  2.4953  0.8168
 3355TIP3    H231701   6.397   6.494   6.668  1.5819 -0.9551  2.7664
 3356TIP3   OH231702   2.021   5.038   7.316 -0.2488 -0.2232  0.3692
 3356TIP3    H131703   1.995   4.979   7.386 -1.0504  1.1728  1.2891
 3356TIP3    H231704   2.104   5.076   7.345 -0.6711  0.4926  0.6610
 3357TIP3   OH231705   0.086   4.966   1.146  0.0240  0.2075  0.7144
 3357TIP3    H131706   0.008   5.023   1.143 -0.6602 -0.7467 -0.3900
 3357TIP3    H231707   0.070   4.908   1.220 -0.2133  0.1475  0.6164
 3358TIP3   OH231708   5.945   0.223   6.998  0.1901  0.2939 -0.3791
 3358TIP3    H131709   5.892   0.155   7.039 -1.7506  1.6406 -0.4999
 3358TIP3    H231710   5.961   0.190   6.909  0.5958 -0.6571  0.0349
 3359TIP3   OH231711   1.916   3.495   0.614 -0.3361 -0.0846 -0.0988
 3359TIP3    H131712   1.945   3.431   0.679 -1.5558 -2.6365 -1.8859
 3359TIP3    H231713   1.822   3.484   0.608 -0.2299 -0.3647 -2.6157
 3360TIP3   OH231714   0.083   2.686   7.657 -0.0288  0.0059 -0.1079
 3360TIP3    H131715   0.062   2.706   7.565  1.7912  1.7512 -0.1878
 3360TIP3    H231716   0.136   2.606   7.652  0.8430  0.6009 -0.6852
 3361TIP3   OH231717   2.967   2.598   6.937  0.2992 -0.6285  0.6732
 3361TIP3    H131718   2.877   2.591   6.904  1.0584 -1.1696 -1.4698
 3361TIP3    H231719   3.019   2.620   6.860  2.0907 -0.8283  1.7659
 3362TIP3   OH231720   0.146   0.597   2.053 -0.4257 -0.1452  0.0883
 3362TIP3    H131721   0.231   0.640   2.044 -0.7019  0.0728 -1.9150
 3362TIP3    H231722   0.101   0.648   2.121  0.1957  1.1729 -0.4542
 3363TIP3   OH231723   1.334   1.330   1.781 -0.2185 -0.4444  0.0818
 3363TIP3    H131724   1.258   1.304   1.832 -1.9067 -0.8742 -2.4759
 3363TIP3    H231725   1.307   1.410   1.736  0.6705 -0.8182 -1.1817
 3364TIP3   OH231726   1.695   6.618   1.055  0.0091 -0.0831  0.9636
 3364TIP3    H131727   1.617   6.637   1.107  0.9530 -1.2960  2.9492
 3364TIP3    H231728   1.680   6.531   1.018 -0.5398  0.6611 -0.6330
 3365TIP3   OH231729   2.745   4.156   1.064  0.0963  0.0557 -0.0192
 3365TIP3    H131730   2.752   4.081   1.005  2.0333  0.3927 -0.2963
 3365TIP3    H231731   2.759   4.232   1.006  0.5914  0.4670  0.6255
 3366TIP3   OH231732   2.261   2.887   0.186  0.2116  0.0598  0.6119
 3366TIP3    H131733   2.327   2.898   0.118  0.3945  1.2990  0.9535
 3366TIP3    H231734   2.254   2.793   0.199  0.5016 -0.1655 -0.7961
 3367TIP3   OH231735   5.086   2.991   1.218  0.1693  0.5049  0.5732
 3367TIP3    H131736   4.998   3.023   1.200  0.6018  1.6543  0.3933
 3367TIP3    H231737   5.107   3.026   1.305  1.2051  1.9960 -0.2380
 3368TIP3   OH231738   0.667   5.514   7.750  0.0340 -0.0493  0.2251
 3368TIP3    H131739   0.680   5.544   7.660 -0.9572 -1.0823 -0.3000
 3368TIP3    H231740   0.603   5.575   7.787 -0.1892 -0.1213 -0.0447
 3369TIP3   OH231741   0.075   5.396   1.585 -0.5545  0.0605  0.0388
 3369TIP3    H131742   0.070   5.321   1.644 -0.1375 -0.0990 -0.1249
 3369TIP3    H231743   0.031   5.467   1.632  1.4152  0.4863  1.4085
 3370TIP3   OH231744   0.352   1.265   8.444  0.3477  0.0598 -0.1816
 3370TIP3    H131745   0.289   1.222   8.385 -1.1342  0.9989  0.6586
 3370TIP3    H231746   0.353   1.356   8.415  0.7782  0.2087  0.2966
 3371TIP3   OH231747   2.942   3.738   0.242 -0.0003 -0.0173  0.3300
 3371TIP3    H131748   2.894   3.807   0.288  0.8000  0.2788  0.7488
 3371TIP3    H231749   2.876   3.696   0.186 -0.9817 -0.3753  1.7162
 3372TIP3   OH231750   4.403   3.717   8.404 -0.3998 -0.5688  0.0519
 3372TIP3    H131751   4.395   3.764   8.487  2.1713  1.4308 -0.6844
 3372TIP3    H231752   4.348   3.766   8.343  0.5181  0.2044 -0.1899
 3373TIP3   OH231753   3.636   6.470   8.677 -0.5538 -0.4796 -0.1728
 3373TIP3    H131754   3.705   6.527   8.642  0.2402 -1.3130 -0.0181
 3373TIP3    H231755   3.683   6.391   8.706 -1.4180 -0.5800  1.0373
 3374TIP3   OH231756   2.568   5.895   1.781 -0.2836  0.3201 -0.1183
 3374TIP3    H131757   2.620   5.893   1.861  1.2030  1.7406 -0.9803
 3374TIP3    H231758   2.493   5.951   1.802 -0.1257  0.3325  0.4087
 3375TIP3   OH231759   6.049   1.741   2.144  0.0331 -0.5230  0.2845
 3375TIP3    H131760   6.031   1.694   2.062  3.1267 -0.9037 -0.3212
 3375TIP3    H231761   6.066   1.672   2.208 -3.2219 -0.2486  1.5952
 3376TIP3   OH231762   6.694   0.391   1.843  0.0336 -0.5856  0.1431
 3376TIP3    H131763   6.721   0.302   1.823  0.6287 -0.3227 -0.2571
 3376TIP3    H231764   6.755   0.446   1.793 -1.0181  0.0370 -0.4793
 3377TIP3   OH231765   0.691   6.488   2.413  0.1321  0.3016  0.0737
 3377TIP3    H131766   0.710   6.437   2.492  0.6755 -0.9465 -0.8198
 3377TIP3    H231767   0.684   6.422   2.343  0.3799  1.4130 -1.0402
 3378TIP3   OH231768   0.553   4.614   7.078  0.2147  0.1352  0.7725
 3378TIP3    H131769   0.490   4.548   7.050 -0.2184  0.5844  0.6799
 3378TIP3    H231770   0.594   4.643   6.996 -0.8484  1.2421  0.6064
 3379TIP3   OH231771   4.313   5.913   0.966  0.1536 -0.1626 -0.4215
 3379TIP3    H131772   4.232   5.941   0.923 -0.0756 -0.0918  0.0518
 3379TIP3    H231773   4.378   5.914   0.896 -0.4611 -1.1898 -1.0367
 3380TIP3   OH231774   1.454   1.987   7.812 -0.2070 -0.1869  1.0016
 3380TIP3    H131775   1.540   2.024   7.831  0.1459 -0.8191  0.6620
 3380TIP3    H231776   1.406   2.058   7.768  0.1260  0.1716  1.2129
 3381TIP3   OH231777   0.013   5.170   7.306  0.6894  0.0893  0.3871
 3381TIP3    H131778   0.013   5.264   7.325 -0.1347  0.7775 -2.5764
 3381TIP3    H231779   0.104   5.143   7.318  0.8572  1.1488  1.6849
 3382TIP3   OH231780   6.666   0.868   1.665  0.4407  0.7398 -0.2508
 3382TIP3    H131781   6.604   0.828   1.605 -1.4659  2.0058  0.7768
 3382TIP3    H231782   6.674   0.806   1.737  0.6873  0.4003 -0.5679
 3383TIP3   OH231783   6.496   2.635   1.255 -0.1879 -0.4242  0.4673
 3383TIP3    H131784   6.526   2.726   1.253  0.7212 -0.5154  3.6123
 3383TIP3    H231785   6.555   2.588   1.197  0.4174  0.7238  0.1293
 3384TIP3   OH231786   5.836   1.741   7.463  0.3620  0.5634  0.3366
 3384TIP3    H131787   5.863   1.823   7.504 -0.3909  0.5832  0.8110
 3384TIP3    H231788   5.885   1.673   7.510  1.7174  0.7801 -0.6841
 3385TIP3   OH231789   4.134   2.792   0.672 -0.6208 -0.3114 -0.1465
 3385TIP3    H131790   4.046   2.813   0.640 -0.4848 -0.0332 -0.3363
 3385TIP3    H231791   4.129   2.807   0.767 -0.9545 -0.9066 -0.0593
 3386TIP3   OH231792   1.651   2.390   6.891 -0.6462  0.2048  0.0275
 3386TIP3    H131793   1.597   2.335   6.835  0.4039 -1.6437  0.7412
 3386TIP3    H231794   1.619   2.375   6.979 -0.9090  1.4610  0.1749
 3387TIP3   OH231795   1.754   4.521   6.750 -0.0484  0.1297  0.2108
 3387TIP3    H131796   1.700   4.514   6.828  2.7112 -0.7591  2.1757
 3387TIP3    H231797   1.820   4.586   6.773  1.4900 -0.9653 -0.9325
 3388TIP3   OH231798   1.416   5.901   0.221  0.3976 -0.2236 -0.1155
 3388TIP3    H131799   1.480   5.877   0.154  1.3281  1.3956  0.1441
 3388TIP3    H231800   1.468   5.909   0.301 -0.5451 -1.1783  0.6224
 3389TIP3   OH231801   2.217   2.122   7.664 -0.1701 -0.8162  0.4022
 3389TIP3    H131802   2.174   2.141   7.748  0.0950  0.8529  0.2001
 3389TIP3    H231803   2.246   2.031   7.671  1.3121 -0.2218  2.7726
 3390TIP3   OH231804   5.922   2.654   2.467 -0.4895  0.5805  0.0659
 3390TIP3    H131805   5.990   2.597   2.432 -1.2465 -0.4277  0.1970
 3390TIP3    H231806   5.947   2.668   2.558  0.6489  1.9435 -0.4170
 3391TIP3   OH231807   4.800   0.420   8.293  0.7576 -0.9039  0.0254
 3391TIP3    H131808   4.858   0.346   8.276  1.2716 -0.6404  0.5928
 3391TIP3    H231809   4.828   0.487   8.230  0.3624 -1.1538 -0.4177
 3392TIP3   OH231810   2.929   6.132   6.371 -0.1563 -0.3764 -0.1542
 3392TIP3    H131811   2.946   6.221   6.339  1.0802 -0.7274 -0.5458
 3392TIP3    H231812   2.904   6.144   6.462 -1.1842  0.4535 -0.5188
 3393TIP3   OH231813   6.194   5.642   7.117 -0.4939  0.1664  0.1164
 3393TIP3    H131814   6.196   5.637   7.022 -1.2928  2.0526 -0.0587
 3393TIP3    H231815   6.279   5.678   7.141 -0.6843  0.7132 -0.0012
 3394TIP3   OH231816   4.629   5.881   1.104  0.9514  0.2170 -0.1076
 3394TIP3    H131817   4.565   5.939   1.063  0.0487 -1.0383 -0.5219
 3394TIP3    H231818   4.683   5.939   1.157  1.8072  1.8567 -2.5816
 3395TIP3   OH231819   1.332   3.536   8.735 -0.2381  0.4528 -0.2379
 3395TIP3    H131820   1.342   3.598   8.663 -2.1411  1.0394 -0.0626
 3395TIP3    H231821   1.254   3.566   8.781 -0.3761 -1.2559  0.7122
 3396TIP3   OH231822   2.573   1.623   0.186  0.3849  0.3084 -0.2933
 3396TIP3    H131823   2.608   1.709   0.210  0.8714 -0.3827  1.6180
 3396TIP3    H231824   2.478   1.634   0.188  0.4428  0.7224  0.2984
 3397TIP3   OH231825   5.383   2.372   0.297 -0.9395 -0.4566 -0.0906
 3397TIP3    H131826   5.333   2.328   0.365  0.0329 -1.0009  0.2959
 3397TIP3    H231827   5.319   2.426   0.251 -1.9254 -1.3422  0.1996
 3398TIP3   OH231828   3.907   2.049   2.250 -0.0111  0.2317  0.0584
 3398TIP3    H131829   3.824   2.004   2.233 -0.5446  1.3997 -0.5246
 3398TIP3    H231830   3.971   1.978   2.259 -1.0568 -0.6877  0.4937
 3399TIP3   OH231831   3.750   6.648   7.608 -0.0184  0.2331 -0.5490
 3399TIP3    H131832   3.713   6.579   7.663  0.5511  0.6030  0.3347
 3399TIP3    H231833   3.817   6.689   7.663 -0.1797  1.3360 -1.1355
 3400TIP3   OH231834   3.051   0.013   1.996  0.3734  0.2192  0.3400
 3400TIP3    H131835   3.128  -0.006   1.942  0.3100  0.2070  0.2537
 3400TIP3    H231836   2.985   0.042   1.933 -0.1575 -1.1450  0.2446
 3401TIP3   OH231837   5.601   6.244   0.105 -0.1796 -0.5236 -1.0168
 3401TIP3    H131838   5.681   6.216   0.061  1.4633  0.3645  1.1891
 3401TIP3    H231839   5.614   6.219   0.197 -1.9534  0.6263 -0.3963
 3402TIP3   OH231840   5.378   0.677   7.936 -0.0586  0.0753  0.1162
 3402TIP3    H131841   5.340   0.652   8.020 -0.2836 -0.1486 -0.0492
 3402TIP3    H231842   5.317   0.741   7.899 -0.5509 -0.6640 -0.3783
 3403TIP3   OH231843   5.317   1.784   0.999  0.0650  0.2527 -0.5965
 3403TIP3    H131844   5.222   1.774   0.996 -0.1273  1.9031 -0.5135
 3403TIP3    H231845   5.340   1.764   1.090 -0.4300  1.4731 -0.1763
 3404TIP3   OH231846   1.258   5.242   0.043 -0.2191 -0.0891 -0.1894
 3404TIP3    H131847   1.207   5.313   0.004  2.0436  0.6980 -1.9032
 3404TIP3    H231848   1.278   5.273   0.131 -0.9220  0.4916 -0.2225
 3405TIP3   OH231849   1.547   0.710   1.362 -0.1684 -0.0640 -0.3986
 3405TIP3    H131850   1.502   0.793   1.373  2.7012  1.7208 -1.0135
 3405TIP3    H231851   1.554   0.674   1.450 -2.1524 -0.1364 -0.2215
 3406TIP3   OH231852   3.143   3.213   1.340 -0.8873 -0.1192  0.1671
 3406TIP3    H131853   3.234   3.240   1.350 -0.3156 -1.6766 -0.4027
 3406TIP3    H231854   3.144   3.119   1.359 -2.4068 -0.1313  0.2892
 3407TIP3   OH231855   6.479   5.889   2.243 -0.1310 -0.4404 -0.0728
 3407TIP3    H131856   6.400   5.873   2.191 -0.0565  0.0228 -0.3272
 3407TIP3    H231857   6.452   5.953   2.308 -0.1045 -0.6868  0.1822
 3408TIP3   OH231858   3.481   0.431   7.676  0.1887  0.6258 -0.2212
 3408TIP3    H131859   3.464   0.475   7.592 -0.0464 -0.7328 -0.9058
 3408TIP3    H231860   3.435   0.348   7.669  0.5576  0.2957  1.0881
 3409TIP3   OH231861   4.938   1.411   8.813  0.1072  0.3757 -0.2334
 3409TIP3    H131862   4.845   1.436   8.809  0.3055  1.1559 -0.1705
 3409TIP3    H231863   4.980   1.465   8.745  0.1462 -1.7674 -2.0384
 3410TIP3   OH231864   5.101   3.123   0.410  0.1210  0.3808 -0.0615
 3410TIP3    H131865   5.017   3.090   0.443  0.5567 -0.6107  0.1071
 3410TIP3    H231866   5.081   3.207   0.370 -0.0160  3.7201  5.8873
 3411TIP3   OH231867   4.420   2.412   7.922 -0.4359  0.5156  0.6161
 3411TIP3    H131868   4.514   2.406   7.903 -0.6792  1.0469 -0.8458
 3411TIP3    H231869   4.380   2.346   7.866 -1.1563  1.9333 -0.5856
 3412TIP3   OH231870   0.745   5.877   7.003 -0.5715 -0.3647  0.0188
 3412TIP3    H131871   0.793   5.950   6.964  1.2223  0.7667  3.8691
 3412TIP3    H231872   0.656   5.912   7.017  0.0020  0.8321  0.9281
 3413TIP3   OH231873   2.160   3.468   1.606 -0.0980  0.4813  0.4853
 3413TIP3    H131874   2.214   3.427   1.539  0.7850 -0.6561  1.8274
 3413TIP3    H231875   2.075   3.425   1.599  0.3329 -0.4484  0.8218
 3414TIP3   OH231876   2.585   4.200   0.230  0.2680 -0.2496  0.1910
 3414TIP3    H131877   2.648   4.251   0.179 -0.4840 -0.3557 -0.8606
 3414TIP3    H231878   2.613   4.213   0.321  0.2210  1.8858 -0.0489
 3415TIP3   OH231879   1.261   0.638   7.478  0.3327  0.1508 -0.1503
 3415TIP3    H131880   1.203   0.662   7.405 -1.5528 -1.1636  0.8160
 3415TIP3    H231881   1.307   0.719   7.499 -0.8631  1.1735 -1.2690
 3416TIP3   OH231882   4.970   3.329   0.798 -0.1016 -0.2952 -0.2948
 3416TIP3    H131883   5.048   3.384   0.796 -0.1811 -0.2068 -1.3305
 3416TIP3    H231884   4.913   3.370   0.862  1.2681 -1.1640  1.5749
 3417TIP3   OH231885   5.152   5.898   8.477 -0.0662 -0.1043 -0.6512
 3417TIP3    H131886   5.104   5.950   8.412  1.4647  1.7421 -0.4028
 3417TIP3    H231887   5.114   5.923   8.561  0.4222  0.4042 -0.5659
 3418TIP3   OH231888   3.998   2.052   0.679  0.5121 -0.3832  0.2188
 3418TIP3    H131889   4.054   2.075   0.605  0.4494 -1.0294 -0.0279
 3418TIP3    H231890   3.936   1.989   0.645 -1.5855  1.6526  0.0095
 3419TIP3   OH231891   5.150   3.538   0.785 -0.1947 -0.1861  0.0786
 3419TIP3    H131892   5.108   3.603   0.841  0.5386 -1.1988  1.9410
 3419TIP3    H231893   5.231   3.580   0.756 -0.0525  0.0087  0.7210
 3420TIP3   OH231894   5.155   2.670   1.147 -0.0389 -0.2008 -0.2457
 3420TIP3    H131895   5.154   2.692   1.053  0.5547  0.7488 -0.0487
 3420TIP3    H231896   5.099   2.736   1.187 -0.2934 -0.6078  0.0695
 3421TIP3   OH231897   5.308   2.399   8.758  0.8279 -0.0683  0.4695
 3421TIP3    H131898   5.328   2.320   8.809 -1.3127 -1.6080 -0.8872
 3421TIP3    H231899   5.275   2.365   8.674 -1.2566  2.2050  0.2491
 3422TIP3   OH231900   2.303   1.214   7.137 -0.1805 -0.8734 -0.0961
 3422TIP3    H131901   2.258   1.182   7.059  0.2257 -0.8013 -0.3612
 3422TIP3    H231902   2.377   1.154   7.149  1.5747  0.8651 -1.5523
 3423TIP3   OH231903   3.788   2.184   1.680  0.4134  0.4022  0.5233
 3423TIP3    H131904   3.844   2.235   1.739  1.5630 -0.7077  0.4342
 3423TIP3    H231905   3.850   2.131   1.629 -0.7336 -0.9463  0.5044
 3424TIP3   OH231906   3.109   2.979   1.909 -0.2885 -0.0034  0.3233
 3424TIP3    H131907   3.087   2.937   1.992 -0.5969 -0.6572 -0.0833
 3424TIP3    H231908   3.205   2.972   1.904 -0.3399 -0.6996  0.2412
 3425TIP3   OH231909   0.346   6.094   1.296 -0.0590 -0.2467 -0.3036
 3425TIP3    H131910   0.316   6.016   1.249  0.6477 -0.6657 -0.0728
 3425TIP3    H231911   0.428   6.117   1.254  0.1059 -0.0667  0.1167
 3426TIP3   OH231912   2.335   0.585   1.434  0.0046 -0.0585  0.1200
 3426TIP3    H131913   2.303   0.646   1.500 -1.3649 -1.1043  0.4654
 3426TIP3    H231914   2.346   0.502   1.480  3.1184  0.1337 -0.0231
 3427TIP3   OH231915   3.146   1.361   1.001  0.5365  0.2797  0.2590
 3427TIP3    H131916   3.050   1.370   1.004  0.3107 -1.2956 -1.1844
 3427TIP3    H231917   3.176   1.439   0.956 -0.1118  0.5176  0.2290
 3428TIP3   OH231918   6.244   4.832   6.898  0.0960 -0.7573  0.2453
 3428TIP3    H131919   6.184   4.866   6.965 -0.5340  1.3889 -1.2809
 3428TIP3    H231920   6.330   4.833   6.940 -0.2064  1.0131  0.9297
 3429TIP3   OH231921   6.147   6.364   8.160 -0.3623 -0.0168 -0.3905
 3429TIP3    H131922   6.053   6.346   8.154 -0.4123 -0.1469  0.5340
 3429TIP3    H231923   6.169   6.340   8.250  0.0546  2.3202  0.1759
 3430TIP3   OH231924   6.490   3.985   8.309 -0.9331 -0.0869 -0.2839
 3430TIP3    H131925   6.475   3.905   8.258  0.8540 -0.9186  0.3737
 3430TIP3    H231926   6.536   4.043   8.248  0.4955 -0.7802  0.0630
 3431TIP3   OH231927   5.819   4.876   7.863  0.2667 -0.3975 -0.0078
 3431TIP3    H131928   5.914   4.868   7.856  0.2705 -0.0825 -0.3245
 3431TIP3    H231929   5.804   4.966   7.891 -0.0072  0.1549 -1.7724
 3432TIP3   OH231930   5.198   3.223   1.067  0.1292 -0.3164  0.3907
 3432TIP3    H131931   5.165   3.184   1.148  0.5734  0.2894  0.8736
 3432TIP3    H231932   5.188   3.154   1.001 -0.3292 -0.7808  0.9391
 3433TIP3   OH231933   4.440   2.353   7.593 -0.1737  0.3796 -0.1603
 3433TIP3    H131934   4.353   2.316   7.583 -1.0733  1.8845  1.4797
 3433TIP3    H231935   4.446   2.420   7.526 -0.9528  1.3772  0.7341
 3434TIP3   OH231936   5.684   5.779   6.591  0.0221  0.4518 -0.2166
 3434TIP3    H131937   5.598   5.782   6.631 -0.9967  1.8086 -2.2868
 3434TIP3    H231938   5.727   5.859   6.620  0.0552  0.4473 -0.2528
 3435TIP3   OH231939   1.907   4.303   8.128  0.5073  0.7789  0.0011
 3435TIP3    H131940   1.979   4.261   8.081  1.3412  2.2254 -0.0855
 3435TIP3    H231941   1.869   4.233   8.181  1.5620 -0.1700 -0.4551
 3436TIP3   OH231942   4.974   0.076   6.322 -0.0750 -0.4676  0.1689
 3436TIP3    H131943   5.022  -0.006   6.306  0.8886  0.3456 -1.2263
 3436TIP3    H231944   5.039   0.134   6.362 -1.0506 -0.7029  2.2248
 3437TIP3   OH231945   5.384   0.322   1.900 -0.2142  0.2545  0.1633
 3437TIP3    H131946   5.463   0.280   1.868  0.5461  1.6412  0.1214
 3437TIP3    H231947   5.329   0.334   1.822 -1.8039 -3.2462  0.5684
 3438TIP3   OH231948   5.388   1.066   0.375 -0.0105  0.3936 -0.1985
 3438TIP3    H131949   5.427   1.135   0.320 -2.3901  2.0518  0.0615
 3438TIP3    H231950   5.374   0.993   0.315  1.4893  0.5005 -0.7387
 3439TIP3   OH231951   4.603   1.081   1.046 -0.0090 -0.1487 -0.8592
 3439TIP3    H131952   4.585   1.006   0.990  2.5862 -0.9159 -0.8113
 3439TIP3    H231953   4.552   1.153   1.009 -0.4258 -1.2871 -2.5749
 3440TIP3   OH231954   3.029   4.898   8.213 -0.3766 -0.6071  0.8221
 3440TIP3    H131955   3.069   4.977   8.247 -1.4968  0.1336  0.4704
 3440TIP3    H231956   3.102   4.838   8.198  0.6673  0.9306 -0.4288
 3441TIP3   OH231957   1.261   1.254   2.161 -0.0469  0.4147 -0.4989
 3441TIP3    H131958   1.245   1.227   2.251  0.6435 -0.0113 -0.4889
 3441TIP3    H231959   1.209   1.333   2.149 -1.3062 -0.3350 -0.1902
 3442TIP3   OH231960   0.882   3.871   7.410  0.0202  0.6761 -0.2388
 3442TIP3    H131961   0.834   3.793   7.382 -1.4526  2.1524 -2.0955
 3442TIP3    H231962   0.862   3.879   7.503  0.2260 -1.1456 -0.0065
 3443TIP3   OH231963   4.343   4.389   2.304 -0.5279  0.4703  0.2229
 3443TIP3    H131964   4.425   4.398   2.353  0.6229  1.5555 -1.7816
 3443TIP3    H231965   4.367   4.337   2.227 -1.5565  1.4057 -0.7552
 3444TIP3   OH231966   0.295   2.856   1.140 -0.3818 -0.4002  0.1546
 3444TIP3    H131967   0.349   2.842   1.062  0.3203 -0.6652  0.6781
 3444TIP3    H231968   0.214   2.894   1.106  0.2919  0.3950 -0.6013
 3445TIP3   OH231969   6.410   1.854   8.137  0.3178  0.7809 -0.3024
 3445TIP3    H131970   6.453   1.909   8.202  0.4863 -0.0166  0.2655
 3445TIP3    H231971   6.393   1.771   8.182 -2.2102  1.1862 -0.3619
 3446TIP3   OH231972   0.447   1.230   0.555 -0.2197 -0.2299 -0.3806
 3446TIP3    H131973   0.530   1.182   0.555  0.7941  1.4560 -0.2348
 3446TIP3    H231974   0.471   1.321   0.540 -1.9514  0.4724  0.7397
 3447TIP3   OH231975   5.634   2.243   7.865 -0.1171  0.0866 -0.2862
 3447TIP3    H131976   5.685   2.270   7.941 -1.5651  0.5851  0.5506
 3447TIP3    H231977   5.585   2.321   7.839 -3.0871 -1.1423  1.1119
 3448TIP3   OH231978   1.378   0.469   6.186  0.0191 -0.3120  0.6352
 3448TIP3    H131979   1.385   0.414   6.264 -1.4268 -1.3818  0.0775
 3448TIP3    H231980   1.292   0.510   6.193  0.7118  1.2161  0.5914
 3449TIP3   OH231981   1.682   3.547   7.495  0.9225 -0.2542  0.2005
 3449TIP3    H131982   1.706   3.528   7.585  1.2239  0.9838  0.3908
 3449TIP3    H231983   1.739   3.619   7.469  0.9331 -0.6795 -1.0309
 3450TIP3   OH231984   0.299   3.542   8.826 -0.1481  0.5694 -0.0565
 3450TIP3    H131985   0.338   3.579   8.905 -0.8866 -0.4247  0.8046
 3450TIP3    H231986   0.372   3.532   8.765  0.8471 -0.6000  1.2600
 3451TIP3   OH231987   2.373   1.214   1.333 -0.3299 -0.3044  0.6094
 3451TIP3    H131988   2.309   1.281   1.358 -1.6538 -2.0239  2.0337
 3451TIP3    H231989   2.327   1.131   1.343  0.6826 -1.4518 -2.8237
 3452TIP3   OH231990   6.383   4.980   1.052  0.2289 -0.4917 -0.6541
 3452TIP3    H131991   6.443   4.933   1.109 -0.8941 -0.7285  0.4016
 3452TIP3    H231992   6.434   5.001   0.974  1.4304 -1.3537 -0.1322
 3453TIP3   OH231993   5.447   4.911   7.271  0.0783  0.1110  0.7489
 3453TIP3    H131994   5.496   4.846   7.321 -1.7294 -1.8662  0.1071
 3453TIP3    H231995   5.504   4.933   7.198  1.1468  0.0353  1.5426
 3454TIP3   OH231996   2.528   1.637   7.654 -0.0894  0.5503  0.4253
 3454TIP3    H131997   2.517   1.697   7.727 -0.4709  0.5911  0.3359
 3454TIP3    H231998   2.519   1.550   7.693 -1.6772  0.5945  0.2125
 3455TIP3   OH231999   0.519   5.053   6.437 -0.0473 -0.0142  0.1856
 3455TIP3    H132000   0.538   4.993   6.364 -0.1546  0.7063 -0.4509
 3455TIP3    H232001   0.426   5.038   6.456 -0.9173  1.9919 -1.9659
 3456TIP3   OH232002   0.614   1.463   7.756  0.0917 -0.1241  0.5534
 3456TIP3    H132003   0.690   1.521   7.745 -0.0819 -0.0165 -0.1332
 3456TIP3    H232004   0.544   1.522   7.787 -0.0100 -0.0096  0.1174
 3457TIP3   OH232005   0.314   6.053   0.016 -0.0343  0.1881 -0.1967
 3457TIP3    H132006   0.251   6.116  -0.021 -0.2750  0.6253  0.9009
 3457TIP3    H232007   0.384   6.107   0.051 -0.2167 -0.1409  0.7141
 3458TIP3   OH232008   4.158   2.925   7.707 -0.1760 -0.1594  0.0907
 3458TIP3    H132009   4.142   2.861   7.638  0.4469 -0.5495  0.2965
 3458TIP3    H232010   4.247   2.956   7.690 -0.4898  0.6925 -0.0349
 3459TIP3   OH232011   3.281   5.630   6.956  0.4314  0.5496 -0.4191
 3459TIP3    H132012   3.233   5.552   6.928 -0.7431  1.1976 -0.2956
 3459TIP3    H232013   3.344   5.598   7.020  0.2022 -0.3411 -0.6305
 3460TIP3   OH232014   1.772   0.197   2.052  0.5290  0.1580  0.4074
 3460TIP3    H132015   1.696   0.196   2.111 -0.5019  0.2739 -0.8717
 3460TIP3    H232016   1.798   0.288   2.048  1.1203  0.0396  1.3040
 3461TIP3   OH232017   0.060   6.105   6.178 -0.4042 -0.1276 -0.2394
 3461TIP3    H132018   0.103   6.151   6.250  2.6639 -1.0020 -1.3730
 3461TIP3    H232019   0.023   6.175   6.124 -2.2609  0.5617  1.7902
 3462TIP3   OH232020   1.115   5.291   7.598 -0.5574  0.0305 -0.7255
 3462TIP3    H132021   1.157   5.241   7.668 -1.8386 -2.4451 -1.6234
 3462TIP3    H232022   1.187   5.336   7.555  1.3843 -3.9941 -2.1779
 3463TIP3   OH232023   3.116   3.652   0.459 -0.3244 -0.1424  0.6238
 3463TIP3    H132024   3.173   3.728   0.460  0.4959 -0.6757 -1.3184
 3463TIP3    H232025   3.037   3.681   0.412 -0.0690 -0.4328  0.0050
 3464TIP3   OH232026   3.600   2.833   8.043 -0.1426 -0.8073 -0.6353
 3464TIP3    H132027   3.672   2.771   8.038  0.1938 -0.4242 -0.5995
 3464TIP3    H232028   3.641   2.919   8.030 -0.8538 -0.7190 -2.7332
 3465TIP3   OH232029   0.935   1.352   2.477 -0.4936 -0.6779 -0.4193
 3465TIP3    H132030   0.959   1.443   2.491 -0.5027 -0.6405 -0.6432
 3465TIP3    H232031   1.008   1.302   2.513 -0.8362 -0.6026  0.4001
 3466TIP3   OH232032   3.535   5.483   0.608 -0.1085 -0.2155  0.1637
 3466TIP3    H132033   3.555   5.404   0.558 -0.8945 -0.6720  0.5455
 3466TIP3    H232034   3.441   5.496   0.595 -0.2734 -0.1850  1.2941
 3467TIP3   OH232035   6.179   1.107   2.183  0.5304 -0.1682 -0.0773
 3467TIP3    H132036   6.138   1.100   2.097 -1.1610  0.4972  0.6409
 3467TIP3    H232037   6.215   1.196   2.185 -2.2073  1.0137  1.0101
 3468TIP3   OH232038   2.131   1.322   6.907  0.1252  0.1015 -0.0539
 3468TIP3    H132039   2.081   1.353   6.831  1.9189 -1.1146 -1.8179
 3468TIP3    H232040   2.147   1.229   6.890  0.6978 -0.1911  1.7830
 3469TIP3   OH232041   3.849   6.620   8.578 -0.4347  0.1628 -0.7102
 3469TIP3    H132042   3.915   6.555   8.600 -0.2965  0.2843 -0.7604
 3469TIP3    H232043   3.881   6.701   8.619 -0.9546  0.0491 -0.0515
 3470TIP3   OH232044   1.714   0.040   7.690  0.1666  0.1912 -0.6428
 3470TIP3    H132045   1.670  -0.023   7.747  1.9902 -0.5673  0.0121
 3470TIP3    H232046   1.658   0.118   7.692 -1.3346 -0.8623 -0.2344
 3471TIP3   OH232047   0.425   5.504   8.728 -0.4223  0.3031  0.2081
 3471TIP3    H132048   0.492   5.476   8.789 -0.5004 -0.6034 -0.1051
 3471TIP3    H232049   0.407   5.595   8.751  1.4092  0.7851 -0.1645
 3472TIP3   OH232050   4.245   4.456   6.494 -0.5921 -0.0309  0.0378
 3472TIP3    H132051   4.161   4.411   6.485 -0.0945 -0.6437 -2.2840
 3472TIP3    H232052   4.232   4.540   6.450  0.2351 -0.5071 -1.1682
 3473TIP3   OH232053   3.211   4.193   1.977  0.6230 -0.6730  0.6336
 3473TIP3    H132054   3.220   4.136   2.054 -1.8077 -0.1934  1.3651
 3473TIP3    H232055   3.165   4.139   1.913  1.0113 -0.4890  0.1972
 3474TIP3   OH232056   0.624   6.783   8.798 -0.3912 -0.1491  0.1593
 3474TIP3    H132057   0.716   6.773   8.773  1.1701 -0.1559  5.0043
 3474TIP3    H232058   0.589   6.848   8.736  2.1764 -1.5576 -3.0637
 3475TIP3   OH232059   3.452   1.136   2.359  0.1649 -0.1979  0.1679
 3475TIP3    H132060   3.368   1.140   2.313  0.9682 -1.5863 -1.5082
 3475TIP3    H232061   3.460   1.222   2.401 -0.5826  1.2220 -2.3878
 3476TIP3   OH232062   5.494   5.119   8.805 -0.4351  0.2561 -0.2406
 3476TIP3    H132063   5.442   5.161   8.736 -0.6816  0.3801  0.0185
 3476TIP3    H232064   5.533   5.042   8.762 -0.8531  0.1476 -0.4325
 3477TIP3   OH232065   5.918   3.938   0.767 -0.7205 -0.8259 -0.0955
 3477TIP3    H132066   5.963   3.879   0.828 -0.1782 -1.0119 -0.6766
 3477TIP3    H232067   5.931   4.026   0.804  1.0915 -0.7508 -0.8408
 3478TIP3   OH232068   1.413   0.039   0.825 -0.0416 -0.8713 -0.5919
 3478TIP3    H132069   1.432   0.096   0.750  1.2672 -0.3371  0.1105
 3478TIP3    H232070   1.458   0.081   0.899  0.0604 -2.2521  0.1556
 3479TIP3   OH232071   3.999   0.886   7.198  0.0646 -0.4947  0.1125
 3479TIP3    H132072   3.961   0.890   7.286  0.4011  0.2102  0.2353
 3479TIP3    H232073   3.950   0.817   7.153 -1.2257  0.2578  0.3310
 3480TIP3   OH232074   0.086   5.257   6.965 -0.4014 -0.1279 -0.1056
 3480TIP3    H132075   0.077   5.162   6.973  0.1696 -0.4102 -2.1789
 3480TIP3    H232076   0.171   5.270   6.923 -0.1985  1.3562  0.6885
 3481TIP3   OH232077   4.363   4.110   8.007  0.3358  0.5248 -0.0344
 3481TIP3    H132078   4.402   4.065   7.931 -1.0342 -1.6196  0.4226
 3481TIP3    H232079   4.426   4.095   8.078  0.3006  0.0767 -0.0941
 3482TIP3   OH232080   0.490   4.764   2.058 -0.1557 -0.1700  0.0524
 3482TIP3    H132081   0.554   4.697   2.082  0.1523 -0.2379 -0.8991
 3482TIP3    H232082   0.406   4.717   2.055  0.3673 -1.1409 -2.9241
 3483TIP3   OH232083   6.707   1.130   7.334  0.0922  0.0009  0.0692
 3483TIP3    H132084   6.671   1.047   7.303 -0.9123  0.2673  0.5007
 3483TIP3    H232085   6.755   1.107   7.414 -0.9914 -0.0360  0.7237
 3484TIP3   OH232086   1.905   6.603   7.230 -0.2832  0.1475 -0.0337
 3484TIP3    H132087   1.845   6.655   7.176 -1.1162  0.7180  1.3804
 3484TIP3    H232088   1.983   6.658   7.237  0.3759 -0.4967 -1.6895
 3485TIP3   OH232089   2.796   0.149   1.896  0.0365 -0.2760 -0.9152
 3485TIP3    H132090   2.751   0.134   1.980  3.3196 -0.5508  0.9750
 3485TIP3    H232091   2.751   0.093   1.834 -2.2775 -0.3993  0.7327
 3486TIP3   OH232092   2.840   0.607   2.148  0.4212 -0.0487  0.0768
 3486TIP3    H132093   2.931   0.590   2.124  0.2670 -1.5952  0.5177
 3486TIP3    H232094   2.823   0.696   2.116  0.9903 -1.0165 -3.2740
 3487TIP3   OH232095   6.575   2.898   1.345 -0.3488 -0.4396  0.5107
 3487TIP3    H132096   6.651   2.862   1.299 -0.1910 -0.0072  0.4201
 3487TIP3    H232097   6.611   2.931   1.428 -0.2938  0.4659  0.1341
 3488TIP3   OH232098   6.574   1.501   8.145  0.0279 -0.4636 -0.0141
 3488TIP3    H132099   6.497   1.512   8.090  0.4977 -0.0975 -0.6144
 3488TIP3    H232100   6.545   1.525   8.233 -0.6795 -0.8603 -0.1312
 3489TIP3   OH232101   4.668   1.800   6.592 -0.3830  0.3617 -0.2839
 3489TIP3    H132102   4.730   1.827   6.524 -1.0568  1.4783 -0.4743
 3489TIP3    H232103   4.582   1.813   6.552 -0.8116  1.5079  0.9357
 3490TIP3   OH232104   6.392   2.029   0.838 -0.7740 -0.6935  0.4915
 3490TIP3    H132105   6.344   2.103   0.803  0.1246 -0.5685 -0.5346
 3490TIP3    H232106   6.438   2.063   0.915  0.0856 -0.0167 -0.3015
 3491TIP3   OH232107   2.732   5.203   7.727 -0.5671  0.3296  0.0608
 3491TIP3    H132108   2.819   5.200   7.687 -1.0025  1.2486 -1.0037
 3491TIP3    H232109   2.745   5.250   7.809 -0.0994  0.7094 -0.2216
 3492TIP3   OH232110   4.274   2.246   2.419 -0.6017  0.6952 -0.0983
 3492TIP3    H132111   4.356   2.283   2.452 -0.3974  1.6306 -1.5466
 3492TIP3    H232112   4.255   2.297   2.340 -1.3552 -1.0274 -1.0904
 3493TIP3   OH232113   6.333   3.416   0.097 -0.4690  0.2305 -0.0197
 3493TIP3    H132114   6.423   3.428   0.069  0.2827 -0.6019  1.8924
 3493TIP3    H232115   6.292   3.502   0.083  0.8324  0.8508 -0.1347
 3494TIP3   OH232116   2.612   4.462   7.973 -0.4384 -0.1245 -0.1510
 3494TIP3    H132117   2.626   4.557   7.972  0.6347 -0.2776  0.1129
 3494TIP3    H232118   2.577   4.445   8.060  0.6090 -0.1350  0.2795
 3495TIP3   OH232119   3.547   1.492   8.517  0.2208  1.2555  0.2352
 3495TIP3    H132120   3.606   1.537   8.457  2.2488 -1.5679 -0.1184
 3495TIP3    H232121   3.473   1.465   8.462  1.0455  0.5311 -0.5568
 3496TIP3   OH232122   5.604   4.267   6.465 -0.0058  0.2487 -0.3243
 3496TIP3    H132123   5.676   4.272   6.528  0.4824  1.6873 -0.9517
 3496TIP3    H232124   5.647   4.275   6.380 -0.8287  0.1709 -0.7536
 3497TIP3   OH232125   0.101   5.891   0.076 -0.0527 -0.2737 -0.1858
 3497TIP3    H132126   0.056   5.944   0.141 -1.2512  0.3593 -1.4891
 3497TIP3    H232127   0.184   5.937   0.061  1.1026 -1.4185  2.1792
 3498TIP3   OH232128   2.287   5.545   8.754  0.0897  0.0854  0.4603
 3498TIP3    H132129   2.295   5.640   8.767 -0.9534  0.0535  1.5027
 3498TIP3    H232130   2.279   5.534   8.659 -0.1500  1.0753  0.3578
 3499TIP3   OH232131   6.426   1.870   0.114 -0.0793  0.2612  0.0174
 3499TIP3    H132132   6.371   1.834   0.045  0.8294  0.7611 -0.9864
 3499TIP3    H232133   6.515   1.843   0.091  0.2222  0.2311  1.1301
 3500TIP3   OH232134   1.430   2.543   8.879  0.1834 -0.2021 -0.2974
 3500TIP3    H132135   1.402   2.541   8.788  0.8244 -1.2514 -0.4882
 3500TIP3    H232136   1.379   2.473   8.922 -0.2643  0.4178  0.1962
 3501TIP3   OH232137   6.064   1.848   6.474  0.2047  0.0549 -0.0383
 3501TIP3    H132138   6.015   1.779   6.520 -0.1240 -0.2435 -0.8190
 3501TIP3    H232139   6.087   1.809   6.390  1.1608  0.4507  0.0299
 3502TIP3   OH232140   5.003   0.792   1.017  0.2281 -0.2707 -0.3795
 3502TIP3    H132141   4.954   0.729   1.070  0.1682 -0.5622 -0.7793
 3502TIP3    H232142   5.070   0.825   1.076  0.6255 -1.1393 -0.3304
 3503TIP3   OH232143   4.810   6.022   2.194  0.6715 -0.6161  0.0753
 3503TIP3    H132144   4.810   6.020   2.099  1.4675  0.8247  0.0191
 3503TIP3    H232145   4.752   6.095   2.217  1.2271 -0.3454  0.6555
 3504TIP3   OH232146   4.516   6.523   1.832 -0.6849 -0.3156 -1.2061
 3504TIP3    H132147   4.432   6.532   1.878 -0.4839  0.5911 -1.0164
 3504TIP3    H232148   4.559   6.449   1.876 -0.0176  1.1995  0.8388
 3505TIP3   OH232149   6.065   2.969   8.216 -0.3018  0.4200  0.2413
 3505TIP3    H132150   6.159   2.970   8.197  0.0744 -1.1149  1.6811
 3505TIP3    H232151   6.058   3.011   8.302 -1.0185  1.0080 -0.0953
 3506TIP3   OH232152   3.072   6.470   1.292 -0.3376 -0.1899 -0.1029
 3506TIP3    H132153   3.124   6.470   1.211 -0.1319 -0.7956  0.0256
 3506TIP3    H232154   3.126   6.517   1.355  0.7140 -2.0039  0.4281
 3507TIP3   OH232155   5.547   4.046   8.583  0.0020 -0.1074  0.2608
 3507TIP3    H132156   5.637   4.076   8.570 -0.9335  2.7434 -0.2430
 3507TIP3    H232157   5.542   3.963   8.535  2.7472 -1.2049  1.6584
 3508TIP3   OH232158   1.321   5.245   8.463  0.6485 -1.0295 -0.1534
 3508TIP3    H132159   1.368   5.325   8.440 -2.9137  0.4410 -3.5506
 3508TIP3    H232160   1.351   5.181   8.398 -0.0543 -0.8821 -0.6355
 3509TIP3   OH232161   1.309   4.358   0.593  0.5516  0.0362  0.0352
 3509TIP3    H132162   1.286   4.271   0.559  3.4063 -0.4000 -1.0821
 3509TIP3    H232163   1.235   4.413   0.569 -0.7643 -1.8071 -0.3981
 3510TIP3   OH232164   2.539   1.001   8.601 -0.1013 -0.8227 -0.2201
 3510TIP3    H132165   2.591   1.060   8.655 -0.3314 -0.9027  0.0958
 3510TIP3    H232166   2.564   1.021   8.511 -2.6403  2.2234 -0.4528
 3511TIP3   OH232167   2.299   4.935   6.672 -0.0945 -0.4271  0.4709
 3511TIP3    H132168   2.295   4.901   6.582  0.6688 -0.9190  0.6137
 3511TIP3    H232169   2.213   4.975   6.686  0.0010  0.2331 -0.6960
 3512TIP3   OH232170   2.435   4.781   1.641 -0.1430  0.3301  0.2912
 3512TIP3    H132171   2.483   4.733   1.708  0.6110  0.4928 -0.1261
 3512TIP3    H232172   2.434   4.872   1.673 -1.7173  0.0372  1.1658
 3513TIP3   OH232173   5.196   2.627   1.699 -0.5017  0.4646  0.0651
 3513TIP3    H132174   5.155   2.626   1.786  0.4696  0.3114  0.5314
 3513TIP3    H232175   5.164   2.548   1.656 -0.5393  0.2401  0.4990
 3514TIP3   OH232176   4.990   0.322   6.695  0.0006 -0.5183  0.2647
 3514TIP3    H132177   4.971   0.399   6.749  0.6305  1.4895 -2.1742
 3514TIP3    H232178   4.908   0.304   6.650  0.0632 -0.8128  0.2654
 3515TIP3   OH232179   6.264   0.222   0.818  0.2041 -0.1421  0.0859
 3515TIP3    H132180   6.341   0.245   0.870 -0.1152 -0.2498  0.6165
 3515TIP3    H232181   6.255   0.127   0.827  1.7142 -0.6175 -2.3705
 3516TIP3   OH232182   6.086   5.963   8.881  0.5450 -0.1079  0.1267
 3516TIP3    H132183   6.174   6.001   8.882  0.7632 -0.5526 -1.1105
 3516TIP3    H232184   6.097   5.877   8.922  0.7792 -0.3374 -0.4067
 3517TIP3   OH232185   4.117   2.625   1.089  0.3185  0.5965 -0.1805
 3517TIP3    H132186   4.098   2.667   1.172  1.5478  1.5857 -0.3743
 3517TIP3    H232187   4.182   2.558   1.111 -0.1210  0.1650 -0.1897
 3518TIP3   OH232188   0.005   6.036   2.301 -0.1361  0.5111 -0.1607
 3518TIP3    H132189  -0.026   5.948   2.280 -0.1544 -0.1584  2.3491
 3518TIP3    H232190  -0.037   6.057   2.385  2.5197  1.4449  1.0471
 3519TIP3   OH232191   4.041   6.458   8.684 -0.5877 -0.2076  0.3721
 3519TIP3    H132192   4.121   6.423   8.643 -0.5302  2.1725 -1.8080
 3519TIP3    H232193   4.046   6.430   8.775  1.9974 -1.3503 -0.0370
 3520TIP3   OH232194   4.290   6.361   8.628 -0.1890  0.2820 -0.1199
 3520TIP3    H132195   4.278   6.267   8.642 -1.7961  0.5801  0.7578
 3520TIP3    H232196   4.335   6.392   8.707  1.2855  0.1242 -0.8556
 3521TIP3   OH232197   2.626   1.457   1.607  0.6011 -0.5331 -0.0593
 3521TIP3    H132198   2.679   1.416   1.539  0.8063  0.0142 -0.2311
 3521TIP3    H232199   2.682   1.526   1.643  0.5396 -0.9009  0.7519
 3522TIP3   OH232200   4.341   3.888   8.648  0.2354  0.0597  0.7457
 3522TIP3    H132201   4.330   3.903   8.742  0.8296  0.1467  0.8061
 3522TIP3    H232202   4.372   3.972   8.614 -0.5027  0.1915  0.3765
 3523TIP3   OH232203   0.234   0.236   7.971  0.5204 -0.5424  0.4496
 3523TIP3    H132204   0.193   0.319   7.995 -0.5091 -0.8805 -0.0788
 3523TIP3    H232205   0.171   0.194   7.912  1.3960 -1.3225  0.0347
 3524TIP3   OH232206   2.012   3.164   2.196 -0.5715  0.5041 -0.9288
 3524TIP3    H132207   1.996   3.163   2.290  0.8663  0.3409 -0.6650
 3524TIP3    H232208   1.927   3.144   2.157 -0.8092 -1.2095  0.3762
 3525TIP3   OH232209   5.159   0.927   0.073  0.5851 -0.0298 -0.0328
 3525TIP3    H132210   5.091   0.924   0.005  0.2116  1.7610  0.2219
 3525TIP3    H232211   5.218   0.997   0.046  0.0726  1.1810  1.7527
 3526TIP3   OH232212   4.186   1.685   1.332  0.4195 -0.2988  0.4851
 3526TIP3    H132213   4.240   1.673   1.409  0.6200  0.2060  0.4216
 3526TIP3    H232214   4.150   1.598   1.314 -0.5810 -0.2020  1.8445
 3527TIP3   OH232215   0.890   3.449   2.321 -0.1147 -0.2996 -0.4368
 3527TIP3    H132216   0.863   3.528   2.275 -0.3229  0.1800  0.4929
 3527TIP3    H232217   0.812   3.422   2.370  0.6654  0.3406  1.2217
 3528TIP3   OH232218   1.144   2.216   1.413 -0.2155  0.2102 -0.0022
 3528TIP3    H132219   1.228   2.212   1.458 -0.4260  1.3113  0.5198
 3528TIP3    H232220   1.126   2.125   1.388 -0.0816 -0.4629  2.1143
 3529TIP3   OH232221   3.699   0.883   7.250 -0.1852  0.1937  0.0117
 3529TIP3    H132222   3.749   0.872   7.169 -1.2159 -0.0852 -0.6029
 3529TIP3    H232223   3.617   0.924   7.223 -0.3877  0.4457  0.9696
 3530TIP3   OH232224   5.880   1.540   1.539  0.2721  0.4873  0.2287
 3530TIP3    H132225   5.897   1.578   1.453  1.2615  0.9262  0.6028
 3530TIP3    H232226   5.919   1.602   1.600  0.8306 -0.5172  0.9117
 3531TIP3   OH232227   6.559   3.307   0.868 -0.0602  0.2735 -0.5713
 3531TIP3    H132228   6.579   3.229   0.920 -1.2260  0.3614  0.0402
 3531TIP3    H232229   6.609   3.295   0.787  0.2837 -0.7927 -0.2244
 3532TIP3   OH232230   0.204   0.626   0.663  0.3835  0.0330  0.1656
 3532TIP3    H132231   0.178   0.558   0.601  0.4608 -0.0106  0.1811
 3532TIP3    H232232   0.125   0.679   0.675  0.5704  0.4696 -0.5162
 3533TIP3   OH232233   0.644   6.556   1.857 -0.2442 -0.4275 -0.4208
 3533TIP3    H132234   0.677   6.501   1.785 -2.2262 -0.5555 -1.2889
 3533TIP3    H232235   0.646   6.645   1.823  2.5084  0.1065  0.8206
 3534TIP3   OH232236   6.100   5.288   7.957  0.2239  0.1179  0.0987
 3534TIP3    H132237   6.090   5.350   7.885 -1.8677  1.0197  1.0737
 3534TIP3    H232238   6.154   5.218   7.921  1.0622  1.5643 -1.6406
 3535TIP3   OH232239   2.147   2.698   8.902  0.0720  0.0604 -0.2511
 3535TIP3    H132240   2.086   2.769   8.924 -0.2606 -0.6483  1.3022
 3535TIP3    H232241   2.214   2.739   8.849 -0.1204  1.5418  0.5987
 3536TIP3   OH232242   4.918   1.204   0.130 -0.1776 -0.1149  0.3219
 3536TIP3    H132243   4.923   1.294   0.097 -0.9974  0.4175  1.5504
 3536TIP3    H232244   4.874   1.156   0.060  3.0015 -0.3362 -1.7258
 3537TIP3   OH232245   2.554   5.290   8.147  0.3917  0.2391  0.1464
 3537TIP3    H132246   2.499   5.213   8.135 -0.2924  0.4937  1.4848
 3537TIP3    H232247   2.623   5.281   8.080 -0.4171 -0.8394 -0.5742
 3538TIP3   OH232248   0.358   0.611   7.418 -0.4639  0.2669  0.0713
 3538TIP3    H132249   0.300   0.546   7.460 -0.0653  0.0645  0.3119
 3538TIP3    H232250   0.299   0.681   7.391 -0.9620 -0.3961 -0.5897
 3539TIP3   OH232251   0.631   5.270   7.954  0.4156 -0.2870 -0.0229
 3539TIP3    H132252   0.605   5.302   7.868 -0.0487  1.2515  0.6476
 3539TIP3    H232253   0.725   5.254   7.946  1.0892  2.9084 -0.0267
 3540TIP3   OH232254   5.628   3.391   1.157  0.4207 -0.6167 -0.0585
 3540TIP3    H132255   5.646   3.416   1.248 -3.1597  2.2232  0.1051
 3540TIP3    H232256   5.664   3.462   1.105 -0.3136 -0.6191 -0.5794
 3541TIP3   OH232257   0.787   0.194   8.171 -0.0490  0.1275 -0.2527
 3541TIP3    H132258   0.867   0.150   8.140  0.6197 -0.5041  2.1649
 3541TIP3    H232259   0.819   0.260   8.232 -1.3402  0.5437 -0.0191
 3542TIP3   OH232260   4.787   1.071   8.812  0.4928 -0.8703 -0.7655
 3542TIP3    H132261   4.855   1.003   8.807 -0.2510 -1.7202  0.1168
 3542TIP3    H232262   4.709   1.023   8.839  0.4138  0.6382  1.9723
 3543TIP3   OH232263   2.572   2.371   0.306  0.0564 -0.2210 -0.1337
 3543TIP3    H132264   2.608   2.399   0.221 -1.2373 -0.6260 -0.8480
 3543TIP3    H232265   2.623   2.420   0.370  2.1046 -1.0387 -1.0399
 3544TIP3   OH232266   4.404   5.885   6.574 -0.0400  0.3173  0.0532
 3544TIP3    H132267   4.426   5.796   6.547  0.8198 -0.1683  2.1751
 3544TIP3    H232268   4.311   5.882   6.595  0.1025 -0.2455  0.6349
 3545TIP3   OH232269   5.760   3.010   0.702  0.1364  0.1000 -0.3201
 3545TIP3    H132270   5.781   2.984   0.613  1.6623  0.1620 -0.0058
 3545TIP3    H232271   5.664   3.008   0.706  0.0912 -1.6602 -1.4275
 3546TIP3   OH232272   3.853   0.316   0.126  0.2359  0.0850  0.0832
 3546TIP3    H132273   3.933   0.368   0.113  0.1388  0.0037 -0.8979
 3546TIP3    H232274   3.848   0.303   0.221  1.2065  0.3809  0.1849
 3547TIP3   OH232275   3.818   4.888   8.285 -0.3394  0.0222  0.1101
 3547TIP3    H132276   3.820   4.793   8.272  3.3629  0.1821 -2.1524
 3547TIP3    H232277   3.806   4.923   8.196  2.0616  1.5415  0.2951
 3548TIP3   OH232278   0.322   0.412   1.202  0.1564 -0.3316  0.3422
 3548TIP3    H132279   0.311   0.498   1.242 -1.0073 -0.2986 -0.0272
 3548TIP3    H232280   0.396   0.373   1.249  0.9600  1.0178  0.2523
 3549TIP3   OH232281   0.380   2.869   8.014 -0.8976  0.0075  0.4060
 3549TIP3    H132282   0.453   2.881   8.075 -0.8167  2.4351 -0.0610
 3549TIP3    H232283   0.418   2.821   7.941  0.0912  0.6819  0.4565
 3550TIP3   OH232284   1.576   5.078   2.049  0.0643 -0.2818 -0.2374
 3550TIP3    H132285   1.501   5.136   2.032  0.9622  0.5536 -1.4737
 3550TIP3    H232286   1.545   4.991   2.024 -0.3419  0.1346 -1.2551
 3551TIP3   OH232287   2.122   4.554   1.239  0.0547 -0.0397 -0.2854
 3551TIP3    H132288   2.188   4.589   1.298 -0.5549 -0.5928  0.7527
 3551TIP3    H232289   2.139   4.598   1.155  1.1700  0.4745  0.1875
 3552TIP3   OH232290   0.466   3.356   0.263 -0.1951 -0.2993 -0.5583
 3552TIP3    H132291   0.393   3.341   0.324  0.6836  3.3540  1.6981
 3552TIP3    H232292   0.543   3.365   0.319  0.9301  1.7752 -2.2889
 3553TIP3   OH232293   1.753   4.071   1.082 -0.2163  0.1506  0.2650
 3553TIP3    H132294   1.791   3.986   1.060 -0.0349  0.0553  0.9337
 3553TIP3    H232295   1.803   4.134   1.029 -0.5918 -0.1810 -0.5048
 3554TIP3   OH232296   3.933   5.148   7.862  0.5169  0.0283  0.1783
 3554TIP3    H132297   3.890   5.226   7.897 -0.2107 -0.8608  1.3667
 3554TIP3    H232298   4.024   5.175   7.849  0.1039  1.3020 -0.2548
 3555TIP3   OH232299   1.877   3.576   0.920  0.0460  0.1036  0.3420
 3555TIP3    H132300   1.927   3.504   0.957  1.9285  1.4614  0.5737
 3555TIP3    H232301   1.839   3.541   0.839  0.6522 -1.2129  0.6127
 3556TIP3   OH232302   3.340   6.175   1.256  0.0509 -0.2226 -0.1254
 3556TIP3    H132303   3.424   6.205   1.224 -1.1303  2.4509 -1.0050
 3556TIP3    H232304   3.309   6.246   1.314 -0.3094 -2.4686  2.6763
 3557TIP3   OH232305   5.283   6.311   7.262  0.0629  0.2291  0.4240
 3557TIP3    H132306   5.329   6.237   7.301  3.5127  1.2036 -1.4036
 3557TIP3    H232307   5.232   6.274   7.190 -0.0352 -0.5811  0.9004
 3558TIP3   OH232308   0.535   3.904   2.229 -0.1896 -0.0104  0.0869
 3558TIP3    H132309   0.557   3.982   2.178 -2.6250  0.7906  0.1235
 3558TIP3    H232310   0.583   3.915   2.312 -0.4793  1.4476  0.0870
 3559TIP3   OH232311   1.620   5.450   1.044  0.3289  0.0585 -0.0264
 3559TIP3    H132312   1.536   5.475   1.007  0.6651  2.3453  0.6379
 3559TIP3    H232313   1.685   5.491   0.988  1.1155 -2.5227 -1.1442
 3560TIP3   OH232314   1.685   2.005   1.608 -0.2125 -0.3016  0.2613
 3560TIP3    H132315   1.682   1.925   1.556  0.7502  1.2407 -2.3656
 3560TIP3    H232316   1.778   2.027   1.611 -0.4257  0.5107  1.3207
 3561TIP3   OH232317   3.677   3.600   1.991 -0.5427 -0.2334  0.1687
 3561TIP3    H132318   3.622   3.543   1.937 -0.9471  0.5622 -0.2811
 3561TIP3    H232319   3.741   3.541   2.031 -0.9500 -0.9987 -0.2836
 3562TIP3   OH232320   2.328   6.387   1.313  0.9895 -0.7619  0.3533
 3562TIP3    H132321   2.270   6.457   1.284  0.1812 -1.9055 -0.8674
 3562TIP3    H232322   2.405   6.395   1.257  1.3192 -0.2748  0.8621
 3563TIP3   OH232323   6.762   3.047   7.487 -0.8509 -0.0253  0.2976
 3563TIP3    H132324   6.699   3.115   7.465 -0.6783  0.2160  0.5428
 3563TIP3    H232325   6.732   3.013   7.571 -3.1864 -2.9165 -1.4975
 3564TIP3   OH232326   1.967   0.789   0.251 -0.3300 -0.0812  0.1645
 3564TIP3    H132327   1.953   0.696   0.272 -3.7469  0.0347 -1.0658
 3564TIP3    H232328   1.942   0.797   0.159 -0.3718  2.1313  0.3222
 3565TIP3   OH232329   3.013   0.345   1.430 -0.5738 -0.2379  0.5099
 3565TIP3    H132330   3.019   0.365   1.337  1.7946 -1.2394  0.3709
 3565TIP3    H232331   2.945   0.403   1.463 -2.0989 -0.4750 -1.9810
 3566TIP3   OH232332   1.735   5.903   6.970 -0.2691  0.6275  0.2841
 3566TIP3    H132333   1.660   5.854   6.935 -0.0297  0.2492  0.2933
 3566TIP3    H232334   1.790   5.920   6.894  1.5996 -2.5379  0.7848
 3567TIP3   OH232335   0.211   5.608   1.179 -0.0537 -0.7408 -0.0924
 3567TIP3    H132336   0.226   5.617   1.085  1.1155 -1.3883  0.0000
 3567TIP3    H232337   0.127   5.563   1.186 -0.3473 -0.3192 -0.8114
 3568TIP3   OH232338   0.234   5.769   8.363  0.4281 -0.0708 -0.3371
 3568TIP3    H132339   0.312   5.772   8.417 -0.4132 -0.9241  0.9888
 3568TIP3    H232340   0.244   5.689   8.311  0.5341 -0.0713 -0.3150
 3569TIP3   OH232341   3.598   4.956   8.749  0.5976  0.4372 -0.7298
 3569TIP3    H132342   3.609   5.049   8.770 -3.0915  0.3357  3.0370
 3569TIP3    H232343   3.507   4.948   8.722  0.9176 -2.0577 -1.2935
 3570TIP3   OH232344   4.663   5.914   7.856  0.5453  0.2542  0.1147
 3570TIP3    H132345   4.569   5.897   7.857  0.5675  0.1242 -0.0456
 3570TIP3    H232346   4.689   5.901   7.765  1.1257 -1.9147  0.5458
 3571TIP3   OH232347   5.536   4.016   0.372  0.0051 -0.3381  0.6555
 3571TIP3    H132348   5.567   4.056   0.291  0.9854 -0.2465  1.0481
 3571TIP3    H232349   5.455   3.972   0.349  1.1965 -1.8954 -0.8174
 3572TIP3   OH232350   1.965   5.537   1.122  0.0407  0.2454 -0.4177
 3572TIP3    H132351   1.972   5.479   1.046  1.4397  0.5300 -0.5261
 3572TIP3    H232352   2.027   5.502   1.185  2.4074  2.6769 -1.2202
 3573TIP3   OH232353   2.417   1.329   0.451  0.5849 -0.0577  0.4271
 3573TIP3    H132354   2.350   1.261   0.451 -0.2153  0.6423 -2.1673
 3573TIP3    H232355   2.383   1.396   0.510  0.0323 -0.6148  0.7570
 3574TIP3   OH232356   1.347   5.661   1.889  0.4488 -0.1181 -0.5625
 3574TIP3    H132357   1.319   5.618   1.970 -1.0621  1.2636 -0.2876
 3574TIP3    H232358   1.413   5.724   1.916 -1.7454  2.0848  0.1061
 3575TIP3   OH232359   4.566   4.695   7.048 -0.7302 -0.4065 -0.4439
 3575TIP3    H132360   4.482   4.712   7.004 -0.6449  0.3450 -0.3228
 3575TIP3    H232361   4.571   4.762   7.116  0.7461  0.6280 -1.5279
 3576TIP3   OH232362   3.117   6.413   0.257 -0.5208 -0.9526  0.1877
 3576TIP3    H132363   3.079   6.325   0.247 -1.5927 -0.3979 -0.9079
 3576TIP3    H232364   3.110   6.452   0.169 -0.4365  0.3769  0.7507
 3577TIP3   OH232365   0.233   4.087   2.317 -0.0799 -0.0952 -0.3235
 3577TIP3    H132366   0.166   4.022   2.334 -0.7608 -0.3956 -3.5846
 3577TIP3    H232367   0.213   4.159   2.378 -2.1205 -0.9807  0.1216
 3578TIP3   OH232368   1.409   1.171   1.588 -0.2179  0.2780  0.2879
 3578TIP3    H132369   1.494   1.142   1.620 -1.6066 -1.1492  3.0867
 3578TIP3    H232370   1.382   1.237   1.651 -0.9561  1.1504 -0.9118
 3579TIP3   OH232371   5.708   3.042   0.292  0.8407 -0.0665 -1.4771
 3579TIP3    H132372   5.765   3.055   0.216  2.7767  2.5028  0.2125
 3579TIP3    H232373   5.623   3.020   0.256  2.2156 -1.2853 -4.2535
 3580TIP3   OH232374   1.010   0.505   7.961  0.6528  0.3002 -0.1708
 3580TIP3    H132375   0.954   0.437   7.923 -0.3906  0.8671  0.3180
 3580TIP3    H232376   1.076   0.456   8.011 -0.5260 -0.3685  0.7943
 3581TIP3   OH232377   5.180   3.743   1.037  0.6010  0.0488 -0.0103
 3581TIP3    H132378   5.162   3.817   0.979 -1.9055  1.4319  2.3160
 3581TIP3    H232379   5.244   3.777   1.099  2.7896 -1.2296 -1.4283
 3582TIP3   OH232380   0.377   4.518   0.289  0.2797  0.1015  0.1973
 3582TIP3    H132381   0.467   4.492   0.271 -0.1207 -0.6965 -0.7551
 3582TIP3    H232382   0.374   4.611   0.265  0.7641  0.0370 -0.1331
 3583TIP3   OH232383   1.488   6.399   8.589  0.2884 -0.9339  0.9024
 3583TIP3    H132384   1.514   6.487   8.615  1.8039 -0.8535 -0.6551
 3583TIP3    H232385   1.443   6.411   8.506  1.9338 -1.7009 -0.1603
 3584TIP3   OH232386   0.892   3.949   1.422  0.2548  0.3270 -0.2153
 3584TIP3    H132387   0.938   4.031   1.405  0.1854  0.1570 -1.2815
 3584TIP3    H232388   0.951   3.881   1.391  0.4662 -0.0666  0.9941
 3585TIP3   OH232389   3.695   3.746   7.543 -0.3150 -0.0214 -0.0490
 3585TIP3    H132390   3.784   3.781   7.538 -0.7943  1.2295 -0.0979
 3585TIP3    H232391   3.680   3.732   7.636 -0.2780  0.3253  0.0103
 3586TIP3   OH232392   5.206   3.834   7.682 -0.3981  0.1192  0.8657
 3586TIP3    H132393   5.150   3.763   7.713  0.2814 -0.0858  1.6423
 3586TIP3    H232394   5.274   3.842   7.749  2.1391 -1.4731 -1.3668
 3587TIP3   OH232395   1.650   3.569   0.701 -0.1032  0.6189  0.0376
 3587TIP3    H132396   1.644   3.658   0.666  0.6989  1.3232  1.5805
 3587TIP3    H232397   1.612   3.575   0.789 -2.6370 -1.2305 -0.8207
 3588TIP3   OH232398   2.913   4.052   7.985 -0.1669 -0.0846 -0.2735
 3588TIP3    H132399   2.920   4.124   8.048  2.0090 -0.5004  0.0481
 3588TIP3    H232400   2.942   4.090   7.902 -0.0159 -0.3145 -0.3275
 3589TIP3   OH232401   0.441   1.656   7.828  0.4188  1.1795  0.1002
 3589TIP3    H132402   0.408   1.618   7.909  2.4314 -1.9905 -0.3962
 3589TIP3    H232403   0.366   1.654   7.768 -0.1914  0.3447  0.8702
 3590TIP3   OH232404   0.178   5.962   7.772  0.6395  0.0194 -0.3368
 3590TIP3    H132405   0.154   6.039   7.721 -3.1500 -0.8033 -0.0589
 3590TIP3    H232406   0.241   5.915   7.717 -0.6621  0.8922 -2.6878
 3591TIP3   OH232407   4.805   1.012   8.179 -0.3115  0.4983  0.0859
 3591TIP3    H132408   4.774   1.088   8.229 -0.4051  0.4600  0.0866
 3591TIP3    H232409   4.896   1.001   8.206 -0.0230  1.1475 -0.5571
 3592TIP3   OH232410   1.451   2.867   1.016  0.7265 -0.8644 -0.0900
 3592TIP3    H132411   1.514   2.799   1.042 -1.4522 -1.9180  3.0590
 3592TIP3    H232412   1.462   2.936   1.083  0.6720  0.4355 -1.3697
 3593TIP3   OH232413   5.408   3.228   1.219 -0.5536 -0.0280  0.7706
 3593TIP3    H132414   5.345   3.230   1.147  0.2841 -0.1676  0.0074
 3593TIP3    H232415   5.448   3.315   1.219  0.5531 -0.5075  0.0287
 3594TIP3   OH232416   2.232   3.964   8.421 -0.2424 -0.1511  0.1490
 3594TIP3    H132417   2.266   3.913   8.494 -1.4318 -3.3816 -1.3504
 3594TIP3    H232418   2.301   3.958   8.355 -0.6551 -0.4211 -0.2657
 3595TIP3   OH232419   1.024   5.421   1.406 -0.1105  0.1932  0.6268
 3595TIP3    H132420   0.999   5.512   1.389  0.6883  0.4743  0.9016
 3595TIP3    H232421   0.945   5.370   1.388 -0.4048  0.8835 -0.0949
 3596TIP3   OH232422   4.687   3.725   2.488  0.1950 -0.1016  0.2101
 3596TIP3    H132423   4.702   3.633   2.471  0.5200 -0.0063 -0.0276
 3596TIP3    H232424   4.667   3.730   2.581 -1.3229 -0.6029 -0.0557
 3597TIP3   OH232425   6.230   3.602   8.515  0.1587  0.2394 -0.1146
 3597TIP3    H132426   6.197   3.539   8.579  2.5680  0.5140  1.5647
 3597TIP3    H232427   6.285   3.550   8.457  1.6009  0.6109  0.8579
 3598TIP3   OH232428   4.881   3.183   0.595 -0.4011  0.3849  0.5966
 3598TIP3    H132429   4.843   3.104   0.634 -3.4266  2.0031  1.2904
 3598TIP3    H232430   4.923   3.228   0.668  4.1607 -1.8276 -0.3205
 3599TIP3   OH232431   6.744   1.888   8.505 -0.2583 -0.1249  0.6184
 3599TIP3    H132432   6.652   1.913   8.490 -0.9388 -1.8033  1.6961
 3599TIP3    H232433   6.794   1.950   8.452 -1.9821  1.1183  0.3334
 3600TIP3   OH232434   4.093   3.666   8.852 -0.7582  0.6178  0.0675
 3600TIP3    H132435   4.037   3.588   8.857 -1.0127  0.8360  0.5822
 3600TIP3    H232436   4.053   3.729   8.912  2.2209 -0.5829  3.6564
 3601TIP3   OH232437   5.615   3.442   8.066 -0.3247  0.1042  0.6695
 3601TIP3    H132438   5.645   3.369   8.011 -1.2666  0.2799 -0.0937
 3601TIP3    H232439   5.561   3.401   8.133  0.4986 -0.0654  1.2510
 3602TIP3   OH232440   2.812   1.078   6.688 -0.7584 -0.5998 -0.0670
 3602TIP3    H132441   2.813   1.046   6.598 -1.0409  0.5974 -0.5200
 3602TIP3    H232442   2.751   1.020   6.734  0.3871 -2.0522 -0.2977
 3603TIP3   OH232443   6.356   5.745   8.128 -0.7624  0.2386  0.2808
 3603TIP3    H132444   6.346   5.664   8.179  2.1850  0.8538  2.0678
 3603TIP3    H232445   6.326   5.721   8.040 -2.7368 -1.8983  1.4023
 3604TIP3   OH232446   2.995   4.883   6.971  0.7058  0.6309 -0.1279
 3604TIP3    H132447   2.997   4.908   6.879  0.2940  0.8469 -0.0804
 3604TIP3    H232448   2.929   4.814   6.976 -0.6804  1.9258  0.3080
 3605TIP3   OH232449   2.583   6.501   8.482  0.6728 -0.2967  0.0872
 3605TIP3    H132450   2.538   6.467   8.405  0.8910  1.6214 -0.9548
 3605TIP3    H232451   2.673   6.515   8.454  0.2451  2.6855 -0.1743
 3606TIP3   OH232452   0.306   5.553   8.197 -0.5091 -0.1672  0.0686
 3606TIP3    H132453   0.351   5.591   8.122 -1.8030  1.0333 -0.1445
 3606TIP3    H232454   0.242   5.493   8.158 -2.1719  1.5208  0.0735
 3607TIP3   OH232455   6.519   3.456   8.819  0.6507  0.2340 -0.0420
 3607TIP3    H132456   6.610   3.463   8.848  0.8726 -0.6773 -0.4616
 3607TIP3    H232457   6.522   3.393   8.747 -0.3308  0.1081  0.0154
 3608TIP3   OH232458   5.206   3.559   7.037  0.4570  0.2613  0.2242
 3608TIP3    H132459   5.151   3.612   6.980  2.1937  0.1886 -1.6336
 3608TIP3    H232460   5.231   3.619   7.108 -0.2843  0.9250 -0.0595
 3609TIP3   OH232461   0.898   1.001   1.277 -0.2371 -0.0333 -0.0375
 3609TIP3    H132462   0.908   1.095   1.263 -0.3950 -0.2561 -1.9232
 3609TIP3    H232463   0.879   0.966   1.190  0.2836 -1.8761  0.5501
 3610TIP3   OH232464   4.169   2.371   0.435  0.5479 -0.6255 -0.2774
 3610TIP3    H132465   4.184   2.277   0.435 -1.5630 -1.0181 -0.4943
 3610TIP3    H232466   4.085   2.382   0.479  0.3922  1.0866 -0.9126
 3611TIP3   OH232467   1.255   5.505   2.098  0.1297 -0.1068  0.0612
 3611TIP3    H132468   1.171   5.541   2.128  0.4701  2.0360 -1.3258
 3611TIP3    H232469   1.316   5.524   2.169 -0.2083 -0.1491  0.3664
 3612TIP3   OH232470   1.017   4.302   0.839 -0.4170  0.2627  0.3523
 3612TIP3    H132471   1.014   4.392   0.804 -1.0141  0.2585  0.3741
 3612TIP3    H232472   0.987   4.247   0.766 -2.3132  0.3174  1.0331
 3613TIP3   OH232473   1.590   4.057   1.465 -0.1931  0.1722  0.6018
 3613TIP3    H132474   1.631   4.141   1.486  1.4512 -0.5223  0.2855
 3613TIP3    H232475   1.662   4.000   1.441 -1.4479 -0.8195 -1.0354
 3614TIP3   OH232476   3.777   4.983   8.033  0.1070  0.0999 -0.7204
 3614TIP3    H132477   3.763   4.903   7.982  1.7431 -1.0660  0.5528
 3614TIP3    H232478   3.845   5.030   7.984 -0.6488  0.5997 -1.3131
 3615TIP3   OH232479   1.401   5.547   0.341 -0.6410 -0.3136  0.2656
 3615TIP3    H132480   1.341   5.472   0.342 -0.4085 -0.5416 -1.0440
 3615TIP3    H232481   1.353   5.616   0.385 -1.8285 -0.5478 -0.6030
 3616TIP3   OH232482   0.996   5.706   2.042 -0.1831  0.3160  0.1616
 3616TIP3    H132483   1.080   5.751   2.051 -1.0019  1.9541 -0.1221
 3616TIP3    H232484   0.986   5.659   2.125  1.7939 -1.4009 -0.4640
 3617TIP3   OH232485   1.475   5.286   1.716  0.8768 -0.5362 -0.0420
 3617TIP3    H132486   1.408   5.222   1.693  0.3372  0.2694 -0.7694
 3617TIP3    H232487   1.531   5.292   1.638  1.7035 -1.0790  0.4972
 3618TIP3   OH232488   1.239   1.787   1.853  0.0341  0.5913  0.2786
 3618TIP3    H132489   1.289   1.849   1.801 -1.7526  1.7202 -0.1627
 3618TIP3    H232490   1.165   1.838   1.888  0.8361 -0.2012  3.5440
 3619TIP3   OH232491   5.738   3.678   8.853 -0.1436  0.0225 -0.2301
 3619TIP3    H132492   5.758   3.765   8.820 -0.7102 -0.4049 -1.7824
 3619TIP3    H232493   5.713   3.692   8.944 -1.1595  1.6040 -0.7104
 3620TIP3   OH232494   3.150   5.500   0.847 -0.1612 -0.2851 -0.7810
 3620TIP3    H132495   3.230   5.490   0.900  0.2386  2.9850 -0.5478
 3620TIP3    H232496   3.079   5.481   0.908  0.3801 -2.3293 -0.7350
 3621TIP3   OH232497   4.097   6.700   7.971  0.1583  0.0689 -0.8211
 3621TIP3    H132498   4.122   6.608   7.964  0.8905  0.1264  0.5666
 3621TIP3    H232499   4.054   6.707   8.056 -2.8925  0.3992 -2.2625
 3622TIP3   OH232500   2.169   5.411   0.032 -0.2799  0.3199  0.1015
 3622TIP3    H132501   2.113   5.344  -0.007 -0.3883 -0.7155  1.9075
 3622TIP3    H232502   2.219   5.446  -0.041 -0.1117 -1.8473 -0.8958
 3623TIP3   OH232503   5.360   3.766   1.506  0.1079  0.5598  0.0801
 3623TIP3    H132504   5.356   3.741   1.598  1.9640  1.7768  0.5480
 3623TIP3    H232505   5.403   3.692   1.463 -0.3389  0.1851  0.2751
 3624TIP3   OH232506   5.398   5.497   1.801  0.2685 -0.3621  0.1108
 3624TIP3    H132507   5.427   5.419   1.849 -0.1711  0.6073  2.0494
 3624TIP3    H232508   5.338   5.463   1.734  2.2397 -1.9378 -1.0062
 3625TIP3   OH232509   0.932   2.123   0.256  0.2084 -0.3366 -0.3229
 3625TIP3    H132510   0.996   2.142   0.187  0.3436  1.8401  0.3162
 3625TIP3    H232511   0.847   2.129   0.213  0.3018  0.8100 -0.3930
 3626TIP3   OH232512   1.701   3.003   6.822  0.1952  0.5869 -0.2752
 3626TIP3    H132513   1.739   2.921   6.792  0.2129  0.7945 -0.8549
 3626TIP3    H232514   1.629   3.020   6.761 -2.1819 -0.7993  1.9639
 3627TIP3   OH232515   0.868   3.044   1.950 -0.5257 -0.6545 -0.1130
 3627TIP3    H132516   0.836   2.955   1.966 -2.0944 -0.7288 -2.9203
 3627TIP3    H232517   0.963   3.036   1.954 -0.6620 -2.1831  0.8861
 3628TIP3   OH232518   2.348   3.661   8.352 -0.0640  0.3592 -0.5319
 3628TIP3    H132519   2.411   3.730   8.368  1.0552 -1.0512  1.6140
 3628TIP3    H232520   2.276   3.679   8.413 -1.0350  1.0564 -1.8324
 3629TIP3   OH232521   1.804   2.461   8.200  0.3441  0.8161 -0.9732
 3629TIP3    H132522   1.719   2.503   8.184 -0.4843  0.0955  1.2208
 3629TIP3    H232523   1.846   2.516   8.267  0.9002  0.2740 -0.8642
 3630TIP3   OH232524   3.158   0.672   6.960 -0.4496 -0.5473 -0.0567
 3630TIP3    H132525   3.168   0.636   6.872  0.1377  0.5054 -0.4410
 3630TIP3    H232526   3.077   0.724   6.955 -0.0621  0.0577 -0.1836
 3631TIP3   OH232527   0.457   4.692   1.330  0.0133 -0.0403 -0.1932
 3631TIP3    H132528   0.365   4.663   1.328 -0.0202  0.0835 -0.9710
 3631TIP3    H232529   0.489   4.665   1.416 -1.0305  0.7598  0.4798
 3632TIP3   OH232530   1.922   6.495   0.169 -0.4545 -0.9133 -0.3972
 3632TIP3    H132531   1.997   6.545   0.138 -1.2976  0.2380 -0.6568
 3632TIP3    H232532   1.945   6.470   0.259 -0.3663  0.7410  0.0721
 3633TIP3   OH232533   6.660   1.397   6.852  0.4775 -0.2908  0.4074
 3633TIP3    H132534   6.686   1.405   6.760 -1.2267 -0.5479 -0.1212
 3633TIP3    H232535   6.698   1.314   6.881 -0.9520 -1.4145 -0.7905
 3634TIP3   OH232536   4.770   3.545   7.173 -0.4303 -0.3402 -0.2178
 3634TIP3    H132537   4.683   3.581   7.158 -0.3320  0.0379  0.0721
 3634TIP3    H232538   4.819   3.565   7.093 -0.7782 -1.1029 -0.6320
 3635TIP3   OH232539   2.643   5.583   6.947  0.5020 -0.2834 -0.4762
 3635TIP3    H132540   2.737   5.596   6.935  0.4487 -0.4854 -1.1608
 3635TIP3    H232541   2.604   5.613   6.865  0.2441 -3.1872 -1.5510
 3636TIP3   OH232542   0.872   3.938   0.517 -0.3217  0.2213 -0.2612
 3636TIP3    H132543   0.930   3.908   0.587 -1.8229  2.0789  1.9472
 3636TIP3    H232544   0.802   3.873   0.514  0.3924 -0.5282 -0.9468
 3637TIP3   OH232545   3.800   3.591   8.213  0.0646 -0.6196  0.3743
 3637TIP3    H132546   3.750   3.613   8.291  0.1617 -1.7658  0.7748
 3637TIP3    H232547   3.734   3.562   8.150  0.2024 -2.6085  1.0662
 3638TIP3   OH232548   3.962   4.294   7.930 -0.3647 -0.1748  0.0170
 3638TIP3    H132549   4.040   4.261   7.885 -1.1004 -1.3672 -0.4448
 3638TIP3    H232550   3.969   4.259   8.019 -1.2753 -1.9156 -0.5435
 3639TIP3   OH232551   0.498   3.430   7.005 -0.2122 -0.2929  0.4474
 3639TIP3    H132552   0.547   3.386   6.935 -1.8123 -0.9995 -0.2739
 3639TIP3    H232553   0.488   3.520   6.974 -2.2786 -0.9722 -1.0551
 3640TIP3   OH232554   1.251   5.703   0.520  0.1245 -0.6941 -0.6873
 3640TIP3    H132555   1.232   5.656   0.601  2.9116  0.1196  0.5587
 3640TIP3    H232556   1.165   5.717   0.480 -1.6886  0.7860  3.1985
 3641TIP3   OH232557   0.562   4.060   8.109  0.1925  0.5268  0.1236
 3641TIP3    H132558   0.537   4.129   8.047  2.0489  1.3998  0.2870
 3641TIP3    H232559   0.563   4.104   8.194  1.3249  0.2952  0.2398
 3642TIP3   OH232560   1.363   4.973   0.885  0.1074  0.0273  0.7405
 3642TIP3    H132561   1.420   5.024   0.942 -0.9282  1.0815  0.8890
 3642TIP3    H232562   1.332   4.901   0.940  1.3941 -0.6645  0.6020
 3643TIP3   OH232563   5.685   4.592   7.995  0.3678 -0.6427 -0.1434
 3643TIP3    H132564   5.749   4.643   8.045 -1.3303  1.1394  0.3725
 3643TIP3    H232565   5.706   4.610   7.904 -0.0255  0.8586  0.0228
 3644TIP3   OH232566   2.082   2.727   1.350 -0.2601 -0.4597 -0.4858
 3644TIP3    H132567   2.082   2.753   1.257 -2.1501 -0.3835 -0.5084
 3644TIP3    H232568   2.002   2.677   1.360 -1.0055  1.0162  1.4937
 3645TIP3   OH232569   4.447   6.209   0.154 -0.3173  0.1774 -0.1869
 3645TIP3    H132570   4.427   6.280   0.093  2.3607 -1.2161 -2.9782
 3645TIP3    H232571   4.524   6.239   0.201  1.5869 -1.1819 -2.2540
 3646TIP3   OH232572   2.063   0.754   8.082  0.2870  0.3397 -0.1911
 3646TIP3    H132573   2.015   0.763   8.000 -2.6644  1.0890  1.4318
 3646TIP3    H232574   2.030   0.672   8.120  1.8291 -0.1569  0.1328
 3647TIP3   OH232575   1.846   4.938   7.757 -0.1679 -0.5486  0.0381
 3647TIP3    H132576   1.825   5.022   7.798 -0.1545 -0.8351  0.6492
 3647TIP3    H232577   1.801   4.873   7.812  0.0519 -0.9580 -0.2623
 3648TIP3   OH232578   3.342   3.020   0.295  0.3442 -0.0582 -0.4147
 3648TIP3    H132579   3.359   2.939   0.342 -1.3790 -1.2891 -1.8145
 3648TIP3    H232580   3.334   3.087   0.364  0.7143 -1.2528  0.8264
 3649TIP3   OH232581   5.408   6.451   0.069  0.4009  0.2984 -1.1921
 3649TIP3    H132582   5.393   6.478   0.160  0.6775  0.4709 -1.1973
 3649TIP3    H232583   5.475   6.383   0.075 -0.2302 -0.3471 -1.1867
 3650TIP3   OH232584   4.811   4.641   0.610 -0.0646 -0.2072  0.2832
 3650TIP3    H132585   4.830   4.555   0.648 -0.7873 -0.2784  0.5017
 3650TIP3    H232586   4.761   4.687   0.678  0.9125  0.6617  0.4493
 3651TIP3   OH232587   4.080   4.130   1.048 -0.0844  0.7562 -0.0477
 3651TIP3    H132588   4.007   4.164   0.996 -0.8945 -0.7088  0.0865
 3651TIP3    H232589   4.063   4.162   1.137 -0.6966  0.2451  0.0260
 3652TIP3   OH232590   1.032   2.789   8.046 -0.5510 -0.0606  0.7560
 3652TIP3    H132591   1.003   2.879   8.063 -0.1646  0.5626 -1.5512
 3652TIP3    H232592   0.972   2.735   8.096 -1.5188  1.4410  1.2983
 3653TIP3   OH232593   3.154   4.541   2.192 -0.0663 -0.3484  0.0816
 3653TIP3    H132594   3.141   4.615   2.252  0.2539 -0.9785  0.9464
 3653TIP3    H232595   3.069   4.499   2.186  0.2551 -1.2318  1.3884
 3654TIP3   OH232596   5.649   3.137   1.331 -0.4935 -0.8111  0.7486
 3654TIP3    H132597   5.599   3.072   1.381  1.5029 -3.5515 -0.5424
 3654TIP3    H232598   5.600   3.149   1.250 -1.7716  0.7372  1.6970
 3655TIP3   OH232599   0.881   1.117   7.523 -0.0479 -0.2110 -0.2217
 3655TIP3    H132600   0.887   1.022   7.519 -0.1560 -0.2104 -0.4705
 3655TIP3    H232601   0.858   1.143   7.433  0.5278  0.0919 -0.2855
 3656TIP3   OH232602   3.529   0.016   6.314  0.2924  0.2355  0.0746
 3656TIP3    H132603   3.532  -0.059   6.256 -2.9116 -1.3078  1.6385
 3656TIP3    H232604   3.487   0.085   6.261  0.5124 -0.0431 -0.4697
 3657TIP3   OH232605   2.554   4.770   6.625 -0.5319  0.7440 -0.1094
 3657TIP3    H132606   2.492   4.793   6.695 -0.6205 -0.2086  0.1448
 3657TIP3    H232607   2.540   4.677   6.611 -1.9032  1.2652 -2.7797
 3658TIP3   OH232608   2.372   0.213   7.455  0.3635  0.3802  0.6724
 3658TIP3    H132609   2.455   0.224   7.501  1.0907  1.1223 -0.7474
 3658TIP3    H232610   2.353   0.299   7.419 -0.1111 -0.1819 -0.4780
 3659TIP3   OH232611   2.441   4.623   1.096 -0.0962  0.3162 -0.0352
 3659TIP3    H132612   2.521   4.672   1.080 -0.2801  0.5724 -0.1854
 3659TIP3    H232613   2.460   4.568   1.172  0.6694 -0.6404 -0.9035
 3660TIP3   OH232614   1.731   1.005   1.421  0.3470 -0.1376 -0.2594
 3660TIP3    H132615   1.733   1.080   1.481  0.4587  0.2438 -0.7350
 3660TIP3    H232616   1.715   0.929   1.478  1.8504  0.0312  0.4369
 3661TIP3   OH232617   5.693   2.762   6.795 -0.0665  0.1690  0.1615
 3661TIP3    H132618   5.609   2.793   6.761  0.4088  1.2412 -0.0596
 3661TIP3    H232619   5.706   2.678   6.750 -0.1382  0.8711 -1.2497
 3662TIP3   OH232620   0.325   0.835   1.455  0.2360 -0.1835 -0.1114
 3662TIP3    H132621   0.394   0.816   1.519 -1.3940 -0.7798  1.5672
 3662TIP3    H232622   0.333   0.765   1.390  0.8281 -0.5949  0.3890
 3663TIP3   OH232623   0.430   6.151   8.394  0.4447  1.1618  0.3493
 3663TIP3    H132624   0.351   6.097   8.382  1.1658  0.1248  0.0929
 3663TIP3    H232625   0.447   6.148   8.488  0.0396  1.6063  0.4422
 3664TIP3   OH232626   2.483   0.114   0.163  0.3949  0.3408 -0.1047
 3664TIP3    H132627   2.480   0.192   0.217  2.6739  0.8252 -0.5470
 3664TIP3    H232628   2.504   0.146   0.075  1.1299 -0.7240 -0.3447
 3665TIP3   OH232629   6.515   5.128   2.456 -0.3477 -0.9807  0.0743
 3665TIP3    H132630   6.588   5.072   2.481 -1.1217 -1.9761  0.1551
 3665TIP3    H232631   6.451   5.069   2.417 -0.8370 -0.0243 -0.6144
 3666TIP3   OH232632   6.720   0.330   8.427 -0.3677 -0.2452  0.2891
 3666TIP3    H132633   6.657   0.395   8.394  1.2871  1.7834  0.8724
 3666TIP3    H232634   6.769   0.303   8.350 -1.9507 -1.8962 -0.1802
 3667TIP3   OH232635   5.585   3.514   6.342  0.0262 -0.2185  0.1624
 3667TIP3    H132636   5.501   3.541   6.305  0.9416  0.7027 -1.3721
 3667TIP3    H232637   5.564   3.439   6.398 -1.7275 -0.3987 -0.6773
 3668TIP3   OH232638   0.209   1.489   7.546  0.0339 -0.9449  0.7346
 3668TIP3    H132639   0.295   1.508   7.510  1.7327 -2.8585  3.3433
 3668TIP3    H232640   0.193   1.559   7.610 -2.3325  1.6591 -2.3747
 3669TIP3   OH232641   0.463   5.654   1.846  0.3817 -0.5291  0.0392
 3669TIP3    H132642   0.546   5.646   1.893  0.4010  1.3118  0.3766
 3669TIP3    H232643   0.488   5.654   1.753  0.4870 -2.4879  0.0166
 3670TIP3   OH232644   0.523   0.450   8.167 -0.4833  0.0521 -0.6810
 3670TIP3    H132645   0.442   0.492   8.135  0.1807  0.1649 -2.3422
 3670TIP3    H232646   0.592   0.512   8.144  0.3831 -1.3526 -2.0392
 3671TIP3   OH232647   4.069   3.314   7.269 -0.3043 -0.0138 -0.2611
 3671TIP3    H132648   3.974   3.303   7.261 -0.5345 -1.2401  2.7787
 3671TIP3    H232649   4.098   3.236   7.318  2.2555  0.4497 -0.8923
 3672TIP3   OH232650   3.432   0.169   0.947 -0.3978 -0.2107 -0.2822
 3672TIP3    H132651   3.368   0.218   0.895 -1.3483  2.1667  2.8160
 3672TIP3    H232652   3.406   0.184   1.038  2.3275 -2.4001  1.0203
 3673TIP3   OH232653   1.307   5.421   1.316 -0.3745 -0.0419  0.1276
 3673TIP3    H132654   1.223   5.421   1.362 -0.5952 -2.1017 -0.2040
 3673TIP3    H232655   1.368   5.461   1.379 -1.1391 -0.6277  1.2802
 3674TIP3   OH232656   4.956   1.621   8.589  0.4982 -0.0782  0.1099
 3674TIP3    H132657   4.979   1.678   8.516 -1.3744  0.2535 -0.2839
 3674TIP3    H232658   4.991   1.665   8.666 -1.6235  2.1464 -0.0724
 3675TIP3   OH232659   5.453   2.757   8.085  0.1406  0.4858 -0.0051
 3675TIP3    H132660   5.531   2.714   8.119 -0.1964 -0.3656 -0.2674
 3675TIP3    H232661   5.424   2.814   8.156 -0.2299 -0.8274  0.9393
 3676TIP3   OH232662   1.136   6.548   7.323  0.9733 -0.1342  0.2832
 3676TIP3    H132663   1.139   6.540   7.228  0.4422 -1.8460  0.3741
 3676TIP3    H232664   1.064   6.609   7.339  0.3254 -0.6893 -0.4056
 3677TIP3   OH232665   4.344   0.601   1.647 -0.1350  0.0377  0.3461
 3677TIP3    H132666   4.429   0.620   1.607 -0.5609 -1.5043 -1.4341
 3677TIP3    H232667   4.309   0.686   1.672  0.8477  0.9436 -1.2455
 3678TIP3   OH232668   1.288   6.393   6.647 -0.4641  0.2513  0.2956
 3678TIP3    H132669   1.292   6.487   6.627 -0.4531 -0.0334 -1.1837
 3678TIP3    H232670   1.284   6.351   6.561 -0.5675 -1.1059  0.9418
 3679TIP3   OH232671   2.522   4.273   7.239  0.2201 -0.1622 -0.5995
 3679TIP3    H132672   2.532   4.293   7.146 -0.2125 -0.1776 -0.6515
 3679TIP3    H232673   2.610   4.279   7.274  0.0941  2.3570 -0.5011
 3680TIP3   OH232674   4.027   3.842   1.985 -0.0996 -0.2049  0.6745
 3680TIP3    H132675   4.051   3.849   2.078  0.1358 -0.1656  0.6136
 3680TIP3    H232676   4.094   3.785   1.947  1.2263  1.6589  0.0509
 3681TIP3   OH232677   4.187   2.888   7.244 -0.4426 -0.6736  0.7230
 3681TIP3    H132678   4.184   2.837   7.163 -1.2327 -0.8497  0.8472
 3681TIP3    H232679   4.134   2.966   7.226 -1.2024 -1.0417  1.2661
 3682TIP3   OH232680   1.222   5.669   0.186 -0.3455  0.1512  0.5762
 3682TIP3    H132681   1.216   5.760   0.216 -0.3529  0.3735 -0.0888
 3682TIP3    H232682   1.313   5.645   0.201 -0.5235  0.0072  1.4812
 3683TIP3   OH232683   6.422   4.464   0.618 -0.0139  0.6035  0.3950
 3683TIP3    H132684   6.410   4.469   0.524  0.7407  0.1968  0.2718
 3683TIP3    H232685   6.514   4.488   0.632  0.2345 -0.6031  0.9090
 3684TIP3   OH232686   5.224   2.600   0.060  0.5736  0.2204 -0.0271
 3684TIP3    H132687   5.223   2.679   0.007 -0.7562 -0.3806 -0.9533
 3684TIP3    H232688   5.259   2.532   0.003 -1.1806 -0.5062 -0.3062
 3685TIP3   OH232689   1.402   0.932   1.456  0.4815  0.4184 -0.3327
 3685TIP3    H132690   1.378   1.014   1.499  0.3156  0.7559 -1.0566
 3685TIP3    H232691   1.477   0.899   1.507 -0.1326  0.4603  0.6150
 3686TIP3   OH232692   3.212   4.982   1.953  0.0350 -0.3080 -0.1468
 3686TIP3    H132693   3.204   5.077   1.950  2.1987 -0.0952 -1.2241
 3686TIP3    H232694   3.216   4.961   2.046  1.5448  0.8992  0.0916
 3687TIP3   OH232695   3.238   4.453   1.182  0.4812  0.4601 -0.0009
 3687TIP3    H132696   3.308   4.394   1.155  0.4729  0.8211 -0.8650
 3687TIP3    H232697   3.255   4.470   1.274  0.9860 -0.1987  0.0328
 3688TIP3   OH232698   6.621   1.090   0.991  0.7552 -0.0658 -0.7810
 3688TIP3    H132699   6.558   1.149   0.948 -1.3595 -3.1215 -2.2523
 3688TIP3    H232700   6.594   1.003   0.963  3.8722 -1.7671  1.0516
 3689TIP3   OH232701   2.004   5.821   8.454 -0.3792  0.2552 -0.3095
 3689TIP3    H132702   1.998   5.744   8.510 -2.2173  0.0955 -0.6839
 3689TIP3    H232703   2.058   5.883   8.504 -0.6574 -0.4793  0.9291
 3690TIP3   OH232704   2.549   2.899   7.534 -0.2054 -0.2836  0.2308
 3690TIP3    H132705   2.613   2.838   7.572 -1.4689 -1.4102  0.6398
 3690TIP3    H232706   2.545   2.874   7.442  1.7922  1.4936 -0.4005
 3691TIP3   OH232707   3.271   2.062   7.869 -1.1654  0.1338  0.1908
 3691TIP3    H132708   3.355   2.075   7.914  0.1668 -2.0765 -1.4352
 3691TIP3    H232709   3.225   1.997   7.922 -0.2387 -1.3566 -0.7752
 3692TIP3   OH232710   2.461   3.974   8.712  0.9963  0.4943 -0.0779
 3692TIP3    H132711   2.405   3.897   8.704  0.9228  0.7219 -2.4605
 3692TIP3    H232712   2.479   3.981   8.806 -1.7669 -0.4146  0.6156
 3693TIP3   OH232713   3.350   0.232   8.653 -0.4625  0.4622  0.2103
 3693TIP3    H132714   3.380   0.243   8.563  0.6712 -0.3550  0.4715
 3693TIP3    H232715   3.330   0.139   8.660  2.1341 -0.0953  1.5552
 3694TIP3   OH232716   5.331   3.486   8.242  0.2101 -0.2788 -0.3121
 3694TIP3    H132717   5.264   3.513   8.305  0.6308  0.4028 -0.1424
 3694TIP3    H232718   5.388   3.427   8.290  0.8182  0.6280  0.1110
 3695TIP3   OH232719   5.965   1.601   7.713 -0.1480  0.1715  0.2787
 3695TIP3    H132720   5.987   1.684   7.754 -0.1919 -0.2562  1.2065
 3695TIP3    H232721   5.929   1.548   7.785 -0.1540 -0.6257 -0.3004
 3696TIP3   OH232722   5.439   4.343   8.169  0.1086 -0.1642  0.2006
 3696TIP3    H132723   5.364   4.294   8.135  0.5260  0.3408 -1.5578
 3696TIP3    H232724   5.515   4.289   8.147  0.2914 -0.6645  1.9519
 3697TIP3   OH232725   0.964   0.941   0.669 -0.4741  0.3251  0.1185
 3697TIP3    H132726   0.995   0.972   0.585 -0.4440 -1.3129 -0.5213
 3697TIP3    H232727   1.042   0.908   0.713 -0.7320 -0.4128  0.0426
 3698TIP3   OH232728   2.208   2.660   6.772 -0.1193  0.2422  0.6323
 3698TIP3    H132729   2.162   2.576   6.771 -0.9087  0.6480 -1.0075
 3698TIP3    H232730   2.151   2.718   6.824 -1.0079  0.4736 -0.5520
 3699TIP3   OH232731   0.085   4.110   8.190  0.3174 -0.5288  0.1475
 3699TIP3    H132732   0.077   4.029   8.241  1.6501 -1.1778 -0.6295
 3699TIP3    H232733   0.076   4.180   8.255 -1.9377 -1.2249  0.6942
 3700TIP3   OH232734   5.812   6.280   2.183  0.5259  0.4417  0.5939
 3700TIP3    H132735   5.804   6.272   2.088  2.7990  1.7876  0.2229
 3700TIP3    H232736   5.723   6.268   2.216 -0.3743  0.3478 -1.7154
 3701TIP3   OH232737   2.103   0.511   1.290  0.2009 -0.4988  0.5532
 3701TIP3    H132738   2.183   0.558   1.314 -0.5140  0.3082  1.3871
 3701TIP3    H232739   2.076   0.551   1.207 -0.4609  0.6440  1.3115
 3702TIP3   OH232740   3.645   2.681   1.802 -0.1265  0.4615 -1.2039
 3702TIP3    H132741   3.638   2.614   1.734 -2.6525 -0.8820  0.2227
 3702TIP3    H232742   3.558   2.723   1.802  0.7185  2.3077 -0.6058
 3703TIP3   OH232743   0.721   1.545   6.635 -0.1180 -0.1892  0.6784
 3703TIP3    H132744   0.733   1.640   6.641 -0.4317  0.0401 -1.5639
 3703TIP3    H232745   0.635   1.530   6.676  0.2222  0.3630  1.6494
 3704TIP3   OH232746   0.546   6.424   8.363  0.3658  0.1039  0.1127
 3704TIP3    H132747   0.505   6.345   8.397  0.6702 -0.4836 -0.8595
 3704TIP3    H232748   0.542   6.414   8.268 -0.8070  1.8719 -0.0846
 3705TIP3   OH232749   0.028   0.511   0.500 -0.0204  0.8734  0.4738
 3705TIP3    H132750  -0.029   0.459   0.443  0.0389  1.4825 -0.1682
 3705TIP3    H232751   0.000   0.601   0.485  1.1181  1.1878  0.1267
 3706TIP3   OH232752   5.855   6.021   0.831  0.7477 -0.2397  0.0166
 3706TIP3    H132753   5.784   6.014   0.768 -1.4615 -1.0557  2.4245
 3706TIP3    H232754   5.919   5.956   0.802  0.3518  0.1596 -1.9201
 3707TIP3   OH232755   5.821   1.265   1.555 -0.0897 -0.1733 -0.0572
 3707TIP3    H132756   5.828   1.357   1.579 -0.0769 -0.3957  0.8420
 3707TIP3    H232757   5.727   1.249   1.548 -0.1477 -0.3608  0.9532
 3708TIP3   OH232758   0.956   0.668   8.455 -0.2650  0.4496  0.2873
 3708TIP3    H132759   1.006   0.714   8.521 -0.1958  0.2440  0.3783
 3708TIP3    H232760   1.002   0.686   8.373  0.8201 -0.9263  0.5530
 3709TIP3   OH232761   3.794   0.429   6.632  0.1519  0.1553  0.5061
 3709TIP3    H132762   3.828   0.392   6.550  0.8317 -0.0067  0.8522
 3709TIP3    H232763   3.767   0.517   6.610 -0.3059 -0.1197 -0.0498
 3710TIP3   OH232764   0.329   2.283   1.880  0.1501 -0.2877  0.0516
 3710TIP3    H132765   0.288   2.364   1.911  1.6196  0.5951 -0.1739
 3710TIP3    H232766   0.405   2.313   1.829 -0.5511 -1.7477 -2.0058
 3711TIP3   OH232767   3.802   3.595   0.080 -0.1443  0.5610  0.2388
 3711TIP3    H132768   3.859   3.662   0.119  0.3916 -0.1228  0.6439
 3711TIP3    H232769   3.738   3.575   0.148  0.2594 -0.0003  0.4607
 3712TIP3   OH232770   3.386   0.484   8.251  0.1652  0.1259  0.2983
 3712TIP3    H132771   3.358   0.416   8.189 -1.4647 -0.1941  1.3157
 3712TIP3    H232772   3.433   0.436   8.319  3.2760  0.6425 -1.3149
 3713TIP3   OH232773   6.184   5.647   6.857  0.1309 -0.0909  0.4820
 3713TIP3    H132774   6.232   5.609   6.784 -0.1358  2.0094 -0.8676
 3713TIP3    H232775   6.198   5.742   6.849 -1.3495  0.3255  2.1198
 3714TIP3   OH232776   1.786   1.718   8.704 -0.0580 -0.0280  0.0938
 3714TIP3    H132777   1.748   1.802   8.680 -0.5877  0.0223  1.0555
 3714TIP3    H232778   1.711   1.662   8.723  0.2637 -0.9614 -1.2662
 3715TIP3   OH232779   1.601   2.865   7.139  0.0277  0.3564  0.3003
 3715TIP3    H132780   1.508   2.869   7.116  0.5081 -0.9422 -2.2744
 3715TIP3    H232781   1.624   2.955   7.161 -1.2689  1.2633 -1.7108
 3716TIP3   OH232782   3.942   6.338   7.587 -0.5598 -0.4311  0.2860
 3716TIP3    H132783   3.976   6.402   7.649 -0.8075 -1.1379  1.1639
 3716TIP3    H232784   4.012   6.326   7.523 -0.7668  1.2185 -0.2969
 3717TIP3   OH232785   4.429   1.252   6.765 -0.2849 -0.4288  0.2303
 3717TIP3    H132786   4.430   1.224   6.674 -2.7285  0.6569 -0.2097
 3717TIP3    H232787   4.362   1.320   6.769 -0.1679 -0.3425  2.8148
 3718TIP3   OH232788   1.903   5.708   7.122 -0.5552  0.3273 -0.3097
 3718TIP3    H132789   1.850   5.641   7.079 -0.0732 -0.6480  0.5960
 3718TIP3    H232790   1.899   5.783   7.062 -2.2918  0.0143 -0.6426
 3719TIP3   OH232791   5.146   3.810   0.595  0.1000 -0.1685  0.0771
 3719TIP3    H132792   5.236   3.839   0.610 -0.1532  1.3427 -1.0321
 3719TIP3    H232793   5.153   3.717   0.573  1.5183  0.1537 -0.9661
 3720TIP3   OH232794   2.824   5.820   8.197 -0.0362 -0.1889 -0.0590
 3720TIP3    H132795   2.850   5.825   8.289  1.2781 -0.8969 -0.3730
 3720TIP3    H232796   2.856   5.901   8.158  0.3339 -0.3550 -0.1069
 3721TIP3   OH232797   5.004   1.688   1.254  0.3862 -0.1660 -0.1817
 3721TIP3    H132798   5.004   1.718   1.163  0.4613  0.4133  0.0026
 3721TIP3    H232799   4.956   1.606   1.252 -0.9025  0.5686 -0.5103
 3722TIP3   OH232800   2.923   1.628   2.157  0.0519  0.7658 -0.1389
 3722TIP3    H132801   2.990   1.658   2.219 -0.2266  0.4217  0.3320
 3722TIP3    H232802   2.959   1.649   2.071  1.8670 -1.5101 -0.0495
 3723TIP3   OH232803   1.208   6.705   7.794 -0.0619  0.5415  0.8885
 3723TIP3    H132804   1.192   6.726   7.886 -0.4144  0.2099  0.9051
 3723TIP3    H232805   1.128   6.662   7.764 -0.6723  2.2359 -0.0858
 3724TIP3   OH232806   1.768   5.414   8.025  0.0139 -0.4703  0.1301
 3724TIP3    H132807   1.805   5.465   8.097  2.4419 -1.2711 -0.4821
 3724TIP3    H232808   1.673   5.417   8.040  0.3042  1.3077  2.0249
 3725TIP3   OH232809   1.963   4.867   8.407  0.3935  0.4890 -0.5681
 3725TIP3    H132810   1.905   4.798   8.441  0.6179  0.0531 -1.0615
 3725TIP3    H232811   1.931   4.883   8.318 -0.7139  2.2055  0.1009
 3726TIP3   OH232812   3.204   5.756   0.368 -0.4153  0.7354 -0.5251
 3726TIP3    H132813   3.237   5.846   0.370  1.0354  0.3754 -3.3263
 3726TIP3    H232814   3.134   5.758   0.303 -1.0506  0.0078  0.1144
 3727TIP3   OH232815   2.147   1.448   0.252  0.2593 -0.4730  0.2319
 3727TIP3    H132816   2.081   1.393   0.209 -0.2670  0.3921 -0.0919
 3727TIP3    H232817   2.153   1.412   0.341  0.0232 -1.1311 -0.0117
 3728TIP3   OH232818   3.970   2.460   8.844  0.7383  0.0966  0.0045
 3728TIP3    H132819   3.915   2.396   8.889  0.4986  1.1969  1.3389
 3728TIP3    H232820   4.036   2.407   8.799 -0.8144 -1.1929 -0.8690
 3729TIP3   OH232821   2.540   1.855   2.141 -0.3219  0.7257  0.0341
 3729TIP3    H132822   2.451   1.829   2.165 -0.2848 -0.5072 -1.1070
 3729TIP3    H232823   2.596   1.788   2.178 -0.0967  0.0038 -1.5370
 3730TIP3   OH232824   4.196   1.952   1.917  0.4664  0.3600 -0.0832
 3730TIP3    H132825   4.181   2.026   1.976  3.8900  1.8233 -0.7670
 3730TIP3    H232826   4.288   1.927   1.933  0.4083 -1.6014 -2.2106
 3731TIP3   OH232827   0.385   4.551   8.646  0.4643  0.2326  0.2811
 3731TIP3    H132828   0.389   4.546   8.742 -0.9770  0.0809  0.3589
 3731TIP3    H232829   0.442   4.480   8.616 -1.1054 -1.4540  1.0807
 3732TIP3   OH232830   0.240   3.673   8.521  0.1914 -0.3015 -0.1363
 3732TIP3    H132831   0.314   3.733   8.536  0.7842 -0.9167 -0.4980
 3732TIP3    H232832   0.199   3.663   8.606  0.5188  0.0687  0.0691
 3733TIP3   OH232833   2.117   4.631   7.352  0.2065 -0.2455  0.3028
 3733TIP3    H132834   2.034   4.609   7.308 -0.3279 -0.9761  1.6203
 3733TIP3    H232835   2.091   4.690   7.423  0.9448  0.2397  0.1799
 3734TIP3   OH232836   6.123   4.601   8.604 -0.3882 -0.4811  0.2343
 3734TIP3    H132837   6.046   4.657   8.611 -1.4464 -1.7956 -0.4360
 3734TIP3    H232838   6.092   4.514   8.628  0.9141 -1.0320  0.0287
 3735TIP3   OH232839   6.569   4.487   0.146 -0.1926 -0.0367  0.4404
 3735TIP3    H132840   6.569   4.576   0.111 -0.6122 -0.5472 -0.9024
 3735TIP3    H232841   6.598   4.432   0.074 -0.5526 -1.0734  1.0577
 3736TIP3   OH232842   4.991   4.828   7.544  0.0303  0.1374 -0.6575
 3736TIP3    H132843   5.079   4.855   7.570 -0.0907  0.5456 -0.6632
 3736TIP3    H232844   5.002   4.739   7.509  0.3695  0.0252 -0.2683
 3737TIP3   OH232845   5.430   3.628   0.771 -0.3169  0.3590  0.5059
 3737TIP3    H132846   5.477   3.647   0.853  1.4332 -0.9155 -0.1320
 3737TIP3    H232847   5.417   3.533   0.773 -1.5142  0.5052 -0.0695
 3738TIP3   OH232848   6.658   3.289   8.008 -0.5271  0.1006 -0.7656
 3738TIP3    H132849   6.690   3.344   8.080 -1.0834  0.2518 -0.6289
 3738TIP3    H232850   6.624   3.211   8.052 -1.0437  0.2764 -0.8482
 3739TIP3   OH232851   1.298   3.800   6.895 -0.2978  0.0931 -0.3786
 3739TIP3    H132852   1.228   3.815   6.832 -0.5550 -1.1239 -0.4097
 3739TIP3    H232853   1.344   3.884   6.901 -1.8769  0.9741 -0.1994
 3740TIP3   OH232854   0.757   2.770   7.585 -0.5805  0.2709 -0.0210
 3740TIP3    H132855   0.693   2.714   7.540 -0.7141  0.1834  0.2687
 3740TIP3    H232856   0.806   2.813   7.515  1.1170 -1.9626 -0.3298
 3741TIP3   OH232857   3.059   0.831   1.381  0.2250 -0.1291  0.1054
 3741TIP3    H132858   3.087   0.767   1.316  0.7896 -1.2008  1.3622
 3741TIP3    H232859   3.058   0.783   1.464 -0.3743  1.2177  0.9234
 3742TIP3   OH232860   1.950   3.170   7.147  0.4207 -0.3515 -0.2762
 3742TIP3    H132861   2.035   3.212   7.157  0.0571  0.6512 -1.0835
 3742TIP3    H232862   1.964   3.104   7.079  0.6941 -0.6304  0.0478
 3743TIP3   OH232863   3.395   2.265   6.502  0.0014 -0.5360  0.0223
 3743TIP3    H132864   3.335   2.339   6.505 -0.7525 -1.0980 -0.5402
 3743TIP3    H232865   3.339   2.191   6.478  0.5964 -1.4253  1.2702
 3744TIP3   OH232866   2.547   5.271   0.850 -0.4438 -0.1894 -0.3237
 3744TIP3    H132867   2.567   5.332   0.922  1.0247 -1.0220 -0.0015
 3744TIP3    H232868   2.614   5.288   0.785  1.1811 -2.6868  0.5528
 3745TIP3   OH232869   5.415   5.971   8.712  0.3908  0.2699  0.0951
 3745TIP3    H132870   5.413   6.030   8.788 -0.1283 -0.7366  0.8852
 3745TIP3    H232871   5.335   5.919   8.721  1.5951 -1.6540  0.3189
 3746TIP3   OH232872   5.191   3.539   0.492  0.2757 -0.5271 -0.2690
 3746TIP3    H132873   5.096   3.532   0.479  0.4115 -0.1249 -1.5753
 3746TIP3    H232874   5.217   3.454   0.527 -0.1366 -1.7784 -2.7740
 3747TIP3   OH232875   5.579   6.105   1.464  0.0299 -0.7715 -0.4769
 3747TIP3    H132876   5.651   6.051   1.434  1.1329  0.7888 -0.7904
 3747TIP3    H232877   5.566   6.079   1.555 -1.3325 -3.4267 -1.3462
 3748TIP3   OH232878   3.884   0.325   6.385 -0.1088  0.5659  0.2090
 3748TIP3    H132879   3.866   0.239   6.347 -0.4728  0.9558 -0.5026
 3748TIP3    H232880   3.968   0.313   6.430  0.5297  0.1964 -1.0379
 3749TIP3   OH232881   5.266   0.732   7.474 -0.4888 -0.4730  0.6282
 3749TIP3    H132882   5.179   0.750   7.439 -1.4166 -1.1840  2.4312
 3749TIP3    H232883   5.268   0.637   7.485  1.0911 -0.6443 -0.7165
 3750TIP3   OH232884   4.642   4.344   8.352 -0.4161 -0.4260  0.2964
 3750TIP3    H132885   4.719   4.386   8.313 -1.3144  3.2066  2.0004
 3750TIP3    H232886   4.583   4.329   8.278  1.1555 -1.7441 -0.7935
 3751TIP3   OH232887   0.519   4.821   8.839  0.3383  0.0571 -0.2399
 3751TIP3    H132888   0.436   4.782   8.865  0.8831 -0.1927  1.2287
 3751TIP3    H232889   0.498   4.912   8.820 -0.4962 -0.3254 -1.2391
 3752TIP3   OH232890   5.744   4.491   7.342  0.2694  0.2166 -0.2985
 3752TIP3    H132891   5.667   4.469   7.288 -0.2252  1.8612 -0.3190
 3752TIP3    H232892   5.818   4.451   7.295 -0.4840 -0.8852 -0.5984
 3753TIP3   OH232893   0.599   5.314   6.467  0.2978  0.0507 -0.9065
 3753TIP3    H132894   0.587   5.223   6.440  0.5911 -0.6828  1.2504
 3753TIP3    H232895   0.518   5.358   6.440 -1.6680 -1.7987  1.5245
 3754TIP3   OH232896   5.114   1.085   1.178  0.1617 -0.6720  0.7650
 3754TIP3    H132897   5.099   1.127   1.262 -0.3807  0.9091 -0.0810
 3754TIP3    H232898   5.038   1.108   1.125  1.1213 -0.4709 -0.5960
 3755TIP3   OH232899   5.941   5.619   0.743 -0.0887 -0.0159 -0.1380
 3755TIP3    H132900   5.851   5.599   0.719  0.0670 -0.5072 -0.3202
 3755TIP3    H232901   5.968   5.545   0.799 -0.2614  0.8182  1.0942
 3756TIP3   OH232902   1.086   2.547   7.869  0.0968  0.6998  0.6537
 3756TIP3    H132903   0.991   2.564   7.875  0.3762  2.2449  1.2096
 3756TIP3    H232904   1.126   2.628   7.900  1.6253  0.3697 -0.3877
 3757TIP3   OH232905   2.011   4.137   7.500  0.0618  0.2502 -0.0965
 3757TIP3    H132906   2.023   4.064   7.560 -1.2187 -0.0166 -0.1465
 3757TIP3    H232907   2.100   4.161   7.474  0.6025 -0.0467  1.3795
 3758TIP3   OH232908   0.970   0.314   2.223  0.2909 -0.0819  0.2527
 3758TIP3    H132909   0.877   0.332   2.236  0.7679  1.1490  2.4331
 3758TIP3    H232910   1.003   0.390   2.174  0.1378 -0.6546 -0.7790
 3759TIP3   OH232911   6.195   0.484   1.805 -0.0010  0.1282  0.0301
 3759TIP3    H132912   6.279   0.452   1.837  0.6296  1.3912 -0.2790
 3759TIP3    H232913   6.218   0.535   1.727 -0.9765  1.0075  0.3027
 3760TIP3   OH232914   6.563   6.407   0.120  0.4027  0.6247 -0.3288
 3760TIP3    H132915   6.538   6.493   0.155 -0.3465 -0.0609  0.8850
 3760TIP3    H232916   6.484   6.354   0.130  0.1341  0.3530 -3.1125
 3761TIP3   OH232917   5.970   3.756   1.085  0.0630  0.3593 -0.2772
 3761TIP3    H132918   5.977   3.680   1.029  1.3271 -1.7475  2.4966
 3761TIP3    H232919   6.059   3.771   1.117 -0.7266  0.8213  1.8734
 3762TIP3   OH232920   6.389   5.678   7.399  0.3958  0.5494 -0.1030
 3762TIP3    H132921   6.458   5.719   7.450 -1.1570  1.8061  1.0851
 3762TIP3    H232922   6.421   5.589   7.382  1.6140  0.5881  1.7547
 3763TIP3   OH232923   6.133   3.473   7.459  0.2268 -0.1733 -0.0767
 3763TIP3    H132924   6.074   3.435   7.394  1.9404  0.5843 -2.2078
 3763TIP3    H232925   6.188   3.401   7.488  0.6315 -0.2081 -0.8805
 3764TIP3   OH232926   4.416   6.559   8.065  0.1913 -0.0381 -0.1436
 3764TIP3    H132927   4.383   6.637   8.021 -0.1015 -0.0990 -0.0351
 3764TIP3    H232928   4.494   6.589   8.112 -0.2091  0.3121  0.3221
 3765TIP3   OH232929   5.282   6.430   8.736 -0.6299 -0.3404  0.2342
 3765TIP3    H132930   5.224   6.499   8.769 -0.8129 -0.1907 -0.3829
 3765TIP3    H232931   5.365   6.445   8.782 -0.5029  0.6319 -0.2869
 3766TIP3   OH232932   0.933   5.438   7.493 -0.3772 -0.2864 -0.4261
 3766TIP3    H132933   0.996   5.373   7.524 -0.4708  0.3560  1.2179
 3766TIP3    H232934   0.961   5.520   7.533 -0.6046  0.5960 -2.0030
 3767TIP3   OH232935   2.725   3.257   0.168  0.2018 -0.2509 -0.2646
 3767TIP3    H132936   2.755   3.290   0.253 -1.1282 -1.4302  0.7009
 3767TIP3    H232937   2.630   3.249   0.177 -0.1136  0.5312 -2.2150
 3768TIP3   OH232938   4.171   2.867   8.373  0.1692 -0.1906 -0.2798
 3768TIP3    H132939   4.117   2.903   8.443  0.5692  1.1124 -0.6026
 3768TIP3    H232940   4.153   2.773   8.374  1.4433 -0.5051  2.6970
 3769TIP3   OH232941   0.078   1.700   2.387  0.2332 -0.0156 -0.0773
 3769TIP3    H132942  -0.002   1.648   2.398  0.7953 -0.6645  1.1619
 3769TIP3    H232943   0.080   1.756   2.465 -0.1300  1.5934 -1.1687
 3770TIP3   OH232944   0.911   3.041   7.654  0.0444  0.5623  0.0461
 3770TIP3    H132945   0.841   3.026   7.718 -0.2276 -0.5548 -0.4872
 3770TIP3    H232946   0.979   3.086   7.704 -0.3359  0.0979  1.0199
 3771TIP3   OH232947   2.510   0.813   7.081  0.0606 -0.0405 -0.0235
 3771TIP3    H132948   2.542   0.725   7.103  2.9533  1.0525  0.5177
 3771TIP3    H232949   2.485   0.851   7.165 -0.5285 -0.0702 -0.1783
 3772TIP3   OH232950   4.707   6.773   1.110 -0.6523 -0.0658 -0.0490
 3772TIP3    H132951   4.798   6.799   1.095 -0.7708  0.7652  0.5928
 3772TIP3    H232952   4.710   6.719   1.190 -0.8997  1.2192  0.8580
 3773TIP3   OH232953   2.258   6.209   1.495  0.7437 -0.0812 -0.5319
 3773TIP3    H132954   2.310   6.227   1.573  0.9376 -1.9160 -0.2030
 3773TIP3    H232955   2.290   6.271   1.430  2.6485 -0.4838 -0.0243
 3774TIP3   OH232956   5.784   6.555   0.700 -0.2897 -0.1033  0.0666
 3774TIP3    H132957   5.813   6.608   0.626  0.5937 -0.7408 -0.0484
 3774TIP3    H232958   5.819   6.468   0.683 -0.5112 -0.3814  0.9825
 3775TIP3   OH232959   1.600   5.997   1.858 -0.1512 -0.2378  0.1341
 3775TIP3    H132960   1.557   5.988   1.773  0.4695  2.6762 -0.5799
 3775TIP3    H232961   1.617   5.907   1.885  0.2649 -1.2970 -3.1574
 3776TIP3   OH232962   1.265   0.436   1.584  0.6956 -0.2917 -0.4466
 3776TIP3    H132963   1.316   0.486   1.648 -0.9679 -1.6068  2.0778
 3776TIP3    H232964   1.331   0.401   1.523  2.2172  2.0267 -0.2569
 3777TIP3   OH232965   2.921   2.701   0.702  0.3937  0.0220  0.0115
 3777TIP3    H132966   3.003   2.680   0.657 -0.6010  0.4495 -2.1275
 3777TIP3    H232967   2.884   2.774   0.652 -1.9911 -1.0880  0.0074
 3778TIP3   OH232968   4.196   4.241   8.293  0.0599  0.1508 -0.1788
 3778TIP3    H132969   4.258   4.227   8.365  0.6068  0.1593 -0.6470
 3778TIP3    H232970   4.242   4.210   8.215 -0.1198  1.1246 -0.6904
 3779TIP3   OH232971   3.928   0.652   1.891  0.2295 -0.1643  0.0318
 3779TIP3    H132972   3.984   0.614   1.959 -0.7279 -1.5863  0.0767
 3779TIP3    H232973   3.855   0.690   1.940 -0.8261 -1.8203 -0.1878
 3780TIP3   OH232974   6.582   0.787   8.612 -0.3002 -0.5931 -0.1685
 3780TIP3    H132975   6.678   0.791   8.610 -0.3372  0.2288 -0.3947
 3780TIP3    H232976   6.556   0.811   8.523 -0.7687  0.6627  0.2987
 3781TIP3   OH232977   2.864   6.015   0.876  0.0574 -0.3860  0.0034
 3781TIP3    H132978   2.800   6.076   0.839 -0.2966 -0.9345 -0.3170
 3781TIP3    H232979   2.887   6.053   0.961 -0.8581 -0.2711  0.2214
 3782TIP3   OH232980   2.486   5.062   1.392  0.0132 -0.4034 -0.6755
 3782TIP3    H132981   2.493   5.071   1.297 -2.6895 -0.3745 -0.9397
 3782TIP3    H232982   2.480   5.151   1.424  0.0489 -0.4429 -0.5594
 3783TIP3   OH232983   0.984   0.271   7.757  0.1280  0.1502 -0.3980
 3783TIP3    H132984   1.043   0.230   7.693 -0.1603 -0.2083 -0.4398
 3783TIP3    H232985   0.898   0.272   7.713  0.3051  1.6267 -0.7532
 3784TIP3   OH232986   6.695   3.905   0.995 -0.4349  0.1345 -0.2395
 3784TIP3    H132987   6.769   3.844   0.986 -1.5054 -1.3772  0.6587
 3784TIP3    H232988   6.690   3.922   1.089 -1.9209 -0.7237 -0.1324
 3785TIP3   OH232989   2.983   6.656   7.102 -0.4136 -0.0627 -0.2687
 3785TIP3    H132990   2.936   6.592   7.156  0.4669 -0.3624  0.1494
 3785TIP3    H232991   2.942   6.649   7.016 -0.1588 -1.3737 -0.2963
 3786TIP3   OH232992   5.333   6.060   6.788  0.3428 -0.2907 -0.4430
 3786TIP3    H132993   5.251   6.011   6.797 -0.6473  1.5636  1.3366
 3786TIP3    H232994   5.399   6.003   6.827 -1.2595  0.7417  4.4598
 3787TIP3   OH232995   0.753   2.048   7.858  0.2536  0.6696  0.2368
 3787TIP3    H132996   0.822   2.070   7.920  0.5635  2.0813 -0.5628
 3787TIP3    H232997   0.799   2.022   7.778 -0.1462 -0.1143  0.2492
 3788TIP3   OH232998   5.836   6.337   1.330  0.4130 -0.0216  0.1995
 3788TIP3    H132999   5.843   6.330   1.425  0.2234 -0.2405  0.1992
 3788TIP3    H233000   5.863   6.251   1.298  2.7780  0.7538 -0.0824
 3789TIP3   OH233001   4.876   6.566   1.694 -0.4088  0.7263 -0.0333
 3789TIP3    H133002   4.936   6.492   1.698 -0.8615  0.2525 -1.4153
 3789TIP3    H233003   4.905   6.625   1.764  1.6759  0.5449 -0.6878
 3790TIP3   OH233004   6.144   2.906   1.907 -0.1085 -0.0600 -0.8579
 3790TIP3    H133005   6.098   2.967   1.964  1.5075  0.9975 -0.6273
 3790TIP3    H233006   6.129   2.820   1.946 -1.5794  0.2843 -0.6117
 3791TIP3   OH233007   3.291   6.543   6.985  0.1923  0.0764  0.4682
 3791TIP3    H133008   3.371   6.566   6.937  0.3001 -1.4472 -0.1565
 3791TIP3    H233009   3.220   6.572   6.928  0.3080  0.4792  0.5291
 3792TIP3   OH233010   1.894   2.427   1.834 -0.4785  0.7323  0.2604
 3792TIP3    H133011   1.947   2.411   1.756  0.5198  0.5431  0.9501
 3792TIP3    H233012   1.823   2.364   1.829 -1.9620  2.4321 -1.8135
 3793TIP3   OH233013   0.226   4.228   8.001 -0.4409  0.4744  0.1124
 3793TIP3    H133014   0.178   4.197   8.077  0.2780  0.5678  0.6142
 3793TIP3    H233015   0.158   4.253   7.938 -1.0379 -0.4662  0.3616
 3794TIP3   OH233016   5.239   3.990   6.457  0.0873 -0.7586  0.5330
 3794TIP3    H133017   5.199   4.074   6.434  0.0895 -0.9068 -0.0458
 3794TIP3    H233018   5.189   3.960   6.533  0.3296 -0.0667  0.9721
 3795TIP3   OH233019   1.151   1.995   2.689 -0.2549 -0.0158 -0.2707
 3795TIP3    H133020   1.140   1.952   2.604  0.1621  0.4359 -0.5574
 3795TIP3    H233021   1.245   2.006   2.699 -0.3515  3.8384 -1.7693
 3796TIP3   OH233022   2.824   5.961   2.245  0.3570  0.1596 -0.1478
 3796TIP3    H133023   2.847   5.962   2.338  1.7380 -0.9590 -0.4543
 3796TIP3    H233024   2.731   5.984   2.244 -0.0681 -1.2171  1.6310
 3797TIP3   OH233025   4.411   0.099   0.063 -0.4116  0.1722 -0.2141
 3797TIP3    H133026   4.388   0.165   0.129  1.8637  0.4700  0.3631
 3797TIP3    H233027   4.482   0.049   0.103 -0.0071 -0.6353 -1.8542
 3798TIP3   OH233028   4.294   3.473   1.303 -0.2287  0.1267  0.0118
 3798TIP3    H133029   4.301   3.538   1.373  0.4090  1.1468 -0.9727
 3798TIP3    H233030   4.376   3.423   1.307  0.4648  1.1529 -0.9204
 3799TIP3   OH233031   3.673   0.100   1.729  0.4175 -0.5551  0.5290
 3799TIP3    H133032   3.607   0.084   1.796 -0.1760 -0.4828 -0.0294
 3799TIP3    H233033   3.752   0.057   1.762  0.5314  0.6575  1.9113
 3800TIP3   OH233034   3.778   0.593   8.201  0.9083  0.2961  0.0573
 3800TIP3    H133035   3.829   0.663   8.160 -1.5106  1.1724 -1.6750
 3800TIP3    H233036   3.703   0.637   8.241  0.5267 -1.0947  0.9686
 3801TIP3   OH233037   3.554   2.607   1.085  0.7562  0.3329 -0.3469
 3801TIP3    H133038   3.624   2.625   1.147  1.4339  0.9551 -1.2584
 3801TIP3    H233039   3.473   2.629   1.131  1.0957 -0.9897  0.9334
 3802TIP3   OH233040   5.928   6.755   0.262  0.2735 -0.0815 -0.2471
 3802TIP3    H133041   5.865   6.792   0.200 -1.0454 -2.7741 -0.6406
 3802TIP3    H233042   6.013   6.763   0.218 -0.0404  1.6723 -0.6156
 3803TIP3   OH233043   5.058   4.154   1.366 -0.3590 -0.2392 -0.2498
 3803TIP3    H133044   5.005   4.225   1.331 -0.8439 -0.9332 -0.9572
 3803TIP3    H233045   5.084   4.103   1.289  0.6993 -0.3491  0.1606
 3804TIP3   OH233046   0.984   6.684   8.246 -0.0285 -0.8184 -0.1323
 3804TIP3    H133047   1.055   6.722   8.299 -2.2684  0.7608  2.0164
 3804TIP3    H233048   0.980   6.741   8.169  0.1316 -0.0117  0.4310
 3805TIP3   OH233049   5.676   3.562   8.350  0.0109 -0.4971  0.4371
 3805TIP3    H133050   5.765   3.597   8.346 -0.6366  1.1207 -2.1115
 3805TIP3    H233051   5.634   3.613   8.420  0.2332  1.0136 -0.4879
 3806TIP3   OH233052   4.368   2.557   1.740 -0.0390  0.2334  0.2714
 3806TIP3    H133053   4.279   2.581   1.714 -0.5926 -1.5069  0.4105
 3806TIP3    H233054   4.420   2.567   1.661 -0.5514  0.3752 -0.0552
 3807TIP3   OH233055   5.302   2.148   7.799  0.2008 -0.2162 -0.3106
 3807TIP3    H133056   5.360   2.153   7.723  0.7712 -3.0395 -0.1541
 3807TIP3    H233057   5.327   2.223   7.853  1.4908  0.4370 -1.7158
 3808TIP3   OH233058   0.362   0.568   7.793 -0.4730 -0.0820 -0.6580
 3808TIP3    H133059   0.368   0.599   7.883  2.2286  1.4570 -1.2510
 3808TIP3    H233060   0.317   0.639   7.746  0.3268  0.2569 -0.9322
 3809TIP3   OH233061   5.117   1.594   0.616  0.4863 -0.2718  0.1982
 3809TIP3    H133062   5.154   1.609   0.529  0.5116  0.9962  0.4197
 3809TIP3    H233063   5.193   1.594   0.674  0.5787 -2.0522  0.1414
 3810TIP3   OH233064   2.298   6.649   6.790 -0.0259 -0.3551  0.1163
 3810TIP3    H133065   2.276   6.723   6.734  1.6820  0.9925  1.1124
 3810TIP3    H233066   2.372   6.606   6.746  0.1670 -0.3568  0.4348
 3811TIP3   OH233067   4.328   0.945   0.511 -0.1057  0.0086 -0.9342
 3811TIP3    H133068   4.299   0.909   0.594 -2.5649  2.1459 -0.7705
 3811TIP3    H233069   4.291   0.886   0.445 -0.7759  0.0361 -0.5880
 3812TIP3   OH233070   4.027   3.881   1.269  0.0913  0.5626  0.1777
 3812TIP3    H133071   4.056   3.876   1.178  1.0543 -0.4477  0.5134
 3812TIP3    H233072   4.063   3.964   1.301 -1.4706  1.6383 -0.7350
 3813TIP3   OH233073   0.442   3.654   6.597  0.4247 -0.1484  0.2782
 3813TIP3    H133074   0.386   3.707   6.540 -1.0923  0.0101  1.8630
 3813TIP3    H233075   0.463   3.712   6.670  2.5112 -0.2852 -0.1558
 3814TIP3   OH233076   2.515   6.802   7.837 -0.0417  0.2941 -0.0526
 3814TIP3    H133077   2.424   6.794   7.808 -0.7585 -0.8179  2.3017
 3814TIP3    H233078   2.521   6.891   7.871 -0.2507  0.3690 -0.2091
 3815TIP3   OH233079   5.118   2.415   2.190  0.7237  0.4638  0.3390
 3815TIP3    H133080   5.210   2.421   2.217  0.8147  0.2499  0.0845
 3815TIP3    H233081   5.077   2.494   2.225  0.8734  0.2741  0.9636
 3816TIP3   OH233082   1.438   4.828   1.414 -0.0357  0.1310  0.3790
 3816TIP3    H133083   1.364   4.850   1.357  1.8635  0.0252 -2.2780
 3816TIP3    H233084   1.493   4.906   1.413  0.1220  0.0640  1.9781
 3817TIP3   OH233085   3.099   6.166   7.481  0.4455 -0.2499  0.2807
 3817TIP3    H133086   3.162   6.121   7.425 -0.0810  0.2494 -0.7241
 3817TIP3    H233087   3.049   6.096   7.522  0.3927 -0.6090 -0.3907
 3818TIP3   OH233088   4.680   1.202   8.353 -0.3359 -0.0391 -0.0391
 3818TIP3    H133089   4.630   1.282   8.336  0.2987  0.7429  1.5425
 3818TIP3    H233090   4.748   1.229   8.415 -0.1072 -1.8134  0.5493
 3819TIP3   OH233091   0.681   4.720   7.816 -0.9324  0.0837  0.5114
 3819TIP3    H133092   0.695   4.689   7.727 -0.0851  1.3082  0.1908
 3819TIP3    H233093   0.593   4.690   7.838 -0.7348 -1.1692 -0.3218
 3820TIP3   OH233094   1.396   3.998   8.164  0.0827  0.4438  0.0391
 3820TIP3    H133095   1.486   3.984   8.193  0.1887  0.3990 -0.3077
 3820TIP3    H233096   1.403   4.062   8.093 -0.0854 -0.0724 -0.4484
 3821TIP3   OH233097   0.396   5.358   7.605  0.1409 -0.2069  0.4348
 3821TIP3    H133098   0.490   5.348   7.590 -0.2328 -2.7338 -0.8006
 3821TIP3    H233099   0.357   5.357   7.517 -1.1553 -1.2226  0.9844
 3822TIP3   OH233100   5.408   4.968   6.820  0.2322 -0.1648 -0.0877
 3822TIP3    H133101   5.411   4.972   6.724  2.2551  0.8739 -0.0386
 3822TIP3    H233102   5.314   4.967   6.841 -0.3113  1.8410 -2.0153
 3823TIP3   OH233103   5.480   2.800   7.781 -0.2285  0.3223  0.4709
 3823TIP3    H133104   5.410   2.833   7.725 -0.9191 -1.5107  0.1874
 3823TIP3    H233105   5.453   2.821   7.870 -0.7811  0.2828  0.3151
 3824TIP3   OH233106   4.101   0.303   8.851 -0.5481  0.1203  0.4956
 3824TIP3    H133107   4.061   0.216   8.859  1.1283 -0.9233 -1.4139
 3824TIP3    H233108   4.189   0.286   8.816  0.0914  2.5653  0.7083
 3825TIP3   OH233109   5.007   5.922   8.702  0.1518  0.2622 -0.1249
 3825TIP3    H133110   5.010   6.015   8.723 -1.1885  0.0494  1.1803
 3825TIP3    H233111   4.931   5.889   8.750  1.0071 -1.6494  0.0134
 3826TIP3   OH233112   3.901   6.649   7.104  0.3420 -0.6423  0.3109
 3826TIP3    H133113   3.845   6.578   7.138  0.2128 -0.1488  1.1643
 3826TIP3    H233114   3.988   6.629   7.137  0.8667 -1.8556 -1.7026
 3827TIP3   OH233115   5.162   4.954   6.380 -0.0527 -0.0346  0.0319
 3827TIP3    H133116   5.256   4.941   6.394 -0.1325 -2.7881 -1.2344
 3827TIP3    H233117   5.156   4.992   6.293 -0.1059  2.2626  0.9739
 3828TIP3   OH233118   6.189   0.690   1.609 -0.2513  0.2830 -0.2486
 3828TIP3    H133119   6.121   0.623   1.599 -0.6593  0.7898 -0.9541
 3828TIP3    H233120   6.169   0.755   1.542  0.4823  0.8282  0.0447
 3829TIP3   OH233121   1.727   3.794   7.739  0.4121 -0.6849  0.7528
 3829TIP3    H133122   1.766   3.712   7.766  1.2844 -1.6013 -2.7487
 3829TIP3    H233123   1.785   3.861   7.775  1.0697 -1.7055  1.6526
 3830TIP3   OH233124   3.880   4.585   6.475  0.3060  0.2627 -0.3603
 3830TIP3    H133125   3.792   4.565   6.508 -0.3119  0.9582 -1.5210
 3830TIP3    H233126   3.912   4.654   6.533  0.5606 -0.7597  0.7616
 3831TIP3   OH233127   4.913   1.833   0.206  0.3832  0.4012  0.1366
 3831TIP3    H133128   4.837   1.868   0.252  0.5357  0.0216  0.6906
 3831TIP3    H233129   4.902   1.738   0.211  2.1619  0.2484  2.4608
 3832TIP3   OH233130   2.187   2.390   1.357  0.1955  0.4017  0.1642
 3832TIP3    H133131   2.120   2.323   1.348 -1.0172  1.2700  2.1720
 3832TIP3    H233132   2.222   2.378   1.446  0.8814  1.5844  0.0829
 3833TIP3   OH233133   2.508   2.222   2.335 -0.2401 -0.1397 -0.0361
 3833TIP3    H133134   2.565   2.219   2.257 -0.1383  1.4937 -0.0634
 3833TIP3    H233135   2.546   2.158   2.395  1.4799  0.6760 -0.1819
 3834TIP3   OH233136   1.813   5.250   6.850 -0.0651 -0.3156  0.3293
 3834TIP3    H133137   1.797   5.221   6.940 -0.8387  1.3036  0.7602
 3834TIP3    H233138   1.865   5.330   6.861 -0.9121  0.3759 -0.6205
 3835TIP3   OH233139   2.970   3.207   2.023  0.4090  0.4648 -0.5406
 3835TIP3    H133140   2.999   3.146   1.955 -0.3035 -1.0306  0.4277
 3835TIP3    H233141   2.892   3.249   1.987 -2.0664 -2.8258  0.4871
 3836TIP3   OH233142   5.990   6.809   7.795  0.0632  0.7613  0.3571
 3836TIP3    H133143   6.066   6.764   7.830  1.6204  3.3535  0.5873
 3836TIP3    H233144   6.020   6.848   7.713 -0.7509  2.3843  0.7720
 3837TIP3   OH233145   3.034   6.051   0.228 -0.5220 -0.0440 -0.3217
 3837TIP3    H133146   3.126   6.053   0.202 -0.0606 -1.0235  1.1037
 3837TIP3    H233147   3.006   5.961   0.211 -1.1009  0.1433 -0.3887
 3838TIP3   OH233148   2.566   4.866   0.045  0.1871 -0.4523  0.2229
 3838TIP3    H133149   2.505   4.932   0.012  1.9671 -0.5348 -3.7748
 3838TIP3    H233150   2.591   4.815  -0.031  4.4978 -1.0196  1.7116
 3839TIP3   OH233151   1.471   3.480   7.971 -0.1826 -0.4565  0.3461
 3839TIP3    H133152   1.466   3.493   7.876 -1.0094  1.3611  0.5848
 3839TIP3    H233153   1.442   3.390   7.985  1.5684 -1.3415 -1.2370
 3840TIP3   OH233154   0.525   0.371   7.359 -0.5639  0.1370  0.2769
 3840TIP3    H133155   0.520   0.353   7.265 -1.9335  0.1140  0.3418
 3840TIP3    H233156   0.448   0.328   7.396  0.7708 -1.2266  1.6520
 3841TIP3   OH233157   2.409   0.582   8.606  0.0984  0.2705 -0.0818
 3841TIP3    H133158   2.443   0.493   8.598  1.3689  0.5970  1.1908
 3841TIP3    H233159   2.358   0.596   8.526 -0.1399 -1.5896 -0.2938
 3842TIP3   OH233160   6.114   2.217   0.507 -0.1128 -0.1784  0.6820
 3842TIP3    H133161   6.105   2.309   0.484 -0.2800 -0.4007 -0.1681
 3842TIP3    H233162   6.204   2.195   0.484 -0.5010 -0.5947 -0.5068
 3843TIP3   OH233163   4.661   2.095   8.839 -0.4356 -0.3680 -0.4873
 3843TIP3    H133164   4.636   2.003   8.849  0.2916 -0.5843 -0.5739
 3843TIP3    H233165   4.702   2.099   8.752  0.0092 -0.0801 -0.2688
 3844TIP3   OH233166   4.463   2.307   0.335 -0.0003 -0.4688 -0.6278
 3844TIP3    H133167   4.385   2.257   0.359  0.2298 -0.0974  1.0239
 3844TIP3    H233168   4.466   2.379   0.398  2.2473 -1.0981  0.0618
 3845TIP3   OH233169   2.637   6.502   6.905  0.2534  0.2266  0.1863
 3845TIP3    H133170   2.651   6.408   6.916  0.5586  0.3887  1.3529
 3845TIP3    H233171   2.719   6.535   6.870  0.5783  0.2202  0.9132
 3846TIP3   OH233172   2.189   5.171   7.040 -0.2775  0.7556 -0.6340
 3846TIP3    H133173   2.226   5.106   7.099  1.5557  2.1831 -0.0909
 3846TIP3    H233174   2.095   5.154   7.041  0.0424 -1.2021  0.2686
 3847TIP3   OH233175   0.478   2.844   0.918 -0.3430 -0.4291  0.0184
 3847TIP3    H133176   0.511   2.931   0.941 -1.9675  0.3252 -0.2889
 3847TIP3    H233177   0.534   2.815   0.847 -1.0048  1.3052 -1.2922
 3848TIP3   OH233178   3.061   5.162   8.593  0.2260 -0.3711  0.7279
 3848TIP3    H133179   3.108   5.186   8.673  0.7847  0.8272  0.0623
 3848TIP3    H233180   2.983   5.218   8.594  1.2230  1.1295 -0.5235
 3849TIP3   OH233181   5.923   0.399   6.549 -0.9230  0.5176 -0.9233
 3849TIP3    H133182   5.914   0.319   6.602 -1.3329  1.0057 -0.2266
 3849TIP3    H233183   5.861   0.460   6.589  0.4603  1.6847 -0.5041
 3850TIP3   OH233184   6.315   1.526   8.719  0.0686 -0.2069 -0.7423
 3850TIP3    H133185   6.410   1.517   8.722  0.1978  0.8901 -1.0109
 3850TIP3    H233186   6.288   1.525   8.811  0.5719  1.5080 -0.5451
 3851TIP3   OH233187   3.448   3.422   7.867  0.1856  0.2087 -0.3300
 3851TIP3    H133188   3.524   3.383   7.824  0.5650  0.7875 -0.1947
 3851TIP3    H233189   3.424   3.496   7.811 -2.0603 -1.5824 -1.9627
 3852TIP3   OH233190   0.665   2.477   8.886 -0.1112 -0.5161  0.0639
 3852TIP3    H133191   0.668   2.558   8.835 -0.8142 -0.3529  0.2733
 3852TIP3    H233192   0.576   2.445   8.875  0.4258 -1.7592 -0.7737
 3853TIP3   OH233193   3.759   1.729   7.617  0.2304 -0.2104  0.0511
 3853TIP3    H133194   3.691   1.759   7.557  2.0346  0.5427 -1.7330
 3853TIP3    H233195   3.793   1.810   7.656  0.7180 -0.4858  0.2082
 3854TIP3   OH233196   3.043   4.718   1.640  0.3555  0.1491  0.1834
 3854TIP3    H133197   3.101   4.793   1.646  0.4954 -0.0321  1.4266
 3854TIP3    H233198   2.955   4.754   1.652  0.3516  0.2296 -0.1001
 3855TIP3   OH233199   3.890   0.605   0.048 -0.1878 -0.2763 -0.8107
 3855TIP3    H133200   3.877   0.551   0.126  1.7239 -0.4122 -0.5338
 3855TIP3    H233201   3.982   0.592   0.025 -0.6489 -0.0909 -2.9973
 3856TIP3   OH233202   5.377   1.962   8.742 -0.1715 -0.6249  0.1807
 3856TIP3    H133203   5.386   2.036   8.802  0.1367 -1.3546  1.0695
 3856TIP3    H233204   5.461   1.917   8.748  0.7824  0.5824 -2.6359
 3857TIP3   OH233205   6.603   6.020   1.451 -0.1457 -0.1821  0.5722
 3857TIP3    H133206   6.659   6.063   1.387  0.4194  1.0010  1.7907
 3857TIP3    H233207   6.596   6.083   1.523 -1.8880 -0.8894  1.0798
 3858TIP3   OH233208   0.686   2.084   1.643 -0.0305  0.1690  0.0973
 3858TIP3    H133209   0.765   2.102   1.593  0.4299 -1.2061  0.2772
 3858TIP3    H233210   0.628   2.039   1.580  0.0588 -0.4465  0.4485
 3859TIP3   OH233211   0.523   2.893   7.260  0.3464  0.4050 -0.0581
 3859TIP3    H133212   0.458   2.962   7.270  0.6726  1.0368 -1.8673
 3859TIP3    H233213   0.582   2.925   7.192  0.5330 -1.6325 -0.9364
 3860TIP3   OH233214   2.593   3.217   7.826  0.0298  0.6289  0.4351
 3860TIP3    H133215   2.638   3.299   7.808  0.6668  0.0062 -0.9486
 3860TIP3    H233216   2.530   3.207   7.755  0.0010 -0.1063  0.5511
 3861TIP3   OH233217   0.691   2.992   8.764 -0.3707 -0.3981 -0.6001
 3861TIP3    H133218   0.613   3.038   8.731  0.2700  1.4886  0.4054
 3861TIP3    H233219   0.750   2.988   8.688 -0.5851  0.0912 -0.7940
 3862TIP3   OH233220   0.496   2.773   0.228 -0.0968  0.1000 -0.0132
 3862TIP3    H133221   0.513   2.705   0.293 -0.3888  1.4981  1.5959
 3862TIP3    H233222   0.465   2.725   0.151 -1.5238 -1.5125  1.4755
 3863TIP3   OH233223   0.023   1.569   0.414  0.3930 -0.3074  0.2882
 3863TIP3    H133224  -0.001   1.648   0.365 -1.0486 -0.1622  1.1921
 3863TIP3    H233225   0.107   1.591   0.455 -0.6752  1.3130  1.7036
 3864TIP3   OH233226   1.456   2.493   1.293  0.7036 -0.3944  0.1410
 3864TIP3    H133227   1.420   2.452   1.215 -2.2333 -0.3329  1.3237
 3864TIP3    H233228   1.483   2.420   1.349  1.1379 -0.4987 -0.2062
 3865TIP3   OH233229   1.936   1.599   1.730  0.5174 -0.7769  0.6712
 3865TIP3    H133230   1.924   1.507   1.705  1.5822 -0.7196 -0.1006
 3865TIP3    H233231   1.887   1.607   1.812 -1.6160 -1.4065 -0.4586
 3866TIP3   OH233232   5.737   2.788   0.512  0.3508  0.2425 -0.0092
 3866TIP3    H133233   5.688   2.711   0.484 -1.1330  0.4879  1.7167
 3866TIP3    H233234   5.692   2.861   0.471  0.6196  0.3275 -0.1557
 3867TIP3   OH233235   2.836   2.081   6.907 -0.1702  0.1340 -0.0458
 3867TIP3    H133236   2.818   2.109   6.818  2.0214  1.9935 -0.0143
 3867TIP3    H233237   2.813   2.157   6.961  1.6256  0.3168  0.5530
 3868TIP3   OH233238   3.990   2.929   8.584 -0.1582  0.1677 -0.1947
 3868TIP3    H133239   3.980   2.899   8.674 -0.3813  1.3803  0.1952
 3868TIP3    H233240   3.901   2.944   8.553 -0.1132 -0.7127 -0.8027
 3869TIP3   OH233241   6.270   6.401   7.469 -0.2737 -0.3542  0.1466
 3869TIP3    H133242   6.320   6.324   7.498 -0.6665  0.2771  2.7344
 3869TIP3    H233243   6.319   6.433   7.393  0.9862 -2.0433  0.1674
 3870TIP3   OH233244   5.412   0.297   0.976  0.3363  0.4880 -0.7804
 3870TIP3    H133245   5.390   0.214   1.019  0.5186  0.9169  0.1785
 3870TIP3    H233246   5.364   0.295   0.893 -3.0946  1.1900  1.0003
 3871TIP3   OH233247   6.254   2.252   0.754  0.4530  0.0840  0.1711
 3871TIP3    H133248   6.179   2.245   0.695  0.0905  0.8844  0.5215
 3871TIP3    H233249   6.319   2.303   0.705  1.1963 -1.4759 -0.5302
 3872TIP3   OH233250   3.932   0.372   8.307  0.3374  0.2984  0.5109
 3872TIP3    H133251   3.894   0.298   8.352 -0.0694  0.9260  1.2099
 3872TIP3    H233252   3.877   0.447   8.330  0.0427  0.6318 -1.1011
 3873TIP3   OH233253   3.736   2.000   0.138 -0.0590  0.6520 -0.0291
 3873TIP3    H133254   3.659   1.946   0.160  0.1305  0.5690  0.4391
 3873TIP3    H233255   3.762   1.969   0.051 -1.5618  1.8204 -0.9590
 3874TIP3   OH233256   5.192   5.182   1.654  0.3097 -0.2824  0.4623
 3874TIP3    H133257   5.194   5.273   1.624  1.0192  0.0824  1.5462
 3874TIP3    H233258   5.229   5.186   1.742  1.4012 -1.7734  0.1035
 3875TIP3   OH233259   2.980   1.158   7.889 -0.1751 -0.3300  0.3463
 3875TIP3    H133260   2.885   1.162   7.897 -0.2075 -0.1613 -0.0966
 3875TIP3    H233261   3.003   1.229   7.828  0.3108  0.1349  1.0574
 3876TIP3   OH233262   1.060   0.322   1.474 -0.1709  0.6706 -0.0317
 3876TIP3    H133263   1.033   0.386   1.409 -0.2865  2.3054  1.5268
 3876TIP3    H233264   1.124   0.368   1.528  0.2906 -0.7755  0.7322
 3877TIP3   OH233265   3.283   3.648   7.290  0.1441  0.0301  0.0821
 3877TIP3    H133266   3.353   3.641   7.225 -0.9017  0.3386 -1.1268
 3877TIP3    H233267   3.313   3.717   7.350  0.7055  0.4258 -0.6385
 3878TIP3   OH233268   1.313   6.247   1.555  0.0298  0.1952  0.3733
 3878TIP3    H133269   1.266   6.227   1.636  1.9159 -0.6759  1.3136
 3878TIP3    H233270   1.263   6.201   1.487 -0.7355 -0.3178  1.2542
 3879TIP3   OH233271   3.491   6.585   1.465  0.4048 -0.2611  0.7028
 3879TIP3    H133272   3.535   6.552   1.387 -0.7393 -1.0466  0.3603
 3879TIP3    H233273   3.520   6.676   1.473 -1.4704  0.7151 -2.1794
 3880TIP3   OH233274   0.262   3.245   8.505 -0.1301 -0.6009 -0.0895
 3880TIP3    H133275   0.264   3.323   8.450  1.2137  0.9046  1.9516
 3880TIP3    H233276   0.170   3.234   8.528 -0.8246 -1.6019 -2.9433
 3881TIP3   OH233277   5.736   0.943   6.782  0.6743  0.2245 -0.4714
 3881TIP3    H133278   5.744   0.917   6.874  0.5419  1.4584 -0.0955
 3881TIP3    H233279   5.745   0.861   6.733 -0.2535 -0.5963  0.6807
 3882TIP3   OH233280   6.321   4.361   1.532 -0.1223 -0.8506 -0.0997
 3882TIP3    H133281   6.259   4.428   1.503 -0.9998 -1.7702 -0.4276
 3882TIP3    H233282   6.321   4.368   1.627  1.5720  1.1346 -0.1723
 3883TIP3   OH233283   1.550   1.932   6.608  0.5503 -0.3654  0.2619
 3883TIP3    H133284   1.640   1.914   6.635  0.0911  0.5973  2.6509
 3883TIP3    H233285   1.496   1.870   6.657 -0.5692  3.3708  4.4070
 3884TIP3   OH233286   4.778   0.011   6.496  0.2333  0.5645 -0.4300
 3884TIP3    H133287   4.717  -0.041   6.444  0.1634  0.7829 -0.5684
 3884TIP3    H233288   4.846   0.037   6.434 -0.1926  1.3822 -0.5781
 3885TIP3   OH233289   2.433   3.091   0.544  0.9094 -0.0336  0.1973
 3885TIP3    H133290   2.423   3.175   0.590 -1.9422 -0.3385  0.3369
 3885TIP3    H233291   2.511   3.052   0.583  0.7583  1.3874  2.0952
 3886TIP3   OH233292   5.009   1.805   1.501 -0.3143  0.2188  0.2661
 3886TIP3    H133293   5.064   1.883   1.494  0.1589  0.3241  3.5157
 3886TIP3    H233294   5.017   1.762   1.416  4.3458  0.5409  0.2848
 3887TIP3   OH233295   1.722   0.667   7.855  0.0047 -0.1212 -0.0547
 3887TIP3    H133296   1.649   0.614   7.822 -0.0482 -1.1128  1.5306
 3887TIP3    H233297   1.798   0.635   7.807 -0.3609 -0.1560 -0.6258
 3888TIP3   OH233298   0.052   5.622   0.228  0.8480  0.0779 -0.0373
 3888TIP3    H133299   0.092   5.709   0.229 -0.7786  0.8588  0.2131
 3888TIP3    H233300  -0.039   5.637   0.253  0.8859 -1.8971  1.5387
 3889TIP3   OH233301   6.159   0.311   8.000 -0.4033  0.1769 -0.0327
 3889TIP3    H133302   6.208   0.229   7.985  1.7621  1.4590 -0.3602
 3889TIP3    H233303   6.190   0.342   8.085 -0.5518  1.1102 -0.3174
 3890TIP3   OH233304   6.772   6.672   0.979  1.0181 -0.4777 -0.2647
 3890TIP3    H133305   6.676   6.666   0.981  0.9899  0.1884  0.3745
 3890TIP3    H233306   6.791   6.762   0.953  1.4716 -0.2926  0.6785
 3891TIP3   OH233307   1.781   4.337   1.887 -0.1282 -0.1714  0.2447
 3891TIP3    H133308   1.863   4.294   1.911 -0.5800 -0.0878  2.0355
 3891TIP3    H233309   1.728   4.335   1.967 -0.7130  2.4434  0.0155
 3892TIP3   OH233310   0.653   3.292   7.624 -0.2654  0.7291 -0.5668
 3892TIP3    H133311   0.568   3.337   7.627 -0.4590  0.3145  1.2935
 3892TIP3    H233312   0.631   3.201   7.603 -0.5698  0.1306  2.0184
 3893TIP3   OH233313   5.808   3.937   8.808 -0.3601 -0.5978  0.4081
 3893TIP3    H133314   5.797   4.015   8.861  3.8309 -0.2622  1.1478
 3893TIP3    H233315   5.840   3.970   8.724 -0.0194 -1.4519  0.1939
 3894TIP3   OH233316   6.617   2.448   7.954 -0.1131  0.1471  0.3675
 3894TIP3    H133317   6.657   2.484   8.033 -2.1046  0.8689  1.1170
 3894TIP3    H233318   6.684   2.391   7.916  0.8700 -0.2890  2.6227
 3895TIP3   OH233319   6.124   0.115   1.402 -0.2467 -0.7442 -0.2593
 3895TIP3    H133320   6.163   0.028   1.415 -0.5310 -0.8551 -0.1413
 3895TIP3    H233321   6.179   0.173   1.455  0.3503 -0.7419 -0.8662
 3896TIP3   OH233322   4.158   4.790   8.675  0.2299  0.6311  0.2344
 3896TIP3    H133323   4.137   4.756   8.762  2.5426  1.1797  1.0884
 3896TIP3    H233324   4.112   4.874   8.670 -0.3124  0.3676  0.7214
 3897TIP3   OH233325   0.108   0.947   8.001  0.0391 -0.2041  0.3531
 3897TIP3    H133326   0.034   1.007   7.989 -0.2940 -0.7472 -0.4299
 3897TIP3    H233327   0.069   0.868   8.036  0.5969  0.2989  2.2081
 3898TIP3   OH233328   2.131   3.919   1.051  0.2356 -0.8291  0.0744
 3898TIP3    H133329   2.141   3.936   0.958 -0.3665  2.7989  0.5363
 3898TIP3    H233330   2.040   3.892   1.061  0.3401 -1.3707 -0.3594
 3899TIP3   OH233331   3.382   6.176   0.840  0.0575 -0.4882  0.6227
 3899TIP3    H133332   3.309   6.116   0.849 -1.7222  1.6220  1.2039
 3899TIP3    H233333   3.358   6.232   0.766  1.4500 -0.2249  0.3430
 3900TIP3   OH233334   3.009   4.469   7.699  0.0851 -0.3129  0.2139
 3900TIP3    H133335   3.021   4.394   7.640 -0.8301 -0.9429  0.8054
 3900TIP3    H233336   2.980   4.430   7.782  2.5273  0.4506  1.5054
 3901TIP3   OH233337   3.249   6.677   6.501  0.0160  0.2030  0.5140
 3901TIP3    H133338   3.292   6.597   6.470 -1.4848  0.3175 -2.1981
 3901TIP3    H233339   3.171   6.646   6.547  1.1403  0.1001  2.4761
 3902TIP3   OH233340   5.841   1.576   0.500  0.4704 -0.0023 -0.3574
 3902TIP3    H133341   5.880   1.539   0.579 -2.3284  0.6920  1.4988
 3902TIP3    H233342   5.835   1.502   0.439  0.2337 -1.2285  1.0978
 3903TIP3   OH233343   1.445   3.820   8.860 -0.5318 -0.4617  0.4294
 3903TIP3    H133344   1.361   3.853   8.891 -0.2403  1.4986 -0.7215
 3903TIP3    H233345   1.493   3.796   8.939 -1.3115  0.5661  1.2387
 3904TIP3   OH233346   6.196   4.253   8.073 -0.6881 -0.1914 -0.3368
 3904TIP3    H133347   6.247   4.255   8.154 -0.9205 -0.1725 -0.1901
 3904TIP3    H233348   6.189   4.345   8.047  1.9867 -0.3753 -2.0307
 3905TIP3   OH233349   3.216   5.189   8.018 -0.1269  0.4003  0.1479
 3905TIP3    H133350   3.189   5.146   8.099 -0.9629 -1.0849 -0.8772
 3905TIP3    H233351   3.298   5.233   8.041 -0.2711 -0.0942  1.7549
 3906TIP3   OH233352   0.160   4.594   7.661 -0.0100  0.4528 -0.9857
 3906TIP3    H133353   0.221   4.558   7.596  1.2055 -0.1017  0.4215
 3906TIP3    H233354   0.190   4.684   7.675  1.5082 -0.2968  0.8527
 3907TIP3   OH233355   4.885   0.893   6.633 -0.3282  0.0721  0.3948
 3907TIP3    H133356   4.792   0.912   6.641 -0.2129  0.6244  0.4329
 3907TIP3    H233357   4.889   0.811   6.583 -0.8266  0.0836  0.3351
 3908TIP3   OH233358   2.586   5.686   0.118 -0.0780 -0.6217 -0.1513
 3908TIP3    H133359   2.550   5.620   0.177  0.7460  0.0993  1.2137
 3908TIP3    H233360   2.559   5.769   0.156  1.4541 -0.1065 -0.0955
 3909TIP3   OH233361   2.949   3.117   0.444 -0.1321 -0.1934  0.2785
 3909TIP3    H133362   2.870   3.168   0.460  1.2124  1.8938  0.7410
 3909TIP3    H233363   2.937   3.037   0.495 -2.0384 -0.0732  0.0878
 3910TIP3   OH233364   5.320   1.228   2.625 -0.7416  0.3520  0.1325
 3910TIP3    H133365   5.273   1.170   2.565 -0.8386  0.2873  0.2724
 3910TIP3    H233366   5.323   1.312   2.579 -1.2540  0.4368  0.2507
 3911TIP3   OH233367   4.640   5.654   8.158  0.0113 -0.1694  0.1422
 3911TIP3    H133368   4.693   5.581   8.191 -2.2829 -0.9581  2.3619
 3911TIP3    H233369   4.634   5.638   8.063  0.6106 -2.1569  0.3874
 3912TIP3   OH233370   1.140   5.968   0.897  0.1164 -0.5145  0.2269
 3912TIP3    H133371   1.059   5.978   0.847  0.1222 -0.6744  0.1870
 3912TIP3    H233372   1.209   5.996   0.836  0.1415 -0.8908  0.0795
 3913TIP3   OH233373   4.293   1.264   7.776 -0.0672 -0.7823  0.2647
 3913TIP3    H133374   4.208   1.229   7.750 -0.9763  1.6083 -0.2173
 3913TIP3    H233375   4.280   1.295   7.865  0.4252 -0.7526  0.3278
 3914TIP3   OH233376   1.386   6.267   0.287 -0.1533 -0.1700  0.0246
 3914TIP3    H133377   1.370   6.266   0.381  0.8183 -0.5198  0.1965
 3914TIP3    H233378   1.351   6.351   0.257 -0.0854  0.1262  0.7701
 3915TIP3   OH233379   2.341   5.814   8.705  0.0335  0.4727 -0.3773
 3915TIP3    H133380   2.286   5.851   8.637 -0.8339  0.1770  0.1511
 3915TIP3    H233381   2.409   5.880   8.720  0.8055  0.1479 -2.1677
 3916TIP3   OH233382   0.627   2.969   0.474  0.1060 -0.2842 -0.0687
 3916TIP3    H133383   0.582   3.038   0.426  0.6340  0.2683  0.2243
 3916TIP3    H233384   0.712   2.962   0.432 -0.4908 -1.8654 -1.1326
 3917TIP3   OH233385   6.090   3.838   8.194  0.3647 -0.0666 -1.0326
 3917TIP3    H133386   6.125   3.826   8.105 -0.5615 -1.9661 -1.1929
 3917TIP3    H233387   6.117   3.759   8.240  0.6694  0.8204  0.3464
 3918TIP3   OH233388   4.251   3.618   7.796 -0.2606 -0.3011  0.0644
 3918TIP3    H133389   4.334   3.583   7.829 -0.4557 -0.1139  0.7757
 3918TIP3    H233390   4.258   3.611   7.701  1.7894  2.3578 -0.1258
 3919TIP3   OH233391   6.583   5.882   8.755  0.3060 -0.6662 -0.5861
 3919TIP3    H133392   6.622   5.888   8.842  1.9379 -1.2152 -1.2464
 3919TIP3    H233393   6.510   5.820   8.766  0.7200 -1.0131  0.3216
 3920TIP3   OH233394   6.483   0.048   1.524 -0.2839  0.3849  0.0547
 3920TIP3    H133395   6.420  -0.010   1.568  0.3149  0.0418  0.4874
 3920TIP3    H233396   6.512  -0.002   1.447  1.3499 -0.5890  1.2146
 3921TIP3   OH233397   3.058   2.031   1.974 -0.3466 -0.0698 -0.1246
 3921TIP3    H133398   2.964   2.024   1.958 -0.1118 -1.0253 -1.2489
 3921TIP3    H233399   3.091   1.942   1.968  0.9786  0.4734 -2.3260
 3922TIP3   OH233400   4.375   2.638   8.324  0.2116  0.1359 -0.1018
 3922TIP3    H133401   4.398   2.548   8.348  0.4413  0.3341  0.4207
 3922TIP3    H233402   4.308   2.628   8.256 -0.1742 -0.4244  0.3536
 3923TIP3   OH233403   1.820   3.108   1.453 -0.0911 -0.1615  0.2116
 3923TIP3    H133404   1.727   3.131   1.460 -0.2243 -0.5886 -0.1245
 3923TIP3    H233405   1.840   3.118   1.360  0.5233  1.1332  0.4581
 3924TIP3   OH233406   2.759   4.754   7.013  0.1247 -0.8942 -0.3683
 3924TIP3    H133407   2.781   4.662   7.001 -0.3837 -1.2635  1.2606
 3924TIP3    H233408   2.704   4.755   7.092 -0.6256  0.6953 -0.8707
 3925TIP3   OH233409   1.460   4.620   6.630  0.4405 -0.4024 -0.1340
 3925TIP3    H133410   1.416   4.557   6.686  1.1838 -0.3335  0.5477
 3925TIP3    H233411   1.416   4.703   6.648  1.5486 -0.0953  1.4212
 3926TIP3   OH233412   5.412   5.386   0.078 -0.3607 -0.0924  0.1750
 3926TIP3    H133413   5.360   5.463   0.101 -1.2202 -0.9672  1.3035
 3926TIP3    H233414   5.355   5.335   0.020 -0.5089 -0.7270  0.8655
 3927TIP3   OH233415   6.265   2.930   0.005  0.5108  0.1264 -0.2763
 3927TIP3    H133416   6.253   2.920   0.100  2.3152 -2.5953 -0.2219
 3927TIP3    H233417   6.187   2.888  -0.033 -1.2930  3.0627 -0.1341
 3928TIP3   OH233418   6.681   1.629   8.550 -0.5123  0.0475 -0.2554
 3928TIP3    H133419   6.616   1.624   8.480  2.5273 -1.1840 -3.2652
 3928TIP3    H233420   6.729   1.709   8.533  0.7579 -0.6456 -0.0642
 3929TIP3   OH233421   5.292   0.718   1.272 -0.2517  0.1858 -0.2908
 3929TIP3    H133422   5.236   0.641   1.277  0.0942 -0.0429  0.1329
 3929TIP3    H233423   5.261   0.775   1.341  0.4386 -0.2210  0.3761
 3930TIP3   OH233424   5.125   3.860   1.759  0.2218 -0.1537 -0.7191
 3930TIP3    H133425   5.092   3.827   1.843  1.5267  2.3076  0.8752
 3930TIP3    H233426   5.211   3.818   1.750 -0.1338 -0.8150 -1.1153
 3931TIP3   OH233427   1.384   6.596   0.251 -0.2541 -0.2348 -0.3631
 3931TIP3    H133428   1.387   6.629   0.341 -0.0754  1.3543 -0.9255
 3931TIP3    H233429   1.470   6.555   0.238 -0.2953 -0.5091  0.1864
 3932TIP3   OH233430   2.526   3.993   7.839 -0.0840 -0.1934  0.1496
 3932TIP3    H133431   2.612   3.962   7.868 -0.2732 -0.8633 -0.0014
 3932TIP3    H233432   2.535   4.089   7.838  0.5253 -0.2380  0.5440
 3933TIP3   OH233433   4.309   1.841   7.084  0.7308 -0.0840 -0.2427
 3933TIP3    H133434   4.372   1.892   7.135  0.4154 -0.2093  0.2756
 3933TIP3    H233435   4.233   1.833   7.141  0.7068 -0.9770 -0.3921
 3934TIP3   OH233436   0.500   2.231   8.259  0.0566  0.2472 -0.2895
 3934TIP3    H133437   0.555   2.155   8.279 -0.4948  0.1167  0.7836
 3934TIP3    H233438   0.483   2.272   8.344 -1.9379 -0.0129 -0.5129
 3935TIP3   OH233439   6.268   3.287   1.830 -0.6492  0.0419  0.4801
 3935TIP3    H133440   6.253   3.279   1.924  0.4810 -1.4858  0.5572
 3935TIP3    H233441   6.342   3.347   1.822 -1.0160  0.5132  0.5174
 3936TIP3   OH233442   4.153   1.450   8.380  0.4774  0.1869 -0.2551
 3936TIP3    H133443   4.194   1.532   8.352  0.2084  0.7570  0.9728
 3936TIP3    H233444   4.175   1.443   8.473 -2.0816  0.4622  0.4518
 3937TIP3   OH233445   2.674   5.814   6.432 -0.1435  0.0708 -0.2373
 3937TIP3    H133446   2.645   5.894   6.388 -0.0859  0.9386  1.2181
 3937TIP3    H233447   2.611   5.748   6.407 -2.0245  1.3236  0.9408
 3938TIP3   OH233448   6.031   0.223   1.117  0.1494  0.1426  0.2935
 3938TIP3    H133449   5.939   0.197   1.112  0.6058 -1.3517 -1.7252
 3938TIP3    H233450   6.069   0.164   1.182  0.0331 -0.6192 -0.2972
 3939TIP3   OH233451   4.572   4.278   1.044  0.4645 -0.0854 -0.0544
 3939TIP3    H133452   4.543   4.316   0.961 -0.8206 -1.0731 -0.0700
 3939TIP3    H233453   4.615   4.351   1.089  1.9584  0.2674 -1.9169
 3940TIP3   OH233454   0.618   1.665   8.709  0.1724 -0.4178  0.1484
 3940TIP3    H133455   0.696   1.720   8.714  0.2489 -0.2706 -1.7862
 3940TIP3    H233456   0.546   1.721   8.737  0.6880 -0.4633  1.6591
 3941TIP3   OH233457   0.898   5.062   1.580  0.5038 -0.2496  0.5855
 3941TIP3    H133458   0.883   5.127   1.648  0.6803  0.8598 -0.4066
 3941TIP3    H233459   0.881   4.978   1.623  0.7864  0.4052  2.0319
 3942TIP3   OH233460   4.952   6.437   8.911 -0.5566  0.0648 -0.3257
 3942TIP3    H133461   4.865   6.475   8.925 -0.7427  0.4923 -2.3786
 3942TIP3    H233462   5.001   6.506   8.865  1.0356 -0.0193  1.1252
 3943TIP3   OH233463   4.906   4.256   1.952 -0.1770 -0.0728  0.5042
 3943TIP3    H133464   5.001   4.242   1.950 -0.0883  0.6570 -1.2549
 3943TIP3    H233465   4.894   4.349   1.934 -1.2812 -0.5743 -1.6951
 3944TIP3   OH233466   3.898   4.063   1.574 -0.6556 -0.7693  0.1644
 3944TIP3    H133467   3.938   4.006   1.640  1.2627 -0.5159 -0.7213
 3944TIP3    H233468   3.804   4.050   1.586 -0.3474 -1.4982  2.2629
 3945TIP3   OH233469   5.584   1.881   6.391 -0.3861 -0.4126 -0.2048
 3945TIP3    H133470   5.635   1.835   6.457  0.4959  0.0133 -0.5757
 3945TIP3    H233471   5.647   1.940   6.348 -1.7737  2.6604  1.5961
 3946TIP3   OH233472   6.048   5.238   8.622 -0.6669 -0.2409 -0.1921
 3946TIP3    H133473   6.009   5.245   8.535  0.0583  0.2528 -0.4821
 3946TIP3    H233474   6.113   5.308   8.625 -0.5753 -0.3528  0.6923
 3947TIP3   OH233475   4.655   5.287   8.106 -0.1418 -0.6462  0.2502
 3947TIP3    H133476   4.697   5.218   8.156 -0.2999  0.4919  2.0511
 3947TIP3    H233477   4.711   5.364   8.119 -0.7854 -0.0420 -0.4266
 3948TIP3   OH233478   6.437   3.317   7.797 -0.0147 -1.1065  0.6452
 3948TIP3    H133479   6.390   3.234   7.800  1.5846 -2.1415 -0.6493
 3948TIP3    H233480   6.491   3.317   7.876  0.8580 -1.8961  0.0729
 3949TIP3   OH233481   4.956   0.276   7.775 -0.4555 -0.1184  0.0730
 3949TIP3    H133482   4.867   0.293   7.743 -0.7148 -1.7319 -0.1131
 3949TIP3    H233483   5.007   0.351   7.744 -1.2787 -0.2860 -1.7793
 3950TIP3   OH233484   6.664   1.581   2.399  0.4892  0.5451  0.0866
 3950TIP3    H133485   6.622   1.495   2.395  2.6573 -0.5302 -2.1806
 3950TIP3    H233486   6.601   1.640   2.358 -0.3499 -0.2655  0.1529
 3951TIP3   OH233487   2.755   6.420   7.536  0.2690  0.3237 -0.2091
 3951TIP3    H133488   2.672   6.422   7.489  0.2909  1.9936 -0.2271
 3951TIP3    H233489   2.753   6.497   7.592  0.6889 -1.0600  1.8031
 3952TIP3   OH233490   4.234   2.639   0.458 -0.3198 -0.6536 -0.3052
 3952TIP3    H133491   4.213   2.546   0.445 -0.9873 -0.5182 -0.2190
 3952TIP3    H233492   4.201   2.660   0.545  1.0618 -0.6711  0.2544
 3953TIP3   OH233493   0.803   2.816   2.167 -0.6717  0.0437  0.3987
 3953TIP3    H133494   0.718   2.836   2.130 -0.8387 -0.5230  0.4550
 3953TIP3    H233495   0.796   2.840   2.259 -0.7950 -0.0709  0.4189
 3954TIP3   OH233496   6.272   1.330   0.699 -0.4576 -0.1043 -0.2059
 3954TIP3    H133497   6.332   1.402   0.682 -0.4361 -0.2975 -0.9790
 3954TIP3    H233498   6.185   1.369   0.696 -0.3706  0.2698  1.3942
 3955TIP3   OH233499   5.789   5.993   6.735 -0.1847  0.0229  0.2455
 3955TIP3    H133500   5.798   6.060   6.667 -1.6683  3.1682  2.8597
 3955TIP3    H233501   5.877   5.959   6.746  1.8318  4.8156  1.6566
 3956TIP3   OH233502   3.438   2.646   0.803  0.6648 -0.4170 -0.3996
 3956TIP3    H133503   3.479   2.598   0.874 -1.6403 -1.2817  0.4490
 3956TIP3    H233504   3.473   2.735   0.810  2.1097 -1.0205  0.4122
 3957TIP3   OH233505   3.335   1.901   0.631 -0.0932 -0.1528 -0.0748
 3957TIP3    H133506   3.347   1.826   0.689  1.2842  0.7758  0.9324
 3957TIP3    H233507   3.256   1.944   0.664  0.4782  0.1683  0.9531
 3958TIP3   OH233508   1.974   0.151   1.181  0.1862  0.5487  0.6635
 3958TIP3    H133509   1.997   0.210   1.109  1.7507 -0.0585  0.6370
 3958TIP3    H233510   1.907   0.199   1.230 -0.9354  0.9753 -1.1745
 3959TIP3   OH233511   5.727   5.402   7.371 -0.3607 -0.4963 -0.0060
 3959TIP3    H133512   5.816   5.411   7.338 -0.2509 -1.6891 -0.0678
 3959TIP3    H233513   5.703   5.311   7.354 -1.5832 -0.2069  0.0430
 3960TIP3   OH233514   3.162   2.908   0.128  0.1157  1.0351 -0.0236
 3960TIP3    H133515   3.090   2.971   0.132  2.0878  3.5800 -1.5706
 3960TIP3    H233516   3.231   2.948   0.182  1.4136  0.1958 -1.0161
 3961TIP3   OH233517   2.293   5.313   0.303 -0.0425 -0.2326 -0.6446
 3961TIP3    H133518   2.211   5.361   0.306  1.2933  2.2224 -1.0302
 3961TIP3    H233519   2.315   5.308   0.209  1.3935  1.3257 -0.4428
 3962TIP3   OH233520   2.788   2.490   7.553  0.7492 -0.0167  0.5480
 3962TIP3    H133521   2.773   2.481   7.459 -0.4116  0.0643  0.7180
 3962TIP3    H233522   2.835   2.573   7.562 -1.0050  1.0664  0.2021
 3963TIP3   OH233523   3.687   4.695   0.979 -0.2530 -0.4949  0.5847
 3963TIP3    H133524   3.717   4.609   1.009 -0.6759 -1.4280 -1.4020
 3963TIP3    H233525   3.722   4.702   0.890 -0.5492  1.2442  0.5798
 3964TIP3   OH233526   0.707   5.711   1.607  0.5375 -0.0395 -0.8790
 3964TIP3    H133527   0.631   5.660   1.579 -1.1967  0.3566  2.6336
 3964TIP3    H233528   0.676   5.802   1.607  1.6584  0.3643 -1.2450
 3965TIP3   OH233529   2.401   4.611   7.727 -0.5842  0.5109  0.3626
 3965TIP3    H133530   2.408   4.677   7.658 -0.9404  1.6844  1.4209
 3965TIP3    H233531   2.489   4.605   7.763 -0.4242 -0.0201 -0.0975
 3966TIP3   OH233532   5.446   0.796   0.687 -0.0711 -0.1455 -0.2596
 3966TIP3    H133533   5.393   0.865   0.647 -1.0400 -1.1248 -0.7112
 3966TIP3    H233534   5.383   0.734   0.723  0.7472 -1.3872 -0.8647
 3967TIP3   OH233535   5.205   4.576   1.195 -0.0738 -0.7523 -0.4159
 3967TIP3    H133536   5.180   4.485   1.211 -2.0583 -0.0160  0.9382
 3967TIP3    H233537   5.198   4.619   1.280  0.0800  0.8461 -1.1719
 3968TIP3   OH233538   3.169   6.660   0.393 -0.2365  0.1012 -0.9574
 3968TIP3    H133539   3.175   6.660   0.489 -0.7836  0.7015 -0.9183
 3968TIP3    H233540   3.123   6.578   0.373  0.1350 -0.1680 -0.7268
 3969TIP3   OH233541   2.943   0.644   1.012  0.0490 -0.3662  0.3114
 3969TIP3    H133542   2.888   0.622   1.087 -0.5584  0.2842  0.0699
 3969TIP3    H233543   3.018   0.585   1.019 -0.7719 -1.4003  0.5429
 3970TIP3   OH233544   4.877   0.113   6.928 -1.1985  0.1642 -0.2962
 3970TIP3    H133545   4.792   0.070   6.939 -1.5611  0.9494  0.0905
 3970TIP3    H233546   4.865   0.200   6.967 -0.1091  0.1689  0.0585
 3971TIP3   OH233547   4.442   0.793   7.473 -0.3427 -0.2231 -0.2456
 3971TIP3    H133548   4.500   0.824   7.404  0.3442 -1.0656 -0.0763
 3971TIP3    H233549   4.355   0.792   7.434 -0.0332 -0.2256 -0.9392
 3972TIP3   OH233550   6.710   4.965   2.598  0.6443  0.7818 -0.2071
 3972TIP3    H133551   6.759   4.884   2.617 -1.7035 -0.0503  3.1518
 3972TIP3    H233552   6.762   5.034   2.639  0.5981  0.3826  0.5330
 3973TIP3   OH233553   2.020   6.105   8.320 -0.6726 -0.6305  0.5641
 3973TIP3    H133554   2.043   6.167   8.250 -1.1766  1.8573  2.4629
 3973TIP3    H233555   2.099   6.099   8.374 -1.2209 -0.1476  1.4339
 3974TIP3   OH233556   0.073   6.111   0.344  0.1995 -0.0812  0.5507
 3974TIP3    H133557   0.145   6.049   0.358  0.6450  0.8053  2.6988
 3974TIP3    H233558   0.054   6.145   0.432 -0.2836  2.5271 -0.4783
 3975TIP3   OH233559   2.821   5.333   1.268  0.3675 -0.1599  0.1123
 3975TIP3    H133560   2.876   5.410   1.252 -0.0882  0.4559  1.4100
 3975TIP3    H233561   2.734   5.360   1.240  0.3471 -0.4605 -0.1123
 3976TIP3   OH233562   6.275   2.474   8.279  0.5470 -0.4917 -0.0187
 3976TIP3    H133563   6.260   2.568   8.272  0.3678 -0.6141 -1.4967
 3976TIP3    H233564   6.314   2.463   8.366 -0.7891  0.7510  0.7894
 3977TIP3   OH233565   3.753   3.682   1.446 -0.3941 -0.0871  0.1432
 3977TIP3    H133566   3.739   3.611   1.384 -0.4632 -0.8507  1.0172
 3977TIP3    H233567   3.688   3.668   1.515 -0.5011  0.8996  0.2684
 3978TIP3   OH233568   3.002   1.510   6.795  0.1128 -0.4913 -0.1976
 3978TIP3    H133569   2.919   1.517   6.749  0.2620  0.7724 -0.3022
 3978TIP3    H233570   2.979   1.515   6.888  0.2169  2.3696 -0.2360
 3979TIP3   OH233571   2.846   4.611   0.032 -0.1828 -0.6179  0.1942
 3979TIP3    H133572   2.871   4.688   0.084 -0.3753 -0.0459 -0.5499
 3979TIP3    H233573   2.795   4.646  -0.041  0.5134 -1.3478 -0.6790
 3980TIP3   OH233574   1.389   1.971   0.320 -0.3802 -0.2033  0.1440
 3980TIP3    H133575   1.374   1.952   0.227 -0.5487  2.1711 -0.3646
 3980TIP3    H233576   1.443   2.050   0.320 -1.4518  0.5900  2.0699
 3981TIP3   OH233577   1.608   2.978   1.733  0.3412  0.2764  0.1860
 3981TIP3    H133578   1.554   3.009   1.806 -0.1490  2.6537 -1.0724
 3981TIP3    H233579   1.698   2.982   1.766  0.0392  0.1512  1.0459
 3982TIP3   OH233580   0.390   3.360   1.206  0.3833 -0.0854 -0.5136
 3982TIP3    H133581   0.465   3.373   1.263  0.2123  1.2010 -0.5487
 3982TIP3    H233582   0.338   3.292   1.249  1.7034 -1.2379 -0.6572
 3983TIP3   OH233583   3.832   0.603   7.720 -0.5528  0.0947 -0.2279
 3983TIP3    H133584   3.920   0.636   7.701 -0.6510  0.4732 -0.0258
 3983TIP3    H233585   3.774   0.678   7.706 -0.8283 -0.1164 -0.2243
 3984TIP3   OH233586   0.150   0.627   1.253 -0.1879 -0.0563 -0.4447
 3984TIP3    H133587   0.139   0.710   1.206  0.6628  0.6871  0.6271
 3984TIP3    H233588   0.114   0.561   1.193 -3.0406  1.2811 -0.3691
 3985TIP3   OH233589   4.379   6.795   6.691 -0.5895 -0.0276 -0.2913
 3985TIP3    H133590   4.438   6.721   6.681 -2.8325 -2.2402  1.5989
 3985TIP3    H233591   4.387   6.843   6.608  0.6478 -2.6115 -1.7894
 3986TIP3   OH233592   2.664   0.204   1.581  0.7007 -0.0527  0.2391
 3986TIP3    H133593   2.597   0.197   1.513  0.5430  1.4839  0.2150
 3986TIP3    H233594   2.640   0.136   1.644 -0.7223  0.2663  0.0841
 3987TIP3   OH233595   6.620   5.631   8.218  0.0143 -0.5568  0.4519
 3987TIP3    H133596   6.583   5.703   8.168  0.4322  0.8322  2.0333
 3987TIP3    H233597   6.708   5.660   8.241 -0.4043 -0.7569  2.5886
 3988TIP3   OH233598   5.292   4.592   1.985  0.0937  0.2256  0.7512
 3988TIP3    H133599   5.351   4.571   2.058 -0.5723  1.3523  1.6514
 3988TIP3    H233600   5.277   4.686   1.993 -1.2844  0.0745  0.1292
 3989TIP3   OH233601   1.193   3.327   8.536 -0.1586  0.0834  0.2454
 3989TIP3    H133602   1.172   3.413   8.499  0.3490  0.3459  0.5622
 3989TIP3    H233603   1.162   3.331   8.626 -1.4817 -0.5903 -0.1605
 3990TIP3   OH233604   4.236   0.595   8.573 -0.1535 -0.3534  0.2959
 3990TIP3    H133605   4.316   0.629   8.611 -0.0551 -1.5390  1.1968
 3990TIP3    H233606   4.167   0.651   8.609  0.2745  0.8522 -0.7119
 3991TIP3   OH233607   2.509   0.837   1.218  0.7588 -0.2613  0.0706
 3991TIP3    H133608   2.414   0.834   1.206  0.6209 -1.1815  1.2170
 3991TIP3    H233609   2.532   0.929   1.210 -0.3206  0.0476  0.4258
 3992TIP3   OH233610   1.186   4.425   2.617 -0.6088 -0.1350 -0.6607
 3992TIP3    H133611   1.249   4.488   2.653  0.3286  0.7162 -3.5823
 3992TIP3    H233612   1.101   4.460   2.644 -0.0207  1.1834 -0.3918
 3993TIP3   OH233613   4.551   0.359   0.506 -0.3231 -0.0616 -0.0807
 3993TIP3    H133614   4.632   0.312   0.485 -0.3508 -0.1999  0.1215
 3993TIP3    H233615   4.580   0.448   0.526 -0.5922  1.2091 -4.3456
 3994TIP3   OH233616   0.206   0.171   1.209  0.1256  0.3481 -0.2927
 3994TIP3    H133617   0.231   0.142   1.122  0.7399  2.1399 -0.7694
 3994TIP3    H233618   0.225   0.265   1.209 -1.8124  0.7920  1.0855
 3995TIP3   OH233619   0.914   6.227   1.385 -0.3183 -0.7633 -0.1682
 3995TIP3    H133620   0.952   6.182   1.460 -0.2929 -1.8446 -0.8112
 3995TIP3    H233621   0.988   6.245   1.327 -0.1781  0.9702  0.4766
 3996TIP3   OH233622   0.153   2.750   1.792 -0.5114 -0.2464  1.1083
 3996TIP3    H133623   0.226   2.743   1.731 -0.3230  1.0276  1.1717
 3996TIP3    H233624   0.077   2.722   1.740 -0.1567 -0.4463  0.6878
 3997TIP3   OH233625   4.215   6.718   0.049 -0.0605  0.1158  0.2337
 3997TIP3    H133626   4.266   6.644   0.017  2.0109  1.0267  1.2325
 3997TIP3    H233627   4.278   6.790   0.055 -1.6785  1.5584  0.6691
 3998TIP3   OH233628   6.239   5.234   1.004  0.5452 -0.5287 -0.0527
 3998TIP3    H133629   6.232   5.176   0.928  1.3004 -0.6704 -0.0232
 3998TIP3    H233630   6.278   5.179   1.072  1.0608 -0.0577  0.0427
 3999TIP3   OH233631   2.612   0.458   7.726  0.0890 -0.1643  0.0690
 3999TIP3    H133632   2.707   0.470   7.720  0.0720 -0.4103 -0.8228
 3999TIP3    H233633   2.577   0.511   7.654 -0.4486 -0.1540  0.3322
 4000TIP3   OH233634   0.903   0.360   1.003  0.4498  0.0975  0.5557
 4000TIP3    H133635   0.916   0.387   1.094  0.5379 -0.9721  0.8813
 4000TIP3    H233636   0.992   0.347   0.969  0.4111 -1.4066  0.9429
 4001TIP3   OH233637   3.161   6.026   0.832 -0.0835  0.4738  0.1214
 4001TIP3    H133638   3.080   6.076   0.821 -0.5027  0.6142  3.0791
 4001TIP3    H233639   3.138   5.936   0.807 -0.4067  0.9714 -1.4650
 4002TIP3   OH233640   4.329   4.898   7.317 -0.0295  0.0126  0.3354
 4002TIP3    H133641   4.264   4.944   7.264  1.1549  1.3156 -0.0474
 4002TIP3    H233642   4.412   4.912   7.271  0.6982 -0.6766  1.3856
 4003TIP3   OH233643   5.532   0.739   7.223 -0.1188  0.1093  0.2066
 4003TIP3    H133644   5.458   0.732   7.162 -1.3118  0.3195  1.5831
 4003TIP3    H233645   5.522   0.664   7.281  0.0154  0.8301  1.1791
 4004TIP3   OH233646   5.746   0.900   1.149  0.0523 -0.5689 -0.0079
 4004TIP3    H133647   5.741   0.980   1.202  0.8285 -1.0861  0.8691
 4004TIP3    H233648   5.655   0.884   1.121  0.2546  2.3791 -2.9352
 4005TIP3   OH233649   2.251   5.428   1.580 -0.0408  0.8495 -0.6776
 4005TIP3    H133650   2.199   5.506   1.564 -0.4291  0.6184 -0.5604
 4005TIP3    H233651   2.196   5.356   1.550 -1.2358  0.2955  2.4476
 4006TIP3   OH233652   1.839   0.543   7.603 -0.1328  0.4423  0.2031
 4006TIP3    H133653   1.816   0.457   7.567  1.8645  0.5790 -1.5105
 4006TIP3    H233654   1.792   0.606   7.548 -1.2194  0.5260  1.1692
 4007TIP3   OH233655   1.585   3.054   7.460  0.3282  0.2604 -0.1586
 4007TIP3    H133656   1.514   3.091   7.408 -0.4026 -1.1102 -0.2068
 4007TIP3    H233657   1.602   3.118   7.529  0.0465  1.2586 -1.0086
 4008TIP3   OH233658   0.733   0.232   2.007  0.1813  0.1968 -0.7935
 4008TIP3    H133659   0.691   0.300   2.059 -0.8709 -1.3458  0.4880
 4008TIP3    H233660   0.794   0.278   1.951  1.0335  2.0105  1.4851
 4009TIP3   OH233661   0.741   1.893   1.889  0.1660  0.2500 -0.3006
 4009TIP3    H133662   0.698   1.879   1.805  0.5555 -1.2116 -0.2776
 4009TIP3    H233663   0.682   1.951   1.937 -0.6157  0.1726 -1.1416
 4010TIP3   OH233664   5.167   1.801   7.486  0.0433  0.2990  0.2021
 4010TIP3    H133665   5.162   1.877   7.544  1.3782  0.5582  0.0032
 4010TIP3    H233666   5.106   1.738   7.524  0.9996  0.3938  2.0109
 4011TIP3   OH233667   2.230   4.068   7.811 -0.5001 -0.3826  0.7062
 4011TIP3    H133668   2.182   4.090   7.891  0.3823  1.3042  0.8054
 4011TIP3    H233669   2.313   4.115   7.818 -0.2766 -0.4353 -1.0779
 4012TIP3   OH233670   3.510   3.051   7.760  0.8116  0.2500  0.1822
 4012TIP3    H133671   3.423   3.013   7.776  1.4192 -1.7811 -0.9083
 4012TIP3    H233672   3.493   3.129   7.708 -0.3779 -0.0629  0.0650
 4013TIP3   OH233673   3.996   5.998   7.293 -0.0538  0.5328 -0.0493
 4013TIP3    H133674   3.976   5.949   7.213  1.0997  0.8041 -0.5272
 4013TIP3    H233675   4.091   6.007   7.292  0.0609 -0.1618  1.7951
 4014TIP3   OH233676   4.132   4.735   1.611 -0.0281 -0.1545 -0.1003
 4014TIP3    H133677   4.146   4.742   1.516 -2.3800  2.4462 -0.3703
 4014TIP3    H233678   4.145   4.642   1.629  0.6134 -0.7354 -2.9374
 4015TIP3   OH233679   5.362   2.952   2.945 -0.5499  0.3108 -0.2194
 4015TIP3    H133680   5.438   2.985   2.994 -1.1281  0.2056  0.7561
 4015TIP3    H233681   5.369   2.995   2.859  1.4369 -0.8239 -0.7093
 4016TIP3   OH233682   4.094   4.463   2.222  0.0724 -0.3831  0.2149
 4016TIP3    H133683   4.179   4.420   2.226 -0.5899 -1.6392  2.3907
 4016TIP3    H233684   4.096   4.527   2.294 -0.4078  0.4641 -0.4923
 4017TIP3   OH233685   0.665   6.150   8.239  0.1874  0.4197  0.5380
 4017TIP3    H133686   0.581   6.135   8.283 -0.1206 -0.6920 -0.3808
 4017TIP3    H233687   0.652   6.231   8.190 -0.6600 -0.2038 -0.2925
 4018TIP3   OH233688   1.126   2.521   6.801 -0.1436 -0.0119 -0.2541
 4018TIP3    H133689   1.182   2.587   6.844 -0.4272 -0.5249  0.9631
 4018TIP3    H233690   1.061   2.572   6.753  0.0116  0.5976  0.1730
 4019TIP3   OH233691   2.661   2.890   0.588 -0.4533  0.4734  0.5092
 4019TIP3    H133692   2.680   2.941   0.666 -1.0122  1.6842 -0.1179
 4019TIP3    H233693   2.615   2.813   0.621  2.7421 -1.0748  1.7509
 4020TIP3   OH233694   6.256   0.740   0.406  0.0212 -0.2552 -0.2092
 4020TIP3    H133695   6.197   0.715   0.477  0.2970 -1.4075 -0.3600
 4020TIP3    H233696   6.199   0.749   0.329  0.0133 -1.3338 -0.3485
 4021TIP3   OH233697   0.951   5.060   7.505 -0.4894  0.0644 -0.0045
 4021TIP3    H133698   1.028   5.116   7.518 -0.2049 -0.4982  0.7812
 4021TIP3    H233699   0.980   4.995   7.441 -0.3754 -0.0117  0.1224
 4022TIP3   OH233700   0.319   4.637   8.259 -0.1217  0.3315  0.0082
 4022TIP3    H133701   0.278   4.664   8.342  0.3838  0.0850  0.3430
 4022TIP3    H233702   0.371   4.712   8.233 -1.4540  0.9824 -0.8762
 4023TIP3   OH233703   5.684   4.429   0.344 -0.8906 -0.0170 -0.3520
 4023TIP3    H133704   5.697   4.390   0.258 -1.0263  0.6356 -0.6763
 4023TIP3    H233705   5.593   4.458   0.344 -0.5943  0.9620 -0.4080
 4024TIP3   OH233706   6.342   6.046   8.806 -0.3404  0.6931  0.2139
 4024TIP3    H133707   6.424   6.006   8.777 -0.7100 -0.5880  0.8421
 4024TIP3    H233708   6.317   6.105   8.735  1.7682  2.0993  0.5614
 4025TIP3   OH233709   4.312   2.962   8.759 -0.3571 -0.5471  0.0683
 4025TIP3    H133710   4.287   2.872   8.737  1.1377 -0.7934 -0.7896
 4025TIP3    H233711   4.370   2.988   8.687 -1.2750  1.3397 -0.0358
 4026TIP3   OH233712   0.962   2.144   8.341  0.0394  0.0524  0.1960
 4026TIP3    H133713   1.015   2.223   8.353 -0.8717  0.3719  2.5873
 4026TIP3    H233714   0.991   2.085   8.411 -0.5173 -1.0465 -0.4820
 4027TIP3   OH233715   3.052   2.607   0.419  0.1401 -0.2706  0.0000
 4027TIP3    H133716   3.118   2.542   0.396  0.2701 -0.1411  0.0099
 4027TIP3    H233717   3.101   2.685   0.443  0.0177 -0.5219  1.1083
 4028TIP3   OH233718   6.640   6.403   7.147 -0.2731  0.2766  0.6725
 4028TIP3    H133719   6.606   6.442   7.228 -0.6949 -1.5425  1.4159
 4028TIP3    H233720   6.596   6.451   7.077 -0.3440  1.4870  1.5050
 4029TIP3   OH233721   1.025   3.291   7.203  0.7195 -0.2584  0.2865
 4029TIP3    H133722   1.107   3.282   7.153  0.3494  0.0858 -0.3974
 4029TIP3    H233723   1.022   3.383   7.229  0.1884 -0.0955 -0.3356
 4030TIP3   OH233724   1.675   6.265   7.374 -0.2937 -0.8578  0.0213
 4030TIP3    H133725   1.603   6.250   7.436 -0.0413 -1.0089  0.2786
 4030TIP3    H233726   1.687   6.180   7.331 -1.0071 -0.5515 -0.8207
 4031TIP3   OH233727   4.883   4.159   7.890 -0.5856  0.1640 -0.2776
 4031TIP3    H133728   4.872   4.236   7.834  0.2154  0.3919 -0.1322
 4031TIP3    H233729   4.966   4.121   7.863 -0.1990  0.2657  0.7327
 4032TIP3   OH233730   1.378   1.481   2.347 -0.2169 -0.5956 -0.1218
 4032TIP3    H133731   1.309   1.546   2.361  0.5586  0.4788 -1.1157
 4032TIP3    H233732   1.333   1.406   2.309 -0.8883 -0.0088 -0.5165
 4033TIP3   OH233733   4.538   6.805   0.295  0.4063  0.4504 -0.4277
 4033TIP3    H133734   4.498   6.891   0.311 -1.2289 -0.4060  0.2940
 4033TIP3    H233735   4.476   6.742   0.332  2.3660 -0.9857  0.6496
 4034TIP3   OH233736   5.420   1.241   7.122  0.1249  0.1661  0.1273
 4034TIP3    H133737   5.384   1.153   7.116 -0.4978  0.3932  0.4815
 4034TIP3    H233738   5.344   1.299   7.110  0.4699  0.6501  0.2534
 4035TIP3   OH233739   4.496   2.479   0.550  0.2086  0.2017 -0.0757
 4035TIP3    H133740   4.516   2.573   0.546 -0.9752  0.5702  1.5416
 4035TIP3    H233741   4.505   2.457   0.643 -2.7889 -0.4694  0.1726
 4036TIP3   OH233742   6.734   5.625   0.764  0.1743 -0.1912 -0.1438
 4036TIP3    H133743   6.689   5.707   0.785  0.3666 -0.2438  0.5035
 4036TIP3    H233744   6.825   5.651   0.750  0.1732 -0.2499 -0.2592
 4037TIP3   OH233745   3.436   0.595   8.853 -0.6396  0.0015 -0.4315
 4037TIP3    H133746   3.487   0.675   8.863 -2.1747  0.9810 -0.2456
 4037TIP3    H233747   3.501   0.525   8.862  0.3752  1.1314  1.8313
 4038TIP3   OH233748   3.068   4.557   2.487  0.1308 -0.2933  0.5542
 4038TIP3    H133749   3.035   4.609   2.560 -0.0870  0.0968  0.1811
 4038TIP3    H233750   3.112   4.620   2.430  0.5922 -0.6459  0.5096
 4039TIP3   OH233751   0.673   5.034   7.017  0.4019 -0.2181 -0.0134
 4039TIP3    H133752   0.683   5.049   7.111  1.1629  1.6760 -0.3384
 4039TIP3    H233753   0.729   5.100   6.976  0.9245 -1.6781 -1.8067
 4040TIP3   OH233754   0.865   1.123   1.608 -0.1693 -0.2456  0.2221
 4040TIP3    H133755   0.918   1.141   1.685 -1.9837 -0.3312  1.5559
 4040TIP3    H233756   0.898   1.183   1.541  1.2821 -0.0063  1.1332
 4041TIP3   OH233757   3.633   0.413   8.880  0.3793  0.2825  0.0824
 4041TIP3    H133758   3.598   0.326   8.863  0.1060  0.2795  0.6195
 4041TIP3    H233759   3.690   0.402   8.956 -1.8737  1.0425  2.0206
 4042TIP3   OH233760   4.749   2.552   7.150  0.3285 -0.3616  0.2260
 4042TIP3    H133761   4.841   2.569   7.171  0.1821 -0.5032  1.0334
 4042TIP3    H233762   4.727   2.474   7.201 -0.4637  0.1519  0.6879
 4043TIP3   OH233763   1.316   4.813   0.638  0.2434 -0.0852 -0.2448
 4043TIP3    H133764   1.228   4.836   0.669 -1.0151 -1.7584 -2.2714
 4043TIP3    H233765   1.311   4.820   0.543  2.6954  0.8668 -0.3731
 4044TIP3   OH233766   1.904   0.948   1.108 -0.3612 -0.3427 -0.3851
 4044TIP3    H133767   1.867   1.033   1.134 -0.4981 -1.2299  2.7462
 4044TIP3    H233768   1.986   0.970   1.063 -0.3171  1.4607  0.4993
 4045TIP3   OH233769   6.768   5.032   0.194  0.1748 -0.2711  0.0044
 4045TIP3    H133770   6.758   5.125   0.175 -0.0759 -0.1096  0.8774
 4045TIP3    H233771   6.829   5.001   0.128  2.7100  1.1765  1.4694
 4046TIP3   OH233772   5.407   5.447   0.773 -0.9737  0.0643  0.2100
 4046TIP3    H133773   5.440   5.394   0.846  1.0037  0.9820  0.0489
 4046TIP3    H233774   5.396   5.384   0.702  0.2877 -0.3486  0.3401
 4047TIP3   OH233775   5.343   2.007   1.271 -0.7269 -0.3050 -1.3676
 4047TIP3    H133776   5.413   1.948   1.299 -0.5065  0.6310  0.2066
 4047TIP3    H233777   5.381   2.095   1.281 -1.8369  0.1825 -1.3115
 4048TIP3   OH233778   0.850   0.614   0.012  0.6926 -0.2501  1.0653
 4048TIP3    H133779   0.857   0.533   0.062  1.2760 -0.9519 -0.1204
 4048TIP3    H233780   0.787   0.667   0.061 -2.1118 -2.6165  0.3009
 4049TIP3   OH233781   1.881   3.706   2.083 -0.8387  0.3854  0.1577
 4049TIP3    H133782   1.920   3.763   2.149  0.6568 -0.5495  0.1381
 4049TIP3    H233783   1.886   3.618   2.122  0.5438 -0.2599 -1.3650
 4050TIP3   OH233784   1.195   0.303   0.978 -0.3918 -0.6604  0.1927
 4050TIP3    H133785   1.217   0.264   1.063  0.6948 -1.4382 -0.4108
 4050TIP3    H233786   1.266   0.365   0.961 -0.9912  0.0279  0.1730
 4051TIP3   OH233787   3.618   2.925   0.272  0.4531 -0.2272 -1.0447
 4051TIP3    H133788   3.598   2.841   0.313  1.5408 -0.5689 -1.1877
 4051TIP3    H233789   3.642   2.983   0.345 -0.2035 -0.0608 -0.9556
 4052TIP3   OH233790   1.992   5.033   1.027  0.6997  0.4137  0.0717
 4052TIP3    H133791   2.046   4.970   0.980 -0.8984 -1.0534  0.1001
 4052TIP3    H233792   1.905   4.992   1.031  0.2787  1.3770  2.5523
 4053TIP3   OH233793   6.252   3.637   7.768  0.0214 -0.1098 -0.0270
 4053TIP3    H133794   6.250   3.650   7.673  0.6513  2.5374  0.2642
 4053TIP3    H233795   6.314   3.564   7.780 -2.1530 -2.4123 -1.7265
 4054TIP3   OH233796   4.408   4.924   8.657  0.0667 -0.3976 -0.3564
 4054TIP3    H133797   4.352   4.998   8.635 -0.3188 -1.2461 -2.3961
 4054TIP3    H233798   4.355   4.847   8.640  1.4350 -1.2011 -1.1668
 4055TIP3   OH233799   5.703   1.299   1.817 -0.5267  0.1004  0.1763
 4055TIP3    H133800   5.679   1.389   1.799 -2.7797 -0.1018  1.7334
 4055TIP3    H233801   5.797   1.302   1.832 -0.5844  2.2337  0.4000
 4056TIP3   OH233802   3.122   0.514   0.616  0.2901  0.2199  0.7749
 4056TIP3    H133803   3.158   0.464   0.543 -1.2982 -2.2921  1.5807
 4056TIP3    H233804   3.144   0.605   0.596 -0.4054 -0.2783 -3.0175
 4057TIP3   OH233805   6.030   5.520   7.824 -0.1097 -0.6225  0.0933
 4057TIP3    H133806   6.074   5.575   7.759  0.2733 -0.9991  0.0227
 4057TIP3    H233807   6.065   5.549   7.908 -0.0069 -0.6667  0.0665
 4058TIP3   OH233808   3.068   6.321   8.165 -0.5523 -0.4797  0.0567
 4058TIP3    H133809   3.076   6.251   8.230  0.0334 -1.8135 -1.3760
 4058TIP3    H233810   3.148   6.314   8.113  0.8796  3.0486  1.4707
 4059TIP3   OH233811   5.717   1.068   7.403  0.4864  0.3229 -0.4717
 4059TIP3    H133812   5.777   1.029   7.339  0.9341  1.5704 -0.8358
 4059TIP3    H233813   5.632   1.027   7.383  1.0537 -0.9557 -0.3858
 4060TIP3   OH233814   2.214   4.693   0.429  0.7182  0.6374  0.4088
 4060TIP3    H133815   2.244   4.779   0.402  0.0795  1.0128  0.8594
 4060TIP3    H233816   2.282   4.661   0.489  0.8972  0.8765  0.3340
 4061TIP3   OH233817   0.224   4.105   1.794  0.7220  0.1166  0.3456
 4061TIP3    H133818   0.236   4.132   1.885  2.1443  2.7436 -0.5124
 4061TIP3    H233819   0.140   4.143   1.768  1.8014  2.2167 -0.2857
 4062TIP3   OH233820   0.670   3.196   6.633  0.0719  0.3573  0.2168
 4062TIP3    H133821   0.740   3.212   6.570  0.8424  0.1559  1.0057
 4062TIP3    H233822   0.593   3.180   6.579  0.5991  0.7165 -0.6656
 4063TIP3   OH233823   2.238   1.824   0.650  0.0529 -0.0618  0.2221
 4063TIP3    H133824   2.148   1.840   0.621  0.0579 -0.7906 -0.2317
 4063TIP3    H233825   2.287   1.901   0.621 -0.6228  0.8561  1.4430
 4064TIP3   OH233826   5.500   5.339   1.005 -0.1931 -0.3643  0.6265
 4064TIP3    H133827   5.574   5.399   1.001 -1.5762  1.4039 -1.3474
 4064TIP3    H233828   5.532   5.263   1.052  2.9901  0.1365 -0.4906
 4065TIP3   OH233829   1.465   1.806   0.998 -0.7214 -0.0120  0.0053
 4065TIP3    H133830   1.532   1.848   1.051 -0.0144 -0.3689 -0.5928
 4065TIP3    H233831   1.407   1.764   1.061 -0.1890  0.0020  0.5078
 4066TIP3   OH233832   3.733   4.279   8.394 -0.1678 -0.2529 -0.0119
 4066TIP3    H133833   3.784   4.236   8.325 -0.1342  1.9482 -1.4903
 4066TIP3    H233834   3.645   4.287   8.357 -0.5088 -0.2871  0.7824
 4067TIP3   OH233835   5.105   2.388   1.593  0.0387  0.1582  0.4124
 4067TIP3    H133836   5.023   2.431   1.567  0.1519 -1.0599 -2.4043
 4067TIP3    H233837   5.081   2.330   1.664 -1.5783 -0.1238 -0.3205
 4068TIP3   OH233838   2.767   1.666   8.899  0.2837 -0.5004  0.2669
 4068TIP3    H133839   2.693   1.650   8.957 -0.3407  1.0691 -0.0444
 4068TIP3    H233840   2.814   1.739   8.940  2.3456 -2.1635  1.0579
 4069TIP3   OH233841   5.849   1.120   6.597  0.6720 -0.0245  0.0630
 4069TIP3    H133842   5.938   1.128   6.634  0.4773  1.4520  0.2706
 4069TIP3    H233843   5.799   1.075   6.666  1.7035 -2.8790 -0.9025
 4070TIP3   OH233844   0.597   6.384   8.107 -0.5460  0.2796  0.1173
 4070TIP3    H133845   0.663   6.372   8.039  0.0408  2.3602  0.2479
 4070TIP3    H233846   0.610   6.474   8.138 -1.7884 -0.0986  1.9290
 4071TIP3   OH233847   1.618   1.508   1.795 -0.2685  0.4677 -0.3835
 4071TIP3    H133848   1.599   1.457   1.874 -0.2874 -0.0202 -0.7009
 4071TIP3    H233849   1.623   1.598   1.826  0.0775  0.2412  0.2370
 4072TIP3   OH233850   0.741   0.607   8.017 -0.7373  0.0156  0.0097
 4072TIP3    H133851   0.795   0.652   7.953 -0.2703 -0.2828  0.1856
 4072TIP3    H233852   0.719   0.524   7.975  1.1438 -1.0200  0.9235
 4073TIP3   OH233853   5.178   2.749   0.846  0.5641 -0.0286  0.3298
 4073TIP3    H133854   5.272   2.743   0.865  0.0002 -0.4746  3.4485
 4073TIP3    H233855   5.173   2.808   0.770  3.3281  0.2392  0.2446
 4074TIP3   OH233856   2.594   2.759   1.477  0.3462 -0.1720 -0.0378
 4074TIP3    H133857   2.564   2.795   1.561  0.9018  1.4974 -0.5015
 4074TIP3    H233858   2.519   2.711   1.443  0.0666 -0.7486  1.3415
 4075TIP3   OH233859   5.523   6.354   7.635 -0.5668 -0.0062 -0.2680
 4075TIP3    H133860   5.453   6.360   7.569 -0.9604 -0.4387  0.1026
 4075TIP3    H233861   5.565   6.270   7.616  0.2728  0.5471 -0.8967
 4076TIP3   OH233862   1.688   2.051   7.505  0.1797 -0.0538  0.0051
 4076TIP3    H133863   1.742   2.056   7.584 -0.1606 -1.0219  0.3036
 4076TIP3    H233864   1.607   2.097   7.529  0.2727  0.0846  0.0561
 4077TIP3   OH233865   3.756   4.239   7.722  0.2683  0.2256  0.0931
 4077TIP3    H133866   3.822   4.243   7.792  0.6552  0.4462 -0.2832
 4077TIP3    H233867   3.741   4.330   7.697  1.3332  0.0607 -1.2254
 4078TIP3   OH233868   6.352   4.850   1.519 -0.3310 -1.1367  0.5292
 4078TIP3    H133869   6.426   4.814   1.569 -0.5591 -0.8463  1.0836
 4078TIP3    H233870   6.381   4.939   1.495 -0.2418 -1.2575  0.1851
 4079TIP3   OH233871   4.455   2.760   1.058  0.3688 -0.1636 -0.1901
 4079TIP3    H133872   4.376   2.811   1.042  0.0938 -0.4678  0.1587
 4079TIP3    H233873   4.424   2.670   1.066  0.7913 -0.3270 -0.3575
 4080TIP3   OH233874   0.332   2.344   0.370  0.4228 -0.4209  0.2497
 4080TIP3    H133875   0.239   2.360   0.389  0.7249 -0.6534  2.0493
 4080TIP3    H233876   0.330   2.285   0.295 -1.0143 -2.7313  1.9655
 4081TIP3   OH233877   3.012   5.616   0.012  0.1461 -0.3492 -0.4097
 4081TIP3    H133878   3.065   5.536   0.007  0.8031  0.1644 -2.7273
 4081TIP3    H233879   2.945   5.604  -0.054 -0.8255  0.3086  0.4284
 4082TIP3   OH233880   1.970   3.402   0.349  0.2672 -0.1244  0.2380
 4082TIP3    H133881   1.940   3.456   0.422  0.9671  0.6996 -0.0713
 4082TIP3    H233882   2.058   3.373   0.376 -0.1582 -1.2339  0.4659
 4083TIP3   OH233883   5.805   1.710   8.363 -0.4720  0.6599  0.5455
 4083TIP3    H133884   5.754   1.629   8.373 -1.4983  1.2349  0.1852
 4083TIP3    H233885   5.828   1.735   8.452  1.7466 -1.1569  0.5666
 4084TIP3   OH233886   0.971   3.667   8.582  0.0032  0.1973  0.1697
 4084TIP3    H133887   0.942   3.757   8.594 -0.1885 -0.0091  1.3170
 4084TIP3    H233888   1.020   3.646   8.661  1.3825 -0.2057 -0.7682
 4085TIP3   OH233889   5.947   4.866   6.880  0.0634 -0.3989 -0.2424
 4085TIP3    H133890   5.903   4.947   6.855 -0.8026 -0.3141  1.4354
 4085TIP3    H233891   5.893   4.797   6.841  0.5631 -0.2089 -1.3116
 4086TIP3   OH233892   6.506   1.292   7.515  0.1319 -0.2859  0.0004
 4086TIP3    H133893   6.588   1.284   7.467 -0.6545 -0.7599 -1.3291
 4086TIP3    H233894   6.457   1.213   7.492 -1.4466  0.8409 -0.7651
 4087TIP3   OH233895   2.571   3.394   1.681  0.6573  0.0614 -0.5554
 4087TIP3    H133896   2.604   3.332   1.616  1.9342  1.0649 -0.8932
 4087TIP3    H233897   2.521   3.458   1.630 -1.5113 -1.1682 -0.1062
 4088TIP3   OH233898   2.858   6.653   8.449 -0.4576 -0.3231 -0.0062
 4088TIP3    H133899   2.826   6.737   8.417  0.5868 -0.0155 -0.2884
 4088TIP3    H233900   2.891   6.609   8.371  1.1674  0.0005  0.4610
 4089TIP3   OH233901   2.099   5.835   0.526  0.0374  0.1286 -0.1376
 4089TIP3    H133902   2.089   5.929   0.540  0.3659  0.5649 -2.3827
 4089TIP3    H233903   2.143   5.828   0.441  1.3195 -2.0344  0.6201
 4090TIP3   OH233904   0.166   5.961   2.079  0.5067 -0.5623  0.5332
 4090TIP3    H133905   0.102   5.993   2.143 -0.1595  0.9822 -0.8231
 4090TIP3    H233906   0.243   6.016   2.093  0.3448 -0.1902  0.0256
 4091TIP3   OH233907   3.143   4.254   8.704  0.1666  0.0462  0.2521
 4091TIP3    H133908   3.123   4.162   8.688  0.9296 -0.1034  0.1504
 4091TIP3    H233909   3.103   4.274   8.788 -0.7644 -0.1360 -0.1341
 4092TIP3   OH233910   6.019   3.666   2.003  0.2607 -0.3384  0.4266
 4092TIP3    H133911   5.986   3.748   2.038  0.0431 -0.3255  0.1930
 4092TIP3    H233912   6.052   3.619   2.080  0.9964  0.2443  0.4737
 4093TIP3   OH233913   6.177   5.907   2.243 -0.4331 -0.1343 -0.5793
 4093TIP3    H133914   6.210   5.917   2.332 -0.3944 -1.0839 -0.4665
 4093TIP3    H233915   6.129   5.988   2.225 -0.1078  0.2293  0.1569
 4094TIP3   OH233916   1.583   0.257   7.323  0.3979  0.0479 -0.3687
 4094TIP3    H133917   1.569   0.201   7.246 -1.8459 -1.1971  0.8173
 4094TIP3    H233918   1.496   0.292   7.342  0.4710 -1.1505  2.6204
 4095TIP3   OH233919   6.558   1.627   7.479 -0.3899  0.2539  0.5709
 4095TIP3    H133920   6.634   1.571   7.489 -0.1485  0.5216  0.2732
 4095TIP3    H233921   6.593   1.716   7.476 -0.6946  0.3686  0.2443
 4096TIP3   OH233922   1.233   5.580   7.842  0.4516  0.0392 -0.4930
 4096TIP3    H133923   1.209   5.647   7.907  2.0640  0.1767  0.0097
 4096TIP3    H233924   1.218   5.497   7.887 -0.0198  0.0984 -0.5392
 4097TIP3   OH233925   1.201   2.969   2.605  0.1093 -0.2835 -0.2816
 4097TIP3    H133926   1.213   3.064   2.603  0.0086 -0.2895 -1.2130
 4097TIP3    H233927   1.106   2.957   2.611 -0.0537 -0.3360 -2.4680
 4098TIP3   OH233928   0.006   2.688   8.778  0.4790  0.4770  0.3767
 4098TIP3    H133929   0.081   2.632   8.757 -1.0817 -1.0591 -1.4492
 4098TIP3    H233930  -0.000   2.749   8.705 -0.8385 -0.3329 -0.2283
 4099TIP3   OH233931   0.677   0.659   1.312  0.5822  0.2578  0.5835
 4099TIP3    H133932   0.763   0.681   1.349  1.0941 -1.5591  0.5586
 4099TIP3    H233933   0.627   0.741   1.317  2.4422  1.4710  0.1884
 4100TIP3   OH233934   2.393   4.461   0.251 -0.4267 -0.3112  0.2974
 4100TIP3    H133935   2.412   4.541   0.301 -0.8714  0.0179 -0.0564
 4100TIP3    H233936   2.371   4.397   0.318  2.1980 -0.8331  0.7783
 4101TIP3   OH233937   2.981   0.202   8.574  0.3021  0.0982  0.0594
 4101TIP3    H133938   3.038   0.126   8.563  1.1502  0.4501  1.7800
 4101TIP3    H233939   2.940   0.213   8.488  2.2131 -0.6429 -1.0193
 4102TIP3   OH233940   5.863   4.851   8.176 -0.3750  0.8385 -0.1723
 4102TIP3    H133941   5.906   4.843   8.092 -0.0622  0.1355  0.0513
 4102TIP3    H233942   5.919   4.804   8.237 -2.1508 -1.3662 -0.1203
 4103TIP3   OH233943   5.180   2.368   8.495 -0.1347 -0.5910  0.5382
 4103TIP3    H133944   5.200   2.377   8.402 -5.1274  0.9151 -0.6811
 4103TIP3    H233945   5.186   2.456   8.531 -1.5984 -0.5223  0.6985
 4104TIP3   OH233946   4.035   5.421   8.676  0.2801  0.1907 -0.1591
 4104TIP3    H133947   4.125   5.396   8.656 -0.6076 -1.1679 -3.1221
 4104TIP3    H233948   3.987   5.339   8.676 -1.1609  0.9957  0.2120
 4105TIP3   OH233949   5.673   6.253   8.533  0.4678  0.4696  0.1361
 4105TIP3    H133950   5.592   6.286   8.571 -0.8846 -2.0999 -0.2457
 4105TIP3    H233951   5.690   6.311   8.459 -1.4944  0.6383 -0.2464
 4106TIP3   OH233952   1.314   3.315   8.152  0.0063 -0.1967 -0.2111
 4106TIP3    H133953   1.252   3.357   8.211  1.0380 -0.5931  1.2277
 4106TIP3    H233954   1.272   3.318   8.066 -1.8108 -0.1077  0.6338
 4107TIP3   OH233955   4.323   3.788   1.923  0.5516 -0.5467  0.4895
 4107TIP3    H133956   4.331   3.828   2.010  1.9065  0.8738 -0.2365
 4107TIP3    H233957   4.297   3.697   1.941 -0.2516 -0.0081  2.3128
 4108TIP3   OH233958   2.764   6.582   1.596 -0.0699  0.1374  0.1053
 4108TIP3    H133959   2.843   6.602   1.646 -0.2538  1.2873 -0.0544
 4108TIP3    H233960   2.787   6.602   1.505 -0.1276 -0.7994 -0.1340
 4109TIP3   OH233961   5.194   5.607   7.974  0.4139  0.0179  0.0120
 4109TIP3    H133962   5.132   5.661   7.926  0.8086  0.6233  0.1778
 4109TIP3    H233963   5.258   5.579   7.908  0.5908  0.3135  0.0575
 4110TIP3   OH233964   6.696   0.392   0.912 -0.3432 -0.1854 -0.5606
 4110TIP3    H133965   6.725   0.438   0.990  2.9411 -0.1830 -1.6579
 4110TIP3    H233966   6.642   0.455   0.865 -1.0163  0.3464  0.8630
 4111TIP3   OH233967   6.229   2.569   0.850 -0.3962 -0.8854 -0.1254
 4111TIP3    H133968   6.175   2.576   0.928 -0.0358 -1.6433  0.1984
 4111TIP3    H233969   6.318   2.592   0.879 -0.6379  1.2542 -0.8418
 4112TIP3   OH233970   5.687   3.333   2.448  0.5417 -0.3810 -0.2560
 4112TIP3    H133971   5.740   3.363   2.522  0.1340  0.4026 -0.2712
 4112TIP3    H233972   5.624   3.272   2.486 -0.4896  0.9703  0.2783
 4113TIP3   OH233973   4.078   1.796   7.253  0.6909  0.7970 -0.2429
 4113TIP3    H133974   4.029   1.869   7.216 -0.6102  0.5142  0.8297
 4113TIP3    H233975   4.029   1.718   7.226  1.7414  0.3434 -0.8987
 4114TIP3   OH233976   6.502   2.782   8.250 -0.2386  0.9168 -0.2891
 4114TIP3    H133977   6.446   2.773   8.326  0.8908 -0.7586  0.3933
 4114TIP3    H233978   6.448   2.753   8.176 -0.2164 -0.9827  0.3985
 4115TIP3   OH233979   2.350   3.440   0.171 -0.1882 -0.1101  0.4879
 4115TIP3    H133980   2.293   3.515   0.184  1.1520  1.2885 -1.3049
 4115TIP3    H233981   2.428   3.460   0.224 -0.7641 -1.4158  1.9142
 4116TIP3   OH233982   0.564   3.929   2.502  0.1460 -0.6048 -0.1712
 4116TIP3    H133983   0.642   3.966   2.543 -0.7927  2.1421 -0.6823
 4116TIP3    H233984   0.575   3.834   2.511  2.5439 -0.2514  1.5455
 4117TIP3   OH233985   5.059   1.297   7.995 -0.1765  0.3794 -0.0964
 4117TIP3    H133986   5.132   1.282   7.936 -0.6078 -1.4221 -0.2335
 4117TIP3    H233987   5.004   1.219   7.986 -1.3275  0.9963  1.1395
 4118TIP3   OH233988   3.154   1.865   8.013 -0.5893 -0.5314  0.1411
 4118TIP3    H133989   3.114   1.893   8.095 -0.8496 -1.0769  0.2063
 4118TIP3    H233990   3.089   1.808   7.973  0.3254 -1.8952  0.5159
 4119TIP3   OH233991   5.543   3.338   8.310 -0.4450 -0.0049  0.4704
 4119TIP3    H133992   5.585   3.421   8.333 -1.6685  0.6931  0.3238
 4119TIP3    H233993   5.601   3.270   8.344 -0.3035  0.9327  2.2104
 4120TIP3   OH233994   3.761   0.119   8.062  0.0798  0.0342  0.5029
 4120TIP3    H133995   3.767   0.144   8.154  2.3494  1.6538 -0.0163
 4120TIP3    H233996   3.746   0.201   8.015  3.2456 -0.0135 -0.8648
 4121TIP3   OH233997   3.305   5.224   0.582 -1.1754  0.3355  0.4181
 4121TIP3    H133998   3.245   5.230   0.507  0.4708  0.8900 -0.9414
 4121TIP3    H233999   3.391   5.238   0.543 -0.0924 -1.0048  2.2060
 4122TIP3   OH234000   4.334   0.997   8.699 -0.1677  0.0836 -0.0444
 4122TIP3    H134001   4.288   0.983   8.782 -0.3795  0.5175 -0.0856
 4122TIP3    H234002   4.391   0.920   8.690 -0.0229  0.1077  0.5840
 4123TIP3   OH234003   5.837   5.447   8.326  0.0951 -0.1191 -0.1583
 4123TIP3    H134004   5.921   5.402   8.336 -0.9690 -1.8842  1.5163
 4123TIP3    H234005   5.817   5.480   8.414 -1.3432 -0.4723 -0.3345
 4124TIP3   OH234006   2.624   4.984   7.401 -0.3025 -0.0495  0.4324
 4124TIP3    H134007   2.676   4.955   7.476  0.5265  1.8886  0.6823
 4124TIP3    H234008   2.621   5.080   7.410 -3.1214 -0.0119 -0.1224
 4125TIP3   OH234009   1.550   4.583   6.964  0.1458 -0.1234  0.6762
 4125TIP3    H134010   1.519   4.568   7.053  1.3948  0.8178  1.2963
 4125TIP3    H234011   1.534   4.677   6.949  0.3410 -0.1837  0.0771
 4126TIP3   OH234012   5.687   0.887   8.719 -1.0922  0.6449 -0.1536
 4126TIP3    H134013   5.623   0.887   8.791  0.6591 -3.1807  1.7454
 4126TIP3    H234014   5.771   0.902   8.762 -0.0531 -1.2008 -1.3871
 4127TIP3   OH234015   5.718   4.758   7.189 -0.4884 -0.2511 -0.0203
 4127TIP3    H134016   5.707   4.667   7.217 -2.0703 -0.5895 -1.5896
 4127TIP3    H234017   5.733   4.753   7.095  1.5449  1.0290  0.1728
 4128TIP3   OH234018   6.484   5.800   1.922 -0.1825 -0.6108 -0.1934
 4128TIP3    H134019   6.397   5.838   1.937  0.8936  1.1727  2.1128
 4128TIP3    H234020   6.490   5.729   1.985  0.3251 -0.1949  0.2325
 4129TIP3   OH234021   4.190   6.464   7.712 -0.1350 -0.4686 -0.0346
 4129TIP3    H134022   4.150   6.424   7.789  0.4065 -0.8512  0.0571
 4129TIP3    H234023   4.273   6.500   7.744 -0.0310 -0.3938 -0.3835
 4130TIP3   OH234024   4.753   6.591   7.166 -0.0110 -0.4094 -0.4473
 4130TIP3    H134025   4.755   6.500   7.195  2.2097  0.1782  1.6492
 4130TIP3    H234026   4.845   6.612   7.150 -0.6565  0.9307 -2.9685
 4131TIP3   OH234027   2.880   1.560   7.084  0.0075 -0.6263  0.2529
 4131TIP3    H134028   2.950   1.623   7.100  0.1624 -1.0797  1.5327
 4131TIP3    H234029   2.799   1.607   7.105  0.1062 -0.7712  0.9807
 4132TIP3   OH234030   4.672   5.039   0.818  0.0696  0.0200  0.0727
 4132TIP3    H134031   4.733   5.054   0.890  0.5256  1.3972 -0.5625
 4132TIP3    H234032   4.717   5.074   0.741 -0.3821 -1.4698 -0.9030
 4133TIP3   OH234033   6.404   0.991   1.421  0.0182 -0.5103 -0.5708
 4133TIP3    H134034   6.373   0.922   1.362 -0.6745 -1.2600  0.6152
 4133TIP3    H234035   6.329   1.008   1.479  0.3412  0.9027 -0.5267
 4134TIP3   OH234036   3.923   0.312   1.925 -0.0802  0.5821 -0.0236
 4134TIP3    H134037   3.847   0.278   1.973  1.7662 -2.8207  0.8329
 4134TIP3    H234038   3.982   0.344   1.994  0.0669  1.4081 -0.5250
 4135TIP3   OH234039   2.853   3.633   0.968  0.0363  0.1119  0.1552
 4135TIP3    H134040   2.760   3.655   0.967  0.3800  1.7513  1.1759
 4135TIP3    H234041   2.861   3.567   1.037 -0.3684 -0.1504 -0.0381
 4136TIP3   OH234042   2.766   0.956   0.067  0.4256 -0.0506  0.0891
 4136TIP3    H134043   2.814   0.967   0.150 -1.8841 -1.2307  1.6947
 4136TIP3    H234044   2.702   1.028   0.067  2.4190  1.8892 -2.3247
 4137TIP3   OH234045   6.213   4.856   0.630  0.3667  0.1057 -0.5499
 4137TIP3    H134046   6.186   4.805   0.707 -1.0478  2.3066  0.5282
 4137TIP3    H234047   6.140   4.846   0.568 -0.1216  1.0909 -0.1584
 4138TIP3   OH234048   1.756   5.926   0.195  0.3622 -0.4166 -0.8668
 4138TIP3    H134049   1.755   6.020   0.213 -1.7064 -0.5108 -0.2655
 4138TIP3    H234050   1.742   5.885   0.280  0.4544 -1.2594 -1.2470
 4139TIP3   OH234051   2.319   4.255   8.458 -0.5193 -0.3921  0.3395
 4139TIP3    H134052   2.402   4.210   8.476 -0.5183  0.2457  2.2052
 4139TIP3    H234053   2.252   4.189   8.477 -0.4659 -0.8092 -0.8571
 4140TIP3   OH234054   1.436   3.119   6.959  0.2375  0.1905  0.4247
 4140TIP3    H134055   1.433   3.024   6.949  1.3438  0.3170 -2.0254
 4140TIP3    H234056   1.514   3.135   7.013  0.2309 -0.2941  0.5786
 4141TIP3   OH234057   6.089   6.092   0.714 -0.2291 -0.1421 -0.3175
 4141TIP3    H134058   6.049   6.127   0.793 -0.2843 -0.1778 -0.3297
 4141TIP3    H234059   6.123   6.006   0.741  0.5122  0.2091 -0.1078
 4142TIP3   OH234060   0.405   3.638   0.410  0.1602 -0.1911 -0.0799
 4142TIP3    H134061   0.424   3.570   0.345 -0.4039 -0.5476  0.1200
 4142TIP3    H234062   0.365   3.591   0.483  1.1290  0.1463  0.7021
 4143TIP3   OH234063   6.560   3.127   0.252 -0.0666  0.3441  0.0748
 4143TIP3    H134064   6.589   3.059   0.190  0.5593  1.2814 -0.6864
 4143TIP3    H234065   6.563   3.084   0.337  2.2069 -0.0496 -0.1509
 4144TIP3   OH234066   1.100   1.746   8.050  0.1103 -0.7189 -0.8773
 4144TIP3    H134067   1.091   1.659   8.012  0.5299 -1.3660  0.4309
 4144TIP3    H234068   1.051   1.741   8.132  1.1081 -0.0941 -0.2195
 4145TIP3   OH234069   4.989   6.673   7.517  0.2466  0.0165 -0.4309
 4145TIP3    H134070   4.932   6.707   7.586  0.6532  1.1037 -0.6126
 4145TIP3    H234071   5.074   6.714   7.533  0.7179 -0.7966 -0.7660
 4146TIP3   OH234072   3.871   4.660   6.908 -0.0083  0.2537  1.0382
 4146TIP3    H134073   3.956   4.691   6.938  0.2645 -0.2520  0.8065
 4146TIP3    H234074   3.873   4.566   6.924 -0.5350  0.2435  1.0555
 4147TIP3   OH234075   3.641   1.881   1.660 -0.8764 -0.6748 -0.4856
 4147TIP3    H134076   3.735   1.898   1.650 -1.3675  2.3887 -0.7633
 4147TIP3    H234077   3.618   1.832   1.581  0.2885 -0.5249 -0.9426
 4148TIP3   OH234078   4.665   5.601   0.968 -0.1118 -0.4389 -0.1192
 4148TIP3    H134079   4.696   5.647   1.046  2.5588 -0.7768 -0.9000
 4148TIP3    H234080   4.649   5.671   0.904  0.7617 -0.3656 -0.2625
 4149TIP3   OH234081   6.121   0.818   0.125  0.0639  0.3778  0.2958
 4149TIP3    H134082   6.118   0.911   0.147  1.1111  0.5271 -0.1143
 4149TIP3    H234083   6.032   0.796   0.099  0.1159  1.6488 -1.0665
 4150TIP3   OH234084   6.214   5.667   7.625 -0.1566  0.0213 -0.0546
 4150TIP3    H134085   6.131   5.664   7.576  0.6116 -4.2174 -1.4964
 4150TIP3    H234086   6.281   5.681   7.557  0.6274 -1.9457  0.2582
 4151TIP3   OH234087   2.005   0.085   7.693  0.4208 -0.3975  0.5070
 4151TIP3    H134088   1.962   0.153   7.641 -0.0459  0.4970  2.0177
 4151TIP3    H234089   1.941   0.062   7.760  1.3667 -0.8322  1.2844
 4152TIP3   OH234090   6.415   6.316   1.101 -0.3587  0.0234 -0.0442
 4152TIP3    H134091   6.343   6.256   1.123 -0.8176  0.5356 -0.1229
 4152TIP3    H234092   6.472   6.315   1.177 -1.3564  0.9436  0.7480
 4153TIP3   OH234093   6.699   0.052   0.657 -0.3388  0.2804 -0.2047
 4153TIP3    H134094   6.642  -0.021   0.633 -0.2590  0.7596 -1.9807
 4153TIP3    H234095   6.678   0.070   0.748 -2.5020 -0.0166 -0.6014
 4154TIP3   OH234096   2.434   3.576   1.513  0.1778  0.3663  0.2600
 4154TIP3    H134097   2.355   3.624   1.491 -0.0781  0.4807  1.3543
 4154TIP3    H234098   2.444   3.511   1.443 -0.7123  0.5431 -0.0376
 4155TIP3   OH234099   2.652   6.214   0.097 -0.5452 -0.2141  0.6574
 4155TIP3    H134100   2.696   6.161   0.031 -0.2752  1.5290 -0.6255
 4155TIP3    H234101   2.633   6.297   0.053 -2.8578  0.0135  1.9412
 4156TIP3   OH234102   0.867   2.968   8.548  0.1180 -0.6118  0.0105
 4156TIP3    H134103   0.939   2.905   8.553  1.6846  0.9141 -1.7886
 4156TIP3    H234104   0.902   3.040   8.496 -2.3844  0.6981  0.0030
 4157TIP3   OH234105   6.236   4.017   8.387  0.2487  0.1281  0.2516
 4157TIP3    H134106   6.216   3.964   8.310 -1.1678  0.4252  0.4001
 4157TIP3    H234107   6.326   4.046   8.373 -0.4454  1.3617 -2.0022
 4158TIP3   OH234108   4.743   2.745   8.428  0.1361 -0.1340 -0.0553
 4158TIP3    H134109   4.686   2.774   8.356 -0.2799 -1.6796 -0.3855
 4158TIP3    H234110   4.686   2.745   8.505  0.2740  0.3953  0.0513
 4159TIP3   OH234111   2.588   1.946   1.082 -0.1134 -0.2729 -0.3351
 4159TIP3    H134112   2.510   1.978   1.128  0.6255 -1.7426  2.1190
 4159TIP3    H234113   2.553   1.891   1.011 -1.2975 -0.2716  0.2246
 4160TIP3   OH234114   0.217   0.275   1.957  0.0534 -0.1770 -0.1458
 4160TIP3    H134115   0.259   0.237   2.033 -0.9419 -1.3061 -0.1374
 4160TIP3    H234116   0.214   0.369   1.975  2.8701  0.0139 -0.3299
 4161TIP3   OH234117   5.545   0.109   0.771 -0.1857 -0.5540  0.2032
 4161TIP3    H134118   5.455   0.131   0.749 -0.1458  0.1371  0.6957
 4161TIP3    H234119   5.542   0.016   0.793 -1.3530  0.0188  2.9110
 4162TIP3   OH234120   4.163   2.352   1.180 -0.0284 -0.6728  1.0156
 4162TIP3    H134121   4.105   2.347   1.104  1.1352 -0.3221  0.0942
 4162TIP3    H234122   4.205   2.267   1.185  1.9906  0.1582 -0.4588
 4163TIP3   OH234123   4.298   1.944   8.156 -0.6336 -0.0876  0.4289
 4163TIP3    H134124   4.304   1.959   8.061 -0.4821 -0.5640  0.3656
 4163TIP3    H234125   4.385   1.964   8.189 -1.2670  2.4580  0.8119
 4164TIP3   OH234126   5.710   3.726   7.721  0.1216  0.2465 -0.4080
 4164TIP3    H134127   5.726   3.780   7.644  1.6630  0.4119 -0.0158
 4164TIP3    H234128   5.704   3.636   7.687  2.9157  0.0284 -0.6043
 4165TIP3   OH234129   4.919   5.869   7.342  0.3717  0.0778  0.4566
 4165TIP3    H134130   5.014   5.859   7.349  0.3932  0.4977  0.7556
 4165TIP3    H234131   4.907   5.959   7.312  0.1239 -0.4008 -0.9906
 4166TIP3   OH234132   5.150   2.293   0.457 -0.3724 -0.2470  0.3927
 4166TIP3    H134133   5.057   2.310   0.465 -0.2527  0.7473 -0.1806
 4166TIP3    H234134   5.190   2.339   0.532  0.0278  2.9277 -1.5601
 4167TIP3   OH234135   3.987   4.478   2.645 -0.4154 -0.5319  0.3846
 4167TIP3    H134136   3.900   4.515   2.631 -0.7112 -1.8481 -1.5694
 4167TIP3    H234137   4.039   4.508   2.571  0.6409 -0.2865  1.1963
 4168TIP3   OH234138   6.350   4.344   1.044  0.4914  0.4825  0.5440
 4168TIP3    H134139   6.404   4.273   1.078 -1.1153 -0.4941  1.2029
 4168TIP3    H234140   6.340   4.325   0.951 -2.1017 -1.8032  1.1481
 4169TIP3   OH234141   2.277   5.431   7.481 -0.0170  0.5076 -0.5382
 4169TIP3    H134142   2.338   5.358   7.482 -1.2322 -0.5456  0.7354
 4169TIP3    H234143   2.192   5.391   7.466 -0.6871  1.6595  0.0393
 4170TIP3   OH234144   0.434   1.833   1.819  0.5261 -0.5609  0.6395
 4170TIP3    H134145   0.377   1.773   1.867 -1.3287  0.1794 -0.5261
 4170TIP3    H234146   0.384   1.914   1.812  1.4515 -0.0727 -0.9450
 4171TIP3   OH234147   4.386   2.569   0.076 -0.4619  0.5070  0.1990
 4171TIP3    H134148   4.384   2.491   0.132 -0.9332 -1.3374 -2.1950
 4171TIP3    H234149   4.294   2.592   0.064 -0.3140  1.6263  1.0893
 4172TIP3   OH234150   0.814   6.254   7.324 -0.4701  0.2781  0.3195
 4172TIP3    H134151   0.832   6.348   7.334  1.4486  0.1205 -1.1823
 4172TIP3    H234152   0.739   6.238   7.381  0.0684  2.4236  1.7390
 4173TIP3   OH234153   1.618   0.970   1.164  0.1500  0.5339 -0.5756
 4173TIP3    H134154   1.691   0.932   1.115  0.7773  1.8773 -0.7415
 4173TIP3    H234155   1.656   0.994   1.249 -0.9577 -1.8933  0.7067
 4174TIP3   OH234156   2.368   0.862   6.356  0.3963  0.3164 -0.0309
 4174TIP3    H134157   2.272   0.856   6.348  0.3878 -0.1217  0.3373
 4174TIP3    H234158   2.383   0.882   6.448  0.6670  0.1587 -0.0404
 4175TIP3   OH234159   1.964   4.778   0.613 -0.2336  0.7367 -0.4403
 4175TIP3    H134160   1.932   4.688   0.605 -0.9221  1.0077 -0.8224
 4175TIP3    H234161   2.001   4.798   0.527  1.3729  0.2951  0.1041
 4176TIP3   OH234162   4.834   5.351   8.880 -0.4254  0.2570  0.1462
 4176TIP3    H134163   4.777   5.337   8.804 -1.8090  0.5607  1.0810
 4176TIP3    H234164   4.884   5.430   8.858  0.7339 -0.8353 -1.2962
 4177TIP3   OH234165   5.901   2.284   7.071  0.1910  0.0858  0.0334
 4177TIP3    H134166   5.854   2.211   7.031  0.7494 -1.5703  2.2353
 4177TIP3    H234167   5.874   2.360   7.020 -2.6755 -1.1871 -0.5672
 4178TIP3   OH234168   0.440   0.612   2.964  0.2115 -0.4426 -0.6447
 4178TIP3    H134169   0.516   0.555   2.979 -0.3205 -0.8728  0.4946
 4178TIP3    H234170   0.461   0.658   2.883  1.0878 -1.5499 -1.0733
 4179TIP3   OH234171   0.795   4.185   7.054  0.4934  0.8694  0.6721
 4179TIP3    H134172   0.818   4.182   6.961 -0.9317 -0.3739  0.3285
 4179TIP3    H234173   0.768   4.276   7.069  1.1783  1.2011  0.0121
 4180TIP3   OH234174   0.868   5.301   7.781 -0.2976 -0.3661  0.6694
 4180TIP3    H134175   0.793   5.355   7.754  0.5881  1.1882  1.1836
 4180TIP3    H234176   0.929   5.307   7.708 -0.9982 -2.3841 -0.1458
 4181TIP3   OH234177   6.598   5.288   2.262 -0.1507 -0.1119  0.1431
 4181TIP3    H134178   6.542   5.269   2.186  0.0299 -2.0142  0.4281
 4181TIP3    H234179   6.542   5.269   2.338  0.4875 -0.8899  0.4370
 4182TIP3   OH234180   3.105   1.933   8.569 -0.2860  0.6444  0.5360
 4182TIP3    H134181   3.036   1.999   8.561  0.8367  1.7270 -0.3452
 4182TIP3    H234182   3.186   1.978   8.546  0.6018 -0.8812  0.5150
 4183TIP3   OH234183   6.415   5.417   1.586 -0.5287  0.3067  0.1767
 4183TIP3    H134184   6.450   5.505   1.598  0.7757 -0.1837  0.1012
 4183TIP3    H234185   6.489   5.358   1.603 -1.8377 -0.8927  2.1831
 4184TIP3   OH234186   3.439   6.778   7.245 -0.1903 -0.2681 -0.1167
 4184TIP3    H134187   3.370   6.798   7.182  0.3745 -0.9774 -0.9672
 4184TIP3    H234188   3.465   6.863   7.280  0.6876  0.3247 -2.0987
 4185TIP3   OH234189   0.924   4.430   1.707 -0.1421  0.5798  0.3778
 4185TIP3    H134190   0.922   4.342   1.746  0.2048  0.7472  0.7847
 4185TIP3    H234191   0.874   4.484   1.768  0.9436  0.9775  0.9531
 4186TIP3   OH234192   6.721   2.629   1.623  0.7015 -0.0371 -0.5344
 4186TIP3    H134193   6.664   2.676   1.684  2.9758  0.6372  1.2221
 4186TIP3    H234194   6.755   2.697   1.565  1.1197 -0.1043 -0.3753
 4187TIP3   OH234195   6.008   0.847   1.810  0.5100  0.3241 -0.2265
 4187TIP3    H134196   6.062   0.792   1.753 -1.5539 -0.1616 -1.8423
 4187TIP3    H234197   5.957   0.785   1.862  0.8917  0.7680  0.6981
 4188TIP3   OH234198   6.775   4.976   0.765  0.4850  0.2969 -0.0906
 4188TIP3    H134199   6.740   4.954   0.679  0.2081 -2.7220  0.6758
 4188TIP3    H234200   6.709   4.944   0.827  1.8335  0.0020  1.2728
 4189TIP3   OH234201   4.528   4.470   0.808  0.0390 -0.2077 -0.1694
 4189TIP3    H134202   4.477   4.420   0.744  0.8500 -1.5679  0.2037
 4189TIP3    H234203   4.519   4.561   0.779  0.8463 -0.8044 -2.5668
 4190TIP3   OH234204   5.639   2.319   2.151  0.3713 -0.1581 -0.6467
 4190TIP3    H134205   5.705   2.386   2.168  0.1525 -0.3044  1.0005
 4190TIP3    H234206   5.673   2.241   2.195 -0.6112 -0.3938 -0.2884
 4191TIP3   OH234207   1.881   4.049   6.888  0.2720  0.1880  0.6138
 4191TIP3    H134208   1.960   4.030   6.837 -0.2359  0.0826 -0.1517
 4191TIP3    H234209   1.812   4.060   6.823 -0.5195 -0.5110  1.3069
 4192TIP3   OH234210   1.871   5.218   8.240  0.2721 -0.2925 -0.0661
 4192TIP3    H134211   1.919   5.281   8.186  1.8915 -2.4217 -1.2654
 4192TIP3    H234212   1.813   5.173   8.179  0.1295 -0.8903  0.4999
 4193TIP3   OH234213   1.752   1.277   7.581  0.5462  0.4130  0.2937
 4193TIP3    H134214   1.671   1.327   7.566  0.6347  0.1509 -1.1360
 4193TIP3    H234215   1.787   1.313   7.663 -0.6597  0.9974  0.5760
 4194TIP3   OH234216   6.352   3.522   2.018  0.0413  0.4519  0.8333
 4194TIP3    H134217   6.362   3.578   1.941  1.6607  0.3352  0.9224
 4194TIP3    H234218   6.371   3.579   2.093  2.1529 -0.2476  0.9025
 4195TIP3   OH234219   4.826   3.341   1.355  0.5840  0.2902  0.1685
 4195TIP3    H134220   4.775   3.410   1.398 -0.5623  0.9025 -2.0514
 4195TIP3    H234221   4.916   3.360   1.379  0.1060  1.3428  1.2484
 4196TIP3   OH234222   6.338   3.325   6.845 -0.3364  0.0642  0.2034
 4196TIP3    H134223   6.309   3.407   6.884  0.3877  0.5560 -0.2595
 4196TIP3    H234224   6.273   3.306   6.778 -0.7276  0.0439  0.5845
 4197TIP3   OH234225   4.588   0.147   7.078 -0.2596 -0.1744 -0.1899
 4197TIP3    H134226   4.622   0.233   7.053  1.0091 -0.7862 -0.6983
 4197TIP3    H234227   4.498   0.146   7.046  0.2484  0.3361 -1.7342
 4198TIP3   OH234228   0.325   0.922   0.615  0.1162 -0.3703 -0.1352
 4198TIP3    H134229   0.283   0.995   0.660  1.2180 -0.3617  0.9346
 4198TIP3    H234230   0.266   0.848   0.630 -1.5553  0.4651 -2.1335
 4199TIP3   OH234231   2.097   5.887   8.902 -0.3505  0.3261  0.1824
 4199TIP3    H134232   2.083   5.877   8.808  2.8391 -0.7036 -0.2782
 4199TIP3    H234233   2.050   5.812   8.940 -1.3946  0.5649 -0.5822
 4200TIP3   OH234234   0.156   4.197   2.676  0.0333  0.0355 -0.3035
 4200TIP3    H134235   0.216   4.124   2.660 -0.1718 -0.0728 -0.5968
 4200TIP3    H234236   0.192   4.269   2.624  0.2811  0.1663  0.0509
 4201TIP3   OH234237   1.119   4.080   0.358  0.2114 -0.0744  0.3179
 4201TIP3    H134238   1.186   4.050   0.419  0.8582 -1.4244 -0.9849
 4201TIP3    H234239   1.052   4.011   0.361  1.4155 -1.4942 -2.2489
 4202TIP3   OH234240   0.064   0.309   2.813 -0.1394  0.0394  0.2838
 4202TIP3    H134241   0.088   0.380   2.872 -1.3714  0.8115 -0.0923
 4202TIP3    H234242   0.069   0.230   2.866  0.7847  0.4577  0.8406
 4203TIP3   OH234243   2.554   0.861   7.490  0.2428 -0.9108 -0.6538
 4203TIP3    H134244   2.609   0.933   7.519  0.5516 -1.4916  0.2555
 4203TIP3    H234245   2.482   0.902   7.443  0.6398 -0.0421 -0.5094
 4204TIP3   OH234246   1.933   6.514   0.452 -0.5454  0.1503  0.4273
 4204TIP3    H134247   1.904   6.547   0.537 -0.8482  1.1951 -0.0578
 4204TIP3    H234248   2.016   6.560   0.435 -0.8049  0.4372 -0.1100
 4205TIP3   OH234249   1.608   0.633   0.002  0.4666 -0.0485  0.2399
 4205TIP3    H134250   1.584   0.653   0.092 -1.2455 -2.6251  0.4570
 4205TIP3    H234251   1.690   0.680  -0.012  0.0690  1.5342  2.6534
 4206TIP3   OH234252   3.097   1.691   1.711  0.4837  0.1486  0.1264
 4206TIP3    H134253   3.186   1.710   1.680 -0.0037  0.7426 -0.9703
 4206TIP3    H234254   3.091   1.734   1.796  1.1614  0.3238  0.0863
 4207TIP3   OH234255   2.805   6.432   1.221  0.1172 -0.1899 -0.0859
 4207TIP3    H134256   2.898   6.424   1.244  0.1789  2.9268  1.3226
 4207TIP3    H234257   2.805   6.477   1.137 -0.1004 -0.0115  0.0079
 4208TIP3   OH234258   1.090   1.403   7.678 -0.5384  0.2474  0.3813
 4208TIP3    H134259   1.050   1.320   7.702  0.6890 -0.5876 -0.3401
 4208TIP3    H234260   1.049   1.426   7.594 -0.5735  0.1531  0.3725
 4209TIP3   OH234261   0.386   3.219   7.714 -0.0768  0.3731  0.5403
 4209TIP3    H134262   0.306   3.175   7.683 -0.3764  1.2508  0.0317
 4209TIP3    H234263   0.447   3.147   7.733  0.0625 -0.2339 -1.9148
 4210TIP3   OH234264   3.672   0.681   1.228 -0.1361 -0.3248 -0.0364
 4210TIP3    H134265   3.703   0.757   1.178 -0.3073 -0.6889 -0.7082
 4210TIP3    H234266   3.589   0.710   1.266  0.4461  0.2615  0.8030
 4211TIP3   OH234267   5.773   4.202   6.667 -0.4930 -0.1904  0.4302
 4211TIP3    H134268   5.788   4.248   6.749 -0.2447 -0.8474  0.7658
 4211TIP3    H234269   5.801   4.112   6.684  0.0606 -0.2190 -0.5347
 4212TIP3   OH234270   3.555   3.568   7.180 -0.0522  0.0805  0.4658
 4212TIP3    H134271   3.627   3.631   7.186 -0.4733  0.6852 -0.4783
 4212TIP3    H234272   3.542   3.556   7.086 -1.8629  0.8222  0.5696
 4213TIP3   OH234273   5.071   1.920   6.639 -0.0608 -0.3533  0.5562
 4213TIP3    H134274   5.155   1.965   6.626  1.6478 -3.3265  0.4655
 4213TIP3    H234275   5.025   1.930   6.556  0.6196  0.4867  0.2666
 4214TIP3   OH234276   3.784   2.017   1.172 -0.3844  0.4638  0.0785
 4214TIP3    H134277   3.875   2.031   1.195  0.0249 -0.8801 -0.6098
 4214TIP3    H234278   3.764   2.086   1.108  0.4519  0.1882 -0.5029
 4215TIP3   OH234279   6.749   5.406   7.945  1.0677 -0.2588  0.1339
 4215TIP3    H134280   6.836   5.402   7.905  1.7968  2.9319  1.1469
 4215TIP3    H234281   6.766   5.392   8.038  0.2781 -0.9121  0.1903
 4216TIP3   OH234282   6.800   3.307   2.205 -0.2737 -0.1022 -0.2065
 4216TIP3    H134283   6.773   3.317   2.114 -2.9635 -0.6891  0.4422
 4216TIP3    H234284   6.760   3.381   2.251 -0.1757 -0.6012  0.7219
 4217TIP3   OH234285   6.096   5.863   1.688  0.6406 -0.0720 -0.1148
 4217TIP3    H134286   6.171   5.892   1.637  2.6949 -0.7440  2.3409
 4217TIP3    H234287   6.128   5.788   1.738 -1.5919 -0.2329  1.2354
 4218TIP3   OH234288   5.953   2.072   6.369 -0.2119 -0.1784  0.2139
 4218TIP3    H134289   5.991   2.000   6.420  1.4817  1.7117  1.7740
 4218TIP3    H234290   5.893   2.116   6.429 -1.8477 -0.6877 -0.9737
 4219TIP3   OH234291   0.038   5.740   7.876  0.5668  0.2401  0.4548
 4219TIP3    H134292   0.110   5.677   7.874 -2.2173 -3.1718  0.5399
 4219TIP3    H234293   0.072   5.816   7.827  3.5038 -1.9664 -1.2457
 4220TIP3   OH234294   0.813   6.222   8.454 -0.5421 -0.6471 -0.1726
 4220TIP3    H134295   0.761   6.180   8.385  0.0824 -1.4304 -0.1714
 4220TIP3    H234296   0.778   6.185   8.536  0.1273 -1.3097 -0.1808
 4221TIP3   OH234297   4.418   0.906   0.930  0.5712 -0.1563 -0.3937
 4221TIP3    H134298   4.390   0.846   0.862 -1.3889  0.5087 -0.2381
 4221TIP3    H234299   4.387   0.866   1.011  0.3847  0.4461 -0.1657
 4222TIP3   OH234300   6.164   4.013   1.163  0.0012  0.3284 -0.3421
 4222TIP3    H134301   6.227   3.940   1.164 -1.7162 -1.2255  0.9610
 4222TIP3    H234302   6.144   4.026   1.071  1.4768  0.2022 -0.7042
 4223TIP3   OH234303   5.806   5.264   1.337  0.3611  0.0787 -0.2843
 4223TIP3    H134304   5.843   5.320   1.406  0.2545  0.4909 -0.5589
 4223TIP3    H234305   5.760   5.325   1.279 -2.5466 -0.5448  1.1433
 4224TIP3   OH234306   5.941   2.863   7.348 -0.6033  0.2954  0.2636
 4224TIP3    H134307   6.003   2.933   7.369  0.4693 -0.4190 -0.4200
 4224TIP3    H234308   5.970   2.829   7.263 -0.6071 -1.4954  0.9287
 4225TIP3   OH234309   4.725   5.194   2.091 -0.0300 -0.5019  0.0214
 4225TIP3    H134310   4.681   5.117   2.125  0.2461  0.0663  1.7967
 4225TIP3    H234311   4.812   5.191   2.131 -0.7352  1.8377  1.9977
 4226TIP3   OH234312   2.083   3.677   8.468  0.3128 -0.7067 -0.0269
 4226TIP3    H134313   2.098   3.766   8.498  2.7974 -0.5643 -1.4458
 4226TIP3    H234314   1.993   3.677   8.436 -0.8436  0.3649  2.8259
 4227TIP3   OH234315   3.493   3.151   8.556 -0.5916  0.8025  0.3077
 4227TIP3    H134316   3.470   3.063   8.527 -0.2388  0.6200  0.5789
 4227TIP3    H234317   3.589   3.154   8.552 -0.4924  0.6212  1.8709
 4228TIP3   OH234318   0.925   1.948   8.775  0.2112  0.2655 -0.5557
 4228TIP3    H134319   0.937   1.945   8.870  3.1104 -0.9562 -0.8659
 4228TIP3    H234320   0.896   2.037   8.758 -0.8417  0.3833  1.4808
 4229TIP3   OH234321   5.488   2.850   8.681 -0.3701 -0.1712  0.1432
 4229TIP3    H134322   5.481   2.777   8.619  1.0448 -0.4759  0.3142
 4229TIP3    H234323   5.415   2.838   8.741 -1.1267 -0.4880 -0.8083
 4230TIP3   OH234324   5.977   6.578   7.177 -0.0287 -0.3884 -0.2562
 4230TIP3    H134325   5.997   6.490   7.208 -0.5463  0.0817  1.5213
 4230TIP3    H234326   6.054   6.630   7.200 -0.7228  0.1270  1.0215
 4231TIP3   OH234327   5.424   1.397   1.756 -0.3606  0.1092  0.3291
 4231TIP3    H134328   5.454   1.487   1.757  0.6653 -0.0910 -2.6446
 4231TIP3    H234329   5.425   1.370   1.848  2.2810  2.1665  1.0327
 4232TIP3   OH234330   3.097   6.009   8.629 -0.4971 -0.3789  0.0004
 4232TIP3    H134331   3.011   6.052   8.629 -0.4850 -0.3458  0.6562
 4232TIP3    H234332   3.107   5.976   8.719  1.1555  1.5520  0.6098
 4233TIP3   OH234333   5.040   1.112   7.226  0.4457  0.6574 -0.5470
 4233TIP3    H134334   5.125   1.073   7.208  0.9055  0.8599  1.0241
 4233TIP3    H234335   5.019   1.163   7.148  1.6191  0.3646 -1.0673
 4234TIP3   OH234336   5.107   2.031   1.401 -0.1391  0.3275 -0.3192
 4234TIP3    H134337   5.151   2.059   1.481  1.1297 -0.5644 -0.6820
 4234TIP3    H234338   5.175   2.034   1.334 -0.7421 -0.6683 -0.9884
 4235TIP3   OH234339   1.661   0.375   8.340  0.1037 -0.1208 -0.3779
 4235TIP3    H134340   1.618   0.456   8.366 -0.3151 -0.5675  0.3616
 4235TIP3    H234341   1.642   0.314   8.411  0.9061 -0.6975 -0.6391
 4236TIP3   OH234342   0.895   6.377   8.230 -0.3567 -0.0347 -0.3318
 4236TIP3    H134343   0.913   6.443   8.296  0.4127 -0.1456 -0.4159
 4236TIP3    H234344   0.870   6.299   8.280  1.0173 -0.3642 -0.1054
 4237TIP3   OH234345   1.905   4.996   1.464 -0.3972 -0.5915 -0.0052
 4237TIP3    H134346   1.977   4.968   1.406  0.1022 -0.5942  0.5998
 4237TIP3    H234347   1.893   4.923   1.524 -0.9982 -0.6388 -0.1784
 4238TIP3   OH234348   1.039   3.740   7.030 -0.1413 -0.4031  0.3291
 4238TIP3    H134349   1.127   3.743   6.993  0.4006 -3.0057  1.1971
 4238TIP3    H234350   0.982   3.768   6.959  1.2164 -0.7144 -0.9280
 4239TIP3   OH234351   6.046   2.201   2.551  0.6348  0.0576 -0.0525
 4239TIP3    H134352   6.141   2.192   2.565  1.1873  0.6672 -2.8418
 4239TIP3    H234353   6.011   2.113   2.564  1.4708 -0.0942  1.4601
 4240TIP3   OH234354   6.570   2.251   1.684 -0.1771  0.2284  0.2386
 4240TIP3    H134355   6.488   2.235   1.731 -0.3988 -0.3547 -0.3240
 4240TIP3    H234356   6.553   2.332   1.635 -0.1956  0.4501  0.6110
 4241TIP3   OH234357   5.653   2.010   7.562 -0.2538  0.1852 -0.0336
 4241TIP3    H134358   5.626   2.073   7.495 -0.0116 -0.0533 -0.3605
 4241TIP3    H234359   5.585   1.943   7.562 -0.1100  0.0375 -0.2438
 4242TIP3   OH234360   5.911   2.946   1.645  0.4776 -0.7338  0.1867
 4242TIP3    H134361   5.894   3.040   1.640  2.0870 -0.3589  1.1376
 4242TIP3    H234362   5.990   2.933   1.593  0.5325 -1.4867  0.4525
 4243TIP3   OH234363   5.828   2.977   7.797  0.1693  0.1977 -0.2881
 4243TIP3    H134364   5.897   2.953   7.734 -0.7672  1.0017 -1.6768
 4243TIP3    H234365   5.762   3.021   7.744 -0.0683  2.0996  1.4772
 4244TIP3   OH234366   6.782   4.301   0.774  0.0406  0.2569 -0.0135
 4244TIP3    H134367   6.875   4.300   0.794 -0.2617  2.3455  1.8344
 4244TIP3    H234368   6.776   4.347   0.690  0.6089  1.1840  0.4392
 4245TIP3   OH234369   6.712   3.664   7.791 -1.0360  0.6825 -0.4445
 4245TIP3    H134370   6.800   3.672   7.755 -1.6792 -1.6075 -2.8028
 4245TIP3    H234371   6.661   3.731   7.746 -0.7858  1.1488 -0.0397
 4246TIP3   OH234372   1.605   4.971   0.686  0.4791 -0.2010  0.7045
 4246TIP3    H134373   1.534   4.955   0.748  0.9436  0.3217  1.3873
 4246TIP3    H234374   1.622   4.885   0.647  0.2165 -0.5565  1.3486
 4247TIP3   OH234375   4.826   5.268   7.423 -0.1881 -0.0554  0.3735
 4247TIP3    H134376   4.840   5.363   7.427 -0.8920  0.1134 -0.7004
 4247TIP3    H234377   4.869   5.234   7.501  1.9143  0.9255 -0.2859
 4248TIP3   OH234378   1.703   2.298   0.482  0.0023 -0.4176 -0.0619
 4248TIP3    H134379   1.750   2.366   0.433 -0.6066  0.3605  0.4127
 4248TIP3    H234380   1.614   2.331   0.489  0.1430 -0.3385  1.8546
 4249TIP3   OH234381   6.651   5.097   6.883  0.3519 -0.1153  0.2277
 4249TIP3    H134382   6.725   5.074   6.939 -0.5937  0.4657  1.7800
 4249TIP3    H234383   6.575   5.090   6.940 -0.6634  0.5413 -0.9904
 4250TIP3   OH234384   2.688   6.034   1.184  0.0365 -0.1438  0.4718
 4250TIP3    H134385   2.665   5.943   1.167  0.4329 -0.1818  0.1205
 4250TIP3    H234386   2.775   6.029   1.225 -0.3424  0.0239  1.3154
 4251TIP3   OH234387   4.520   3.579   1.947  0.1161  0.0981 -0.0833
 4251TIP3    H134388   4.490   3.666   1.920  1.1688 -0.0786 -2.0102
 4251TIP3    H234389   4.545   3.536   1.865  0.1155 -1.8472  0.8761
 4252TIP3   OH234390   3.012   6.498   1.963  0.2626  0.0753 -0.3430
 4252TIP3    H134391   3.082   6.542   2.009 -0.9909  1.8435 -0.0069
 4252TIP3    H234392   2.969   6.444   2.029 -0.7066  1.5752  0.3099
 4253TIP3   OH234393   0.719   2.731   8.695  0.2993 -0.2506 -0.1027
 4253TIP3    H134394   0.698   2.813   8.740  1.0531  1.3721 -2.5226
 4253TIP3    H234395   0.814   2.723   8.701  0.3579 -0.2718 -0.9548
 4254TIP3   OH234396   5.437   1.675   2.108  0.6558 -0.5486 -0.1678
 4254TIP3    H134397   5.451   1.680   2.014  1.9632  1.3310  0.0820
 4254TIP3    H234398   5.373   1.744   2.127  0.0595 -1.2041  0.2977
 4255TIP3   OH234399   0.817   3.661   1.533 -0.0093  0.0391  0.1669
 4255TIP3    H134400   0.910   3.685   1.527 -0.2901  1.1720  0.1400
 4255TIP3    H234401   0.771   3.731   1.485 -0.8486 -0.7379 -0.1889
 4256TIP3   OH234402   3.495   3.663   1.628 -0.0866  0.7990  0.1150
 4256TIP3    H134403   3.459   3.603   1.694 -0.1300  1.1348  0.3963
 4256TIP3    H234404   3.516   3.743   1.677 -1.1817  1.4726 -0.4729
 4257TIP3   OH234405   2.019   3.879   1.831  0.0612  0.0595 -0.1539
 4257TIP3    H134406   1.947   3.851   1.774  0.2991 -2.9063  0.8443
 4257TIP3    H234407   2.064   3.947   1.780 -2.1522  0.5180 -1.6877
 4258TIP3   OH234408   3.725   4.632   1.473  0.2844  0.6606  1.0205
 4258TIP3    H134409   3.644   4.592   1.505 -1.2693  1.3441 -1.7487
 4258TIP3    H234410   3.731   4.715   1.520  0.2806 -0.0884  2.3927
 4259TIP3   OH234411   1.514   1.553   0.372 -0.2886  0.3564 -0.1031
 4259TIP3    H134412   1.439   1.607   0.350 -0.0910  0.1672 -1.2710
 4259TIP3    H234413   1.585   1.616   0.389 -0.7608  0.5455  1.2868
 4260TIP3   OH234414   1.455   4.884   0.107 -0.4168 -0.0382 -0.5923
 4260TIP3    H134415   1.517   4.874   0.034  0.1381 -0.3772 -0.0830
 4260TIP3    H234416   1.384   4.823   0.087 -0.2901 -0.0958 -0.8699
 4261TIP3   OH234417   0.555   1.510   0.697 -0.1740  0.1651 -0.0622
 4261TIP3    H134418   0.632   1.498   0.753 -0.0723  0.3686 -0.1576
 4261TIP3    H234419   0.591   1.513   0.608 -0.1156  1.7748 -0.0133
 4262TIP3   OH234420   2.393   5.185   0.500 -0.0943  0.1361  0.2830
 4262TIP3    H134421   2.376   5.228   0.416 -2.0593 -1.3310 -0.1386
 4262TIP3    H234422   2.401   5.257   0.563 -0.1247  1.2101 -0.9072
 4263TIP3   OH234423   4.579   1.270   7.650 -0.8677  0.1939  0.3144
 4263TIP3    H134424   4.501   1.276   7.704 -0.7596 -0.0837  0.5027
 4263TIP3    H234425   4.652   1.280   7.711 -0.7092 -1.4144  0.4246
 4264TIP3   OH234426   2.787   4.832   8.014 -0.4854 -0.2758  0.4918
 4264TIP3    H134427   2.861   4.793   7.967 -0.4610  0.9861 -0.5546
 4264TIP3    H234428   2.824   4.856   8.100 -0.4051 -2.1173  1.0029
 4265TIP3   OH234429   1.910   4.928   8.138 -0.0507  0.0909 -0.1835
 4265TIP3    H134430   1.909   5.020   8.112  1.4858 -0.6358 -3.3145
 4265TIP3    H234431   1.893   4.880   8.057 -1.3562 -2.4174  1.4567
 4266TIP3   OH234432   5.637   5.198   7.249 -0.1589  0.0895 -0.0791
 4266TIP3    H134433   5.705   5.133   7.265 -0.0321  0.5151  1.2079
 4266TIP3    H234434   5.605   5.178   7.161  1.8141  0.0766 -0.8256
 4267TIP3   OH234435   4.806   6.534   1.287  0.1133  0.3386  0.1411
 4267TIP3    H134436   4.857   6.485   1.351 -0.3297 -1.0884 -0.5541
 4267TIP3    H234437   4.770   6.608   1.336 -0.8624 -1.1314  1.7498
 4268TIP3   OH234438   3.636   4.177   2.217 -0.3845  0.2220 -0.9008
 4268TIP3    H134439   3.665   4.219   2.298  0.5252 -0.8514 -0.6416
 4268TIP3    H234440   3.544   4.202   2.209  0.0025  1.8983 -0.5524
 4269TIP3   OH234441   0.650   4.992   1.155  0.8718  0.1596 -0.1779
 4269TIP3    H134442   0.711   4.980   1.082 -0.5222  1.6661 -1.6805
 4269TIP3    H234443   0.585   5.053   1.122  0.2128  0.9722  2.3860
 4270TIP3   OH234444   2.825   1.649   1.554  0.1040 -0.0480  0.3864
 4270TIP3    H134445   2.812   1.646   1.459 -0.4916  1.8356  0.3732
 4270TIP3    H234446   2.916   1.676   1.565  0.3421 -0.8343  0.3604
 4271TIP3   OH234447   1.496   3.885   8.588 -0.3152 -0.7681 -0.4109
 4271TIP3    H134448   1.489   3.852   8.677 -1.1547 -0.9460 -0.5344
 4271TIP3    H234449   1.468   3.812   8.532 -1.2631 -0.1927 -0.7296
 4272TIP3   OH234450   5.286   4.115   2.503 -0.6479 -0.0307  0.0008
 4272TIP3    H134451   5.198   4.150   2.494 -0.1897  2.3875  3.0294
 4272TIP3    H234452   5.342   4.177   2.456 -0.3618 -0.2789  0.0082
 4273TIP3   OH234453   1.177   0.163   7.262 -0.3954 -0.2623 -0.2173
 4273TIP3    H134454   1.227   0.130   7.188  0.8562 -0.5647  0.7258
 4273TIP3    H234455   1.104   0.102   7.271  0.1683 -0.9782 -0.4165
 4274TIP3   OH234456   6.283   4.429   7.876  0.3632 -0.2333 -0.0375
 4274TIP3    H134457   6.222   4.431   7.803 -0.0273  2.1113  0.2929
 4274TIP3    H234458   6.367   4.404   7.837  0.3650  1.8456 -1.4833
 4275TIP3   OH234459   0.066   5.451   6.735 -0.0462  1.0518  0.4186
 4275TIP3    H134460   0.010   5.523   6.765 -1.1820 -0.5518  2.4589
 4275TIP3    H234461   0.138   5.449   6.799  0.0636  0.5008  0.2810
 4276TIP3   OH234462   3.392   2.732   1.484  1.0713  0.1864  0.0922
 4276TIP3    H134463   3.444   2.811   1.474  1.0007  0.5666  2.2489
 4276TIP3    H234464   3.301   2.762   1.482  1.0499  0.2512  1.3262
 4277TIP3   OH234465   1.790   2.846   1.027 -0.0297  0.0251 -0.2466
 4277TIP3    H134466   1.737   2.779   1.069  1.2911  0.1841  1.8049
 4277TIP3    H234467   1.729   2.918   1.010 -1.3752 -1.4836 -2.1255
 4278TIP3   OH234468   3.334   3.702   8.201 -0.1184 -0.2250  0.6644
 4278TIP3    H134469   3.271   3.653   8.254  0.1296 -0.2670  0.9278
 4278TIP3    H234470   3.283   3.771   8.160 -0.6661 -1.2917 -0.4925
 4279TIP3   OH234471   2.624   3.125   2.411 -0.0429  0.4330  0.3830
 4279TIP3    H134472   2.680   3.065   2.460  0.8517  0.7469 -0.2351
 4279TIP3    H234473   2.678   3.201   2.395 -0.2060  0.2316 -1.3237
 4280TIP3   OH234474   0.690   3.687   0.261  0.0579 -0.2590 -0.2162
 4280TIP3    H134475   0.778   3.726   0.258 -0.4657  1.0560  0.6069
 4280TIP3    H234476   0.657   3.711   0.347 -0.3003 -2.6066  0.3563
 4281TIP3   OH234477   5.440   1.292   6.339  0.1270  0.6204 -0.1662
 4281TIP3    H134478   5.455   1.376   6.384 -1.4015 -0.1668  2.0047
 4281TIP3    H234479   5.526   1.250   6.336  0.6077  1.5452  0.2635
 4282TIP3   OH234480   2.129   1.245   1.060  0.0554 -0.3444 -0.0154
 4282TIP3    H134481   2.161   1.318   1.112 -0.6363 -0.6708  0.8870
 4282TIP3    H234482   2.209   1.200   1.031  0.4831  0.6879 -0.5101
 4283TIP3   OH234483   4.562   0.853   6.633 -0.4216 -0.0052 -0.3845
 4283TIP3    H134484   4.478   0.893   6.610 -1.4081 -2.0538 -0.6144
 4283TIP3    H234485   4.562   0.769   6.586  1.1205 -0.6803  0.7339
 4284TIP3   OH234486   5.288   1.626   1.554 -0.1681  0.3131  0.5200
 4284TIP3    H134487   5.322   1.540   1.530 -0.4630  0.2477  0.3335
 4284TIP3    H234488   5.240   1.611   1.636  1.1559  0.6055  1.3741
 4285TIP3   OH234489   3.169   4.836   1.234  0.1829  0.5012  0.0375
 4285TIP3    H134490   3.255   4.844   1.195  1.4729  0.8942  2.7414
 4285TIP3    H234491   3.130   4.923   1.226  1.3401  1.1908  1.4939
 4286TIP3   OH234492   5.098   0.554   8.722 -0.0336  0.6134  0.5983
 4286TIP3    H134493   5.135   0.527   8.639 -0.4183  1.4593  0.1439
 4286TIP3    H234494   5.170   0.596   8.769  0.3091 -0.2912  0.9055
 4287TIP3   OH234495   2.677   4.526   1.586 -0.4212  0.1205  0.4624
 4287TIP3    H134496   2.695   4.611   1.626 -0.1515 -0.5091  1.7193
 4287TIP3    H234497   2.762   4.484   1.579 -0.5781 -0.1266  0.0225
 4288TIP3   OH234498   3.462   0.678   1.425 -0.6551  0.3869  0.1179
 4288TIP3    H134499   3.435   0.743   1.489  0.1253  0.5239  0.3145
 4288TIP3    H234500   3.384   0.623   1.412 -1.0508  0.8290  0.5948
 4289TIP3   OH234501   3.231   0.365   0.418 -0.1604 -0.1027  0.1845
 4289TIP3    H134502   3.287   0.421   0.364 -0.8610  0.9396  0.4942
 4289TIP3    H234503   3.203   0.295   0.358  0.5838 -0.0245 -0.2657
 4290TIP3   OH234504   5.205   5.212   7.201 -0.0025 -0.1757 -0.2866
 4290TIP3    H134505   5.227   5.216   7.294 -1.2558 -0.3046  0.0412
 4290TIP3    H234506   5.284   5.241   7.155  1.3277 -2.0064  0.7271
 4291TIP3   OH234507   5.563   0.848   1.557 -0.6429  0.0848 -0.5150
 4291TIP3    H134508   5.515   0.767   1.575 -1.2033  0.0836 -1.8975
 4291TIP3    H234509   5.654   0.820   1.550 -0.8394 -0.4541 -1.0402
 4292TIP3   OH234510   2.443   6.161   0.472 -0.1351  0.2001 -0.5388
 4292TIP3    H134511   2.524   6.117   0.446  1.1909  1.7158  0.8197
 4292TIP3    H234512   2.448   6.165   0.567 -1.6845  0.6055 -0.4493
 4293TIP3   OH234513   1.146   0.882   1.281  0.1887 -0.3820  0.7404
 4293TIP3    H134514   1.056   0.910   1.267  0.0712 -0.8241  0.6154
 4293TIP3    H234515   1.188   0.957   1.323 -0.4386 -0.4698  1.5276
 4294TIP3   OH234516   4.831   1.891   0.614 -0.2605 -0.0043  0.7525
 4294TIP3    H134517   4.843   1.808   0.662 -0.6345 -1.4763 -1.5539
 4294TIP3    H234518   4.909   1.942   0.635  0.9164 -1.7144  0.7861
 4295TIP3   OH234519   2.561   2.765   0.088 -0.1514  0.5290 -0.3562
 4295TIP3    H134520   2.605   2.850   0.094  1.0586 -0.1300  0.6711
 4295TIP3    H234521   2.533   2.746   0.178  0.7772 -0.7353 -0.3012
 4296TIP3   OH234522   5.970   1.238   7.435  0.0631 -0.2385  0.2213
 4296TIP3    H134523   5.881   1.207   7.422 -0.2460  0.2806  0.9817
 4296TIP3    H234524   5.991   1.288   7.356 -0.0264 -1.0189 -0.2961
 4297TIP3   OH234525   4.844   4.075   1.578  0.0676  0.3019 -0.0743
 4297TIP3    H134526   4.794   3.994   1.565 -0.4047  0.4658  0.7150
 4297TIP3    H234527   4.795   4.141   1.530 -1.0064  0.6515  1.4313
 4298TIP3   OH234528   4.296   3.289   7.901 -0.2746 -0.0453  0.1128
 4298TIP3    H134529   4.262   3.264   7.987 -2.9107  1.5085 -0.3734
 4298TIP3    H234530   4.232   3.256   7.839 -0.7309  2.4737 -0.9064
 4299TIP3   OH234531   4.634   6.071   1.660  0.0791  0.1732 -0.2666
 4299TIP3    H134532   4.563   6.020   1.699  0.8660  0.6257  1.8902
 4299TIP3    H234533   4.649   6.029   1.575 -0.1553 -2.4226  0.8597
 4300TIP3   OH234534   4.924   0.623   1.239  0.2605  0.1724 -0.7740
 4300TIP3    H134535   4.842   0.573   1.243  0.5694 -0.3017 -0.2619
 4300TIP3    H234536   4.939   0.652   1.329  0.6144  0.3278 -0.8828
 4301TIP3   OH234537   2.700   1.027   0.552 -0.5546 -0.2637 -0.1285
 4301TIP3    H134538   2.752   1.022   0.632 -1.2778  0.8269  0.4361
 4301TIP3    H234539   2.611   1.005   0.580 -0.8242  0.1763 -0.6233
 4302TIP3   OH234540   2.309   3.920   8.068 -0.4326  0.2538 -0.2842
 4302TIP3    H134541   2.323   3.945   7.977  1.7972  0.8664  0.1660
 4302TIP3    H234542   2.378   3.856   8.087 -1.1227 -0.1887  0.8596
 4303TIP3   OH234543   1.241   6.327   2.543  0.1625 -0.0940 -0.3514
 4303TIP3    H134544   1.219   6.387   2.472  0.0620  0.6819  0.3251
 4303TIP3    H234545   1.230   6.379   2.623  0.7875 -0.7998  0.2063
 4304TIP3   OH234546   4.338   1.676   7.908 -0.3326 -0.5853  0.1635
 4304TIP3    H134547   4.244   1.662   7.900 -0.5885  1.6431 -1.7536
 4304TIP3    H234548   4.374   1.656   7.822  0.3460  2.0776 -0.2771
 4305TIP3   OH234549   1.343   4.452   0.002 -0.0720 -0.0690 -0.2520
 4305TIP3    H134550   1.354   4.370   0.050  2.3916  0.1047 -0.3849
 4305TIP3    H234551   1.293   4.428  -0.076  0.7392 -1.4818 -0.3706
 4306TIP3   OH234552   2.395   6.487   0.127 -0.0004 -0.0415 -0.1049
 4306TIP3    H134553   2.416   6.449   0.042  0.0870 -1.0484  0.3599
 4306TIP3    H234554   2.404   6.415   0.189 -1.5904  0.2899  0.5583
 4307TIP3   OH234555   0.473   6.654   8.503 -0.5084 -0.2995  0.1209
 4307TIP3    H134556   0.505   6.601   8.430  0.8558  0.3496  0.2207
 4307TIP3    H234557   0.539   6.642   8.572 -0.1068  1.6185  0.1048
 4308TIP3   OH234558   1.437   2.512   0.638 -0.5460 -0.3193  0.0604
 4308TIP3    H134559   1.452   2.497   0.545 -1.6691  0.7098 -0.3122
 4308TIP3    H234560   1.489   2.589   0.659 -0.0318 -0.7428  0.3814
 4309TIP3   OH234561   4.634   3.650   0.285  0.2924 -0.6809 -0.2484
 4309TIP3    H134562   4.554   3.697   0.262  1.3132  0.9129 -0.6379
 4309TIP3    H234563   4.603   3.572   0.332 -1.4383  0.3075  0.3209
 4310TIP3   OH234564   1.206   2.836   0.530 -0.5639 -0.3460 -0.7977
 4310TIP3    H134565   1.281   2.847   0.473 -0.4740 -0.3569 -0.6826
 4310TIP3    H234566   1.210   2.745   0.559 -0.8193 -0.4416 -1.0682
 4311TIP3   OH234567   2.149   0.313   2.214 -0.5986 -0.3616  0.5379
 4311TIP3    H134568   2.226   0.299   2.269  1.6066  0.8639 -2.0329
 4311TIP3    H234569   2.111   0.226   2.205  1.0633 -1.1983  1.1021
 4312TIP3   OH234570   4.644   1.460   1.650 -0.4347 -0.5854  0.2467
 4312TIP3    H134571   4.588   1.493   1.580 -0.0315  1.0890  0.6866
 4312TIP3    H234572   4.584   1.425   1.715 -0.8514 -1.1720 -0.4428
 4313TIP3   OH234573   0.935   1.223   0.094 -0.0211 -0.1998  0.1555
 4313TIP3    H134574   0.924   1.203   0.188  1.3714  3.5608  1.2853
 4313TIP3    H234575   0.846   1.238   0.062 -0.5580 -1.9607  0.6688
 4314TIP3   OH234576   1.383   2.086   1.179  0.4034 -0.1151 -0.1221
 4314TIP3    H134577   1.363   2.102   1.271 -0.4477  1.9340 -0.6037
 4314TIP3    H234578   1.473   2.055   1.179  0.1597 -0.9382  1.4439
 4315TIP3   OH234579   0.660   5.576   0.100 -0.1291 -0.0066 -0.1561
 4315TIP3    H134580   0.692   5.582   0.190  0.7688 -1.3609 -0.3461
 4315TIP3    H234581   0.616   5.491   0.096  0.4395 -0.2723 -1.1609
 4316TIP3   OH234582   6.363   5.960   1.590 -0.3810  0.1821  0.0222
 4316TIP3    H134583   6.373   6.044   1.634 -1.0846  1.1246 -1.5729
 4316TIP3    H234584   6.429   5.960   1.521 -0.0156 -0.8208  0.3482
 4317TIP3   OH234585   0.505   5.294   1.665  0.5480  0.2979  0.3880
 4317TIP3    H134586   0.585   5.330   1.626  0.9564 -2.1987 -1.3466
 4317TIP3    H234587   0.503   5.330   1.753  2.1800  2.4715 -0.3649
 4318TIP3   OH234588   2.197   5.444   0.907 -0.4328 -0.1298 -0.1483
 4318TIP3    H134589   2.248   5.420   0.984 -0.5814  1.1265  0.3748
 4318TIP3    H234590   2.118   5.389   0.912  0.9793 -2.3896 -1.1896
 4319TIP3   OH234591   1.392   0.418   6.829 -0.0086  0.3948  0.1087
 4319TIP3    H134592   1.366   0.510   6.831 -0.9216  0.1314  1.5121
 4319TIP3    H234593   1.324   0.375   6.777 -0.4631  0.2721  0.7929
 4320TIP3   OH234594   3.310   1.400   0.303  0.2758 -0.2443 -0.0250
 4320TIP3    H134595   3.332   1.359   0.219  0.9932  1.2314 -0.5952
 4320TIP3    H234596   3.219   1.428   0.292  0.2148 -0.4795 -0.1275
 4321TIP3   OH234597   3.531   2.185   1.567  0.2982 -0.8184  0.4486
 4321TIP3    H134598   3.520   2.131   1.489 -0.1006 -1.6820  1.0801
 4321TIP3    H234599   3.621   2.166   1.596  0.5221 -0.3284  0.0778
 4322TIP3   OH234600   5.590   1.527   0.717 -0.0572 -0.2576 -0.3069
 4322TIP3    H134601   5.527   1.455   0.714 -2.8072  1.9500  0.5421
 4322TIP3    H234602   5.619   1.537   0.626  2.7058 -4.1197 -0.1135
 4323TIP3   OH234603   4.724   2.779   0.983 -0.4802 -0.6301 -0.2279
 4323TIP3    H134604   4.629   2.771   0.984 -0.5526  0.1115  0.9168
 4323TIP3    H234605   4.749   2.777   1.076  0.5612 -0.2608 -0.4845
 4324TIP3   OH234606   0.248   1.559   8.044 -0.0652 -0.2607  0.0586
 4324TIP3    H134607   0.156   1.585   8.048 -0.3971 -1.2698 -0.6137
 4324TIP3    H234608   0.278   1.564   8.135 -0.4200  1.2873  0.1133
 4325TIP3   OH234609   5.621   4.952   0.424  0.1453 -0.3218 -0.6996
 4325TIP3    H134610   5.583   4.910   0.347 -0.5902 -0.4949 -0.2538
 4325TIP3    H234611   5.673   4.884   0.466 -1.6002 -1.0519  0.4033
 4326TIP3   OH234612   6.651   6.553   0.432  0.1232  0.0238 -0.2068
 4326TIP3    H134613   6.673   6.494   0.360  0.2324 -0.7548  0.4431
 4326TIP3    H234614   6.734   6.565   0.478 -0.2194 -0.6681  0.6265
 4327TIP3   OH234615   5.578   0.234   2.300  0.4656 -0.0685 -0.0211
 4327TIP3    H134616   5.638   0.215   2.228  2.0725 -1.2452  1.5303
 4327TIP3    H234617   5.631   0.226   2.379 -1.0253  1.9638  1.3128
 4328TIP3   OH234618   2.816   4.716   8.666 -0.2607  0.2727  0.5127
 4328TIP3    H134619   2.879   4.671   8.610 -0.9584  1.0426 -0.9766
 4328TIP3    H234620   2.856   4.801   8.684 -0.3825  0.3314  0.5100
 4329TIP3   OH234621   2.299   4.948   0.405  0.1016  0.1136 -0.7754
 4329TIP3    H134622   2.244   5.009   0.355 -1.6535 -1.2530 -0.6050
 4329TIP3    H234623   2.367   5.003   0.443 -1.3410  1.9647 -0.7274
 4330TIP3   OH234624   4.916   5.317   1.710 -0.0018  0.5921 -0.7915
 4330TIP3    H134625   5.000   5.309   1.756  0.4610 -0.1727 -1.7513
 4330TIP3    H234626   4.923   5.399   1.661  0.5128  0.1318 -1.5053
 4331TIP3   OH234627   0.594   0.674   7.165 -0.3807  0.1718 -0.4945
 4331TIP3    H134628   0.657   0.638   7.102 -2.3127 -1.1385 -1.7672
 4331TIP3    H234629   0.552   0.746   7.118  0.7361  1.6614  0.6823
 4332TIP3   OH234630   0.134   3.875   1.499  0.1415 -0.5281  0.0536
 4332TIP3    H134631   0.219   3.840   1.523 -0.4269 -0.2380  2.8981
 4332TIP3    H234632   0.148   3.970   1.494  0.0951 -0.5208  0.0600
 4333TIP3   OH234633   0.075   4.545   1.771 -0.0054 -0.7167 -0.4552
 4333TIP3    H134634   0.129   4.559   1.693 -0.8956  2.2554 -0.6657
 4333TIP3    H234635  -0.010   4.520   1.737 -0.0512 -0.6698 -0.3763
 4334TIP3   OH234636   5.430   2.948   1.361 -0.0066  0.2939  0.4664
 4334TIP3    H134637   5.407   2.869   1.311 -1.4683  1.1488 -0.3054
 4334TIP3    H234638   5.400   3.020   1.305  1.1169  1.3978  1.2426
 4335TIP3   OH234639   5.069   2.374   1.112  0.4779  0.7575 -0.0102
 4335TIP3    H134640   5.101   2.463   1.096  0.7811  0.7436  0.5144
 4335TIP3    H234641   5.101   2.324   1.037 -0.8776  1.3633 -1.0580
 4336TIP3   OH234642   5.164   4.346   2.007 -0.1809  0.4411 -0.1612
 4336TIP3    H134643   5.214   4.425   1.984  1.6991 -1.0324 -1.4202
 4336TIP3    H234644   5.181   4.333   2.100 -0.1333  1.2710 -0.0462
 4337TIP3   OH234645   2.174   4.942   0.837 -0.0827  0.1974 -0.0579
 4337TIP3    H134646   2.106   4.957   0.772 -1.9841 -1.1758  1.5086
 4337TIP3    H234647   2.229   4.873   0.799 -1.6773 -1.2111  0.0442
 4338TIP3   OH234648   6.139   3.796   0.830 -0.3058  0.0899 -0.0362
 4338TIP3    H134649   6.197   3.840   0.768  0.6680 -0.0461  0.7432
 4338TIP3    H234650   6.156   3.703   0.816  1.2659  0.0645  1.5931
 4339TIP3   OH234651   2.354   6.193   8.148  0.2538 -0.4797 -0.8948
 4339TIP3    H134652   2.381   6.102   8.132 -1.0782 -0.6860 -2.1988
 4339TIP3    H234653   2.285   6.209   8.083 -2.2490  0.2381  1.7550
 4340TIP3   OH234654   3.737   6.223   8.722 -0.4986 -0.0149  0.1752
 4340TIP3    H134655   3.647   6.205   8.749  0.0373 -0.9555  1.4100
 4340TIP3    H234656   3.791   6.194   8.795  1.0732 -3.3347 -2.0368
 4341TIP3   OH234657   0.817   1.694   1.179 -0.1283 -0.1010 -0.2672
 4341TIP3    H134658   0.779   1.773   1.219  1.0322  0.0998  0.5045
 4341TIP3    H234659   0.773   1.686   1.095 -1.1005  0.7101  0.1401
 4342TIP3   OH234660   6.340   1.586   2.067 -0.3650  0.5322  0.3164
 4342TIP3    H134661   6.359   1.622   2.154  1.8388  1.2924 -0.4070
 4342TIP3    H234662   6.397   1.635   2.008 -1.6368 -0.1201 -1.5595
 4343TIP3   OH234663   2.301   5.599   8.458 -0.1589  0.0748  0.5236
 4343TIP3    H134664   2.241   5.530   8.430  1.2306 -1.6759  1.5904
 4343TIP3    H234665   2.335   5.637   8.377  2.9250 -4.0739 -0.4686
 4344TIP3   OH234666   5.792   4.445   7.627 -0.3589  0.9614  0.3346
 4344TIP3    H134667   5.730   4.472   7.695 -1.7902 -2.1306  0.4337
 4344TIP3    H234668   5.754   4.478   7.546 -1.1164  0.7630  0.5989
 4345TIP3   OH234669   3.598   6.807   0.173  0.0434  0.2408 -0.0924
 4345TIP3    H134670   3.666   6.743   0.153  0.2180  0.9543 -2.0386
 4345TIP3    H234671   3.516   6.757   0.172  0.3521 -0.2906  0.4356
 4346TIP3   OH234672   4.360   0.286   8.793  0.2510 -0.1254  0.0597
 4346TIP3    H134673   4.399   0.222   8.853  0.6502  1.8274  2.0062
 4346TIP3    H234674   4.433   0.341   8.766 -0.4717  1.2050  0.6818
 4347TIP3   OH234675   5.963   0.870   1.000  0.3642 -0.0229  0.2221
 4347TIP3    H134676   5.889   0.863   1.060  0.6386  0.2449  0.5989
 4347TIP3    H234677   6.024   0.803   1.030  0.5987  0.2619  0.3801
 4348TIP3   OH234678   2.305   1.240   7.924  0.3761  0.1308  0.0187
 4348TIP3    H134679   2.366   1.183   7.972 -0.9848  0.6179  2.5003
 4348TIP3    H234680   2.361   1.309   7.889  1.8479 -1.8273 -1.7530
 4349TIP3   OH234681   4.919   4.494   1.847  0.4188 -0.2576 -0.4121
 4349TIP3    H134682   4.992   4.520   1.790  0.0209 -1.8661 -1.7333
 4349TIP3    H234683   4.845   4.483   1.788 -0.9877  1.4483  0.9223
 4350TIP3   OH234684   3.941   0.772   8.462 -0.2008 -0.2815 -0.1052
 4350TIP3    H134685   3.864   0.828   8.447 -0.2766 -0.4463 -0.3518
 4350TIP3    H234686   4.005   0.802   8.398  0.3235  0.5485  0.8038
 4351TIP3   OH234687   3.923   3.434   8.812  0.5835  0.7649  0.3063
 4351TIP3    H134688   3.862   3.487   8.864  0.2677  2.0576 -1.2839
 4351TIP3    H234689   3.880   3.426   8.726  1.4080 -0.6879 -0.0076
 4352TIP3   OH234690   5.789   0.265   0.869 -0.1406  0.2317 -0.2288
 4352TIP3    H134691   5.802   0.236   0.959 -0.1971  2.4765  0.5795
 4352TIP3    H234692   5.697   0.246   0.851  0.2360 -1.6086 -0.4041
 4353TIP3   OH234693   6.274   0.397   2.622 -0.1874 -0.8464 -0.6403
 4353TIP3    H134694   6.318   0.472   2.583  0.7484 -1.0503 -0.0067
 4353TIP3    H234695   6.338   0.360   2.683 -0.0646 -2.9960 -1.9521
 4354TIP3   OH234696   5.852   0.762   0.123 -0.4970  0.4032  0.2654
 4354TIP3    H134697   5.807   0.697   0.069 -0.7971  0.8064  0.0345
 4354TIP3    H234698   5.866   0.717   0.207  0.0086 -0.2378 -0.1523
 4355TIP3   OH234699   0.291   2.466   1.099 -0.0073  0.1594 -0.1979
 4355TIP3    H134700   0.204   2.429   1.083 -0.6517  1.8225 -0.7643
 4355TIP3    H234701   0.276   2.538   1.160  0.6120  1.8081 -1.8861
 4356TIP3   OH234702   4.605   2.593   1.575 -0.1418 -0.2887  0.3762
 4356TIP3    H134703   4.641   2.681   1.585 -0.2902  0.2164 -2.5536
 4356TIP3    H234704   4.668   2.536   1.618 -0.4945  1.2306  3.1427
 4357TIP3   OH234705   5.572   1.037   1.749 -0.0211  0.3231 -0.3564
 4357TIP3    H134706   5.555   0.965   1.688 -0.4771 -1.2395  1.4796
 4357TIP3    H234707   5.580   1.115   1.694 -1.4539 -0.8089 -2.3014
 4358TIP3   OH234708   5.645   0.541   0.057 -0.7911  0.5198 -0.1834
 4358TIP3    H134709   5.629   0.516   0.147  0.6732 -0.6638 -0.2201
 4358TIP3    H234710   5.557   0.550   0.019 -1.4149 -0.5634  0.9204
 4359TIP3   OH234711   4.945   4.239   0.525  0.2538  0.0245  0.4711
 4359TIP3    H134712   5.023   4.222   0.472 -1.5067  0.2984 -2.4641
 4359TIP3    H234713   4.958   4.188   0.605  3.0287 -0.5853 -0.2623
 4360TIP3   OH234714   2.183   1.743   8.646  0.3883 -0.6893  0.0352
 4360TIP3    H134715   2.153   1.834   8.638  0.9624 -0.5186 -0.2645
 4360TIP3    H234716   2.191   1.713   8.556  1.8261 -0.4815  0.0671
 4361TIP3   OH234717   2.947   1.056   1.260 -0.4279 -0.4858  0.3481
 4361TIP3    H134718   2.977   0.994   1.326 -1.0384  0.3700  1.4613
 4361TIP3    H234719   3.021   1.115   1.248  0.2505 -1.5287 -0.9030
 4362TIP3   OH234720   1.463   3.217   2.029  0.0084  0.3177 -0.5914
 4362TIP3    H134721   1.553   3.213   2.063 -0.6021  2.4391  1.5653
 4362TIP3    H234722   1.411   3.174   2.097 -0.7434  0.1861 -1.2429
 4363TIP3   OH234723   5.015   4.093   7.577 -0.0738  0.1991 -0.0564
 4363TIP3    H134724   5.106   4.123   7.583 -0.1710  0.7792 -1.0715
 4363TIP3    H234725   4.963   4.169   7.605 -0.2548  0.0721 -0.0451
 4364TIP3   OH234726   6.016   5.028   8.798  0.0082 -0.0506  0.0964
 4364TIP3    H134727   5.938   5.058   8.844 -0.1159 -0.2602  0.0249
 4364TIP3    H234728   6.038   5.099   8.738 -1.2916 -0.7897 -1.3249
 4365TIP3   OH234729   3.555   5.775   1.139 -0.7551 -0.3913 -0.1580
 4365TIP3    H134730   3.643   5.750   1.167 -0.7568 -0.4963 -0.2472
 4365TIP3    H234731   3.569   5.833   1.065 -0.7471 -0.0054  0.1428
 4366TIP3   OH234732   0.060   2.005   1.039 -0.1801 -0.8280 -0.3001
 4366TIP3    H134733  -0.033   1.980   1.034 -0.5429  0.2536  0.7468
 4366TIP3    H234734   0.094   1.956   1.114 -0.3963  0.2198  0.5035
 4367TIP3   OH234735   4.755   6.235   8.281  0.0538 -0.1139  0.3273
 4367TIP3    H134736   4.729   6.166   8.220  0.2439 -0.6468  0.8359
 4367TIP3    H234737   4.730   6.316   8.238  1.1622 -0.4102 -0.9447
 4368TIP3   OH234738   3.719   4.671   1.805 -0.1091  0.2345 -0.4715
 4368TIP3    H134739   3.634   4.713   1.817 -0.1434  0.0136  0.0872
 4368TIP3    H234740   3.703   4.598   1.745 -0.7738 -1.1740  1.3262
 4369TIP3   OH234741   5.251   5.303   7.855 -0.1502  0.2047 -0.7733
 4369TIP3    H134742   5.309   5.329   7.927 -1.2664  0.9062 -0.1051
 4369TIP3    H234743   5.194   5.237   7.893 -0.1396 -0.0987 -1.2809
 4370TIP3   OH234744   1.076   3.308   0.314  0.1873 -1.0399 -0.3303
 4370TIP3    H134745   1.078   3.222   0.271 -2.9683 -1.3013 -0.1924
 4370TIP3    H234746   1.084   3.287   0.407 -0.0080 -1.1369 -0.3344
 4371TIP3   OH234747   5.625   4.461   8.770 -0.4661  0.5014  0.0822
 4371TIP3    H134748   5.552   4.507   8.729 -1.0345 -1.0491 -0.7205
 4371TIP3    H234749   5.671   4.419   8.697  0.1069 -0.0897  0.7670
 4372TIP3   OH234750   5.336   0.310   7.307 -0.4332  0.0187  0.3774
 4372TIP3    H134751   5.374   0.231   7.269 -0.9438 -0.6943  1.2934
 4372TIP3    H234752   5.265   0.334   7.247 -2.3127 -2.0332  1.5904
 4373TIP3   OH234753   5.039   5.576   7.730 -0.7264  0.0542  0.1349
 4373TIP3    H134754   4.971   5.605   7.669 -2.7368 -2.6939  0.8662
 4373TIP3    H234755   5.101   5.527   7.675 -0.2256  1.0711 -0.2507
 4374TIP3   OH234756   4.691   4.845   7.939  0.4618  0.2059  0.0920
 4374TIP3    H134757   4.730   4.876   7.857 -1.2115  0.7580 -0.5433
 4374TIP3    H234758   4.663   4.756   7.919 -0.4749  0.5401 -0.1601
 4375TIP3   OH234759   5.169   1.565   7.928  0.3389  0.1750 -0.5794
 4375TIP3    H134760   5.253   1.526   7.949  0.8852  1.5840 -0.0508
 4375TIP3    H234761   5.106   1.518   7.984  0.7463 -0.8529 -0.9521
 4376TIP3   OH234762   2.165   0.857   7.073 -0.0827 -0.1368  0.0373
 4376TIP3    H134763   2.076   0.878   7.100 -0.4676  0.3544 -1.4575
 4376TIP3    H234764   2.171   0.762   7.079 -0.6029 -0.1478  0.4363
 4377TIP3   OH234765   3.628   3.266   3.026 -0.2799 -0.6375 -0.0601
 4377TIP3    H134766   3.533   3.262   3.043 -0.0827 -0.0645  1.2834
 4377TIP3    H234767   3.649   3.359   3.032  0.7138 -0.9508  1.7590
 4378TIP3   OH234768   5.188   5.362   0.962 -0.2676  0.2593  0.2189
 4378TIP3    H134769   5.279   5.387   0.977  0.1995 -0.3628 -1.3353
 4378TIP3    H234770   5.190   5.312   0.880 -2.3695  2.5692 -1.4006
 4379TIP3   OH234771   0.311   5.014   0.103 -0.3009 -0.2795 -0.2705
 4379TIP3    H134772   0.284   5.037   0.191  0.6073 -1.6628  0.4029
 4379TIP3    H234773   0.240   5.045   0.047 -0.7403  0.9134  0.8877
 4380TIP3   OH234774   0.780   3.729   7.193  0.3872  0.2091  0.2217
 4380TIP3    H134775   0.865   3.753   7.156 -0.6506  0.4961 -2.1601
 4380TIP3    H234776   0.788   3.636   7.212  1.3054  0.2805  0.2399
 4381TIP3   OH234777   2.290   1.011   8.315 -0.5247 -0.3553 -0.1459
 4381TIP3    H134778   2.311   1.090   8.364 -1.1415 -0.9631  1.1634
 4381TIP3    H234779   2.374   0.982   8.279 -0.1346  0.3697  0.1638
 4382TIP3   OH234780   5.411   2.322   1.100 -0.1870  0.3911 -0.1746
 4382TIP3    H134781   5.372   2.343   1.184  1.7025 -1.1936  1.2148
 4382TIP3    H234782   5.375   2.236   1.078  1.6415 -0.6487  0.6557
 4383TIP3   OH234783   4.161   4.893   1.909 -0.0286  0.1780 -0.3864
 4383TIP3    H134784   4.157   4.980   1.948 -4.0736 -1.1776  3.0973
 4383TIP3    H234785   4.225   4.846   1.962  0.1196  0.3129 -0.4446
 4384TIP3   OH234786   3.815   1.384   8.561 -0.1661 -0.0050  0.5936
 4384TIP3    H134787   3.826   1.299   8.518 -0.7316  0.4334 -0.4433
 4384TIP3    H234788   3.860   1.374   8.645  0.6216 -1.0144  0.0799
 4385TIP3   OH234789   2.896   5.583   0.735 -0.1547  0.1218  0.2646
 4385TIP3    H134790   2.901   5.629   0.652 -0.7918  1.7243  1.0834
 4385TIP3    H234791   2.985   5.588   0.771  0.3194 -1.2392 -0.6089
 4386TIP3   OH234792   3.572   5.391   8.382  0.2544 -0.3380  0.0365
 4386TIP3    H134793   3.603   5.306   8.414 -0.3916 -0.4477  0.3753
 4386TIP3    H234794   3.641   5.419   8.321  0.1392 -1.4274 -0.6274
 4387TIP3   OH234795   5.409   5.270   8.097 -0.0999  0.3273  0.2803
 4387TIP3    H134796   5.492   5.308   8.126  0.8150 -1.6416  0.4628
 4387TIP3    H234797   5.434   5.193   8.046 -1.7929  1.2573 -2.1227
 4388TIP3   OH234798   4.133   2.431   6.453 -0.3349  0.2835 -0.1750
 4388TIP3    H134799   4.146   2.435   6.358  1.3396 -0.1474 -0.0063
 4388TIP3    H234800   4.194   2.363   6.482  0.4848  1.6269  1.4093
 4389TIP3   OH234801   2.403   0.576   0.001 -0.4649 -0.6843 -0.6460
 4389TIP3    H134802   2.407   0.601  -0.091  0.8581 -0.3694 -0.5236
 4389TIP3    H234803   2.446   0.648   0.048 -1.7053 -0.5215  0.2998
 4390TIP3   OH234804   3.039   3.030   7.624 -0.6424  0.4704  0.5659
 4390TIP3    H134805   3.013   3.033   7.716 -1.2442  0.6094  0.3953
 4390TIP3    H234806   3.114   3.089   7.618 -1.4362  1.5017  0.7035
 4391TIP3   OH234807   4.190   5.892   8.289  0.7385  0.1732 -0.2703
 4391TIP3    H134808   4.165   5.836   8.362  0.6941  1.1629  0.4995
 4391TIP3    H234809   4.282   5.872   8.273  0.8061  0.0962  0.2047
 4392TIP3   OH234810   4.684   3.690   6.746 -0.6282 -0.3043 -0.6882
 4392TIP3    H134811   4.653   3.771   6.788 -0.6072 -0.6115 -0.0713
 4392TIP3    H234812   4.650   3.695   6.657 -0.1095  0.6839 -0.8489
 4393TIP3   OH234813   4.786   3.380   0.457  0.1111 -0.4801  0.0020
 4393TIP3    H134814   4.835   3.401   0.377 -1.0343  0.0561 -0.5955
 4393TIP3    H234815   4.842   3.319   0.505  1.7160  0.7407 -0.2395
 4394TIP3   OH234816   2.265   3.292   7.441  0.7086 -0.8120  0.7012
 4394TIP3    H134817   2.240   3.341   7.519  1.3880 -0.2328  0.5709
 4394TIP3    H234818   2.333   3.232   7.472 -1.1628 -2.8113  1.1851
 4395TIP3   OH234819   3.635   5.860   8.872  0.0402  0.5510 -0.8989
 4395TIP3    H134820   3.566   5.883   8.810 -0.8789  0.0903 -0.0697
 4395TIP3    H234821   3.593   5.863   8.958  0.9601 -0.1013 -0.4041
 4396TIP3   OH234822   4.322   6.209   1.854  0.4616 -0.7566  0.2819
 4396TIP3    H134823   4.237   6.163   1.854  0.3968 -0.6358 -0.0157
 4396TIP3    H234824   4.353   6.203   1.764 -0.0070  0.6345  0.0088
 4397TIP3   OH234825   6.552   2.222   7.460  0.9413  0.0063 -0.0046
 4397TIP3    H134826   6.567   2.288   7.528  1.9885 -0.7291  0.5150
 4397TIP3    H234827   6.551   2.139   7.508 -0.9105 -0.3361 -0.5720
 4398TIP3   OH234828   0.678   0.987   7.193 -0.1715 -0.2970 -0.1708
 4398TIP3    H134829   0.738   0.941   7.136  1.0263  0.1036  0.7271
 4398TIP3    H234830   0.725   1.065   7.220 -0.8335 -0.2974  1.0715
 4399TIP3   OH234831   6.394   5.906   0.506 -0.7713 -0.4846  0.2303
 4399TIP3    H134832   6.448   5.983   0.488 -0.6963 -0.5551  0.1519
 4399TIP3    H234833   6.369   5.915   0.598 -0.3659 -0.6087  0.3554
 4400TIP3   OH234834   4.206   3.523   8.211 -0.0654  0.5050 -0.2552
 4400TIP3    H134835   4.182   3.607   8.251 -2.7575 -0.5432  0.6032
 4400TIP3    H234836   4.136   3.506   8.148  0.6837 -0.8634 -0.7561
 4401TIP3   OH234837   1.017   5.449   8.471 -0.1609  0.1290  0.3063
 4401TIP3    H134838   0.930   5.461   8.511 -0.1992  2.9595 -0.3978
 4401TIP3    H234839   0.999   5.420   8.382 -0.5077  1.5505 -0.1249
 4402TIP3   OH234840   3.175   1.641   8.286 -0.3639 -0.4308  0.3004
 4402TIP3    H134841   3.156   1.589   8.208 -0.8605 -3.0002  1.9867
 4402TIP3    H234842   3.111   1.610   8.351  0.5921  0.9620  1.9764
 4403TIP3   OH234843   2.738   1.808   0.782 -0.0305  0.5631 -0.2486
 4403TIP3    H134844   2.774   1.896   0.787 -0.2593  0.6451 -0.0171
 4403TIP3    H234845   2.651   1.816   0.823  0.6113 -0.1349  1.3113
 4404TIP3   OH234846   0.261   3.697   7.203 -0.1497 -0.2707 -0.3707
 4404TIP3    H134847   0.252   3.603   7.214 -0.9208 -0.2147 -0.4612
 4404TIP3    H234848   0.171   3.729   7.196  0.0991  0.4881 -0.1970
 4405TIP3   OH234849   4.070   6.737   8.245 -0.4048 -0.9683  0.1700
 4405TIP3    H134850   4.091   6.793   8.319 -0.9387 -0.2926 -0.1716
 4405TIP3    H234851   3.986   6.698   8.267 -1.6384  0.8848 -0.9475
 4406TIP3   OH234852   4.862   5.503   1.958 -0.1438 -0.4779 -0.1784
 4406TIP3    H134853   4.885   5.595   1.971 -2.2098 -0.0505  0.8285
 4406TIP3    H234854   4.943   5.455   1.978  0.3958  0.9949  1.4359
 4407TIP3   OH234855   0.515   2.244   7.798 -0.0296  0.4094  0.6844
 4407TIP3    H134856   0.577   2.171   7.794  0.8118  1.1553 -0.2405
 4407TIP3    H234857   0.456   2.229   7.724  0.0372  0.5688  0.5989
 4408TIP3   OH234858   1.370   5.556   6.482  0.2625  0.7043  0.4868
 4408TIP3    H134859   1.431   5.588   6.549  0.6363 -1.5053  1.2712
 4408TIP3    H234860   1.283   5.569   6.521  0.4943 -1.1501  1.7554
 4409TIP3   OH234861   5.015   0.365   1.211  0.4792 -0.1570  0.2224
 4409TIP3    H134862   4.927   0.327   1.213  0.4339 -0.0986 -0.5008
 4409TIP3    H234863   5.001   0.460   1.205  0.5955 -0.0686  1.1646
 4410TIP3   OH234864   5.124   3.843   2.033  0.1359  0.3482 -0.0449
 4410TIP3    H134865   5.159   3.932   2.044 -0.4561  0.3659  2.1077
 4410TIP3    H234866   5.197   3.786   2.056  0.5462  0.2560 -1.5271
 4411TIP3   OH234867   2.964   2.669   1.175  0.6406 -0.0406 -0.3888
 4411TIP3    H134868   2.936   2.714   1.095  0.6103 -0.0494 -0.3830
 4411TIP3    H234869   2.884   2.634   1.213  0.3884  1.5753  0.6677
 4412TIP3   OH234870   5.652   6.654   6.808 -0.1474 -0.2426 -0.5332
 4412TIP3    H134871   5.659   6.716   6.736  1.5744 -0.5524 -0.6801
 4412TIP3    H234872   5.628   6.571   6.766  0.3233 -0.2990 -0.6982
 4413TIP3   OH234873   0.468   1.815   0.604  0.8844 -0.3084 -0.8920
 4413TIP3    H134874   0.533   1.804   0.673 -1.0699  0.1498  1.1697
 4413TIP3    H234875   0.385   1.795   0.648 -0.5453  0.9698 -2.8814
 4414TIP3   OH234876   2.808   2.153   0.035 -0.4082 -0.2631 -0.6549
 4414TIP3    H134877   2.761   2.236   0.026 -1.5072 -0.7719  0.1546
 4414TIP3    H234878   2.751   2.088  -0.006  0.0356 -0.7527 -0.5180
 4415TIP3   OH234879   2.322   0.310   0.377 -0.3496  0.6002 -0.1137
 4415TIP3    H134880   2.281   0.226   0.355  1.7068 -0.2512 -0.9149
 4415TIP3    H234881   2.376   0.291   0.454  1.2609  0.7706 -1.1525
 4416TIP3   OH234882   5.652   2.902   7.409 -0.3621  0.6884 -0.4110
 4416TIP3    H134883   5.745   2.890   7.388 -0.1850 -0.0740  0.7417
 4416TIP3    H234884   5.652   2.964   7.481 -0.6899  0.1369  0.0724
 4417TIP3   OH234885   2.415   2.368   8.857  0.2505 -0.1729  0.3036
 4417TIP3    H134886   2.477   2.386   8.927  0.1022 -0.9991  0.6638
 4417TIP3    H234887   2.467   2.369   8.777  0.5015  0.3385  0.4719
 4418TIP3   OH234888   4.332   5.165   1.993  0.7869  0.1259 -0.2350
 4418TIP3    H134889   4.324   5.198   2.083 -2.2192  2.0311 -1.0565
 4418TIP3    H234890   4.243   5.168   1.959  2.1320  1.9697 -4.1299
 4419TIP3   OH234891   3.806   6.406   7.161 -0.1525  0.1417  0.2606
 4419TIP3    H134892   3.824   6.317   7.131 -2.0169  0.1582 -1.0858
 4419TIP3    H234893   3.772   6.395   7.250 -0.5076 -0.5120  0.0482
 4420TIP3   OH234894   6.493   0.548   8.714  0.0718 -0.2583 -0.6707
 4420TIP3    H134895   6.550   0.612   8.672  0.2552 -0.1734 -0.2965
 4420TIP3    H234896   6.468   0.588   8.798  1.6419 -1.3954  0.4067
 4421TIP3   OH234897   5.249   6.215   7.007  0.7465 -0.1991 -0.4059
 4421TIP3    H134898   5.196   6.295   7.010 -2.0819 -1.9530  0.4767
 4421TIP3    H234899   5.248   6.189   6.915  1.2819  0.4910 -0.6181
 4422TIP3   OH234900   1.057   3.622   8.115  0.5503 -0.0625  0.0691
 4422TIP3    H134901   1.117   3.693   8.090  1.5037 -1.0343 -0.4581
 4422TIP3    H234902   1.067   3.557   8.046 -2.1650  0.3125 -0.7903
 4423TIP3   OH234903   2.864   6.708   1.376  0.5166 -0.5982 -0.1122
 4423TIP3    H134904   2.893   6.770   1.308  1.5448 -2.0520 -1.0571
 4423TIP3    H234905   2.890   6.622   1.342 -0.1245 -1.4792  1.5491
 4424TIP3   OH234906   6.083   4.516   1.397 -0.1840 -0.0127  0.2595
 4424TIP3    H134907   6.025   4.444   1.420 -3.7177  2.0498 -1.3413
 4424TIP3    H234908   6.107   4.499   1.306 -0.7741  0.6267 -0.0237
 4425TIP3   OH234909   6.659   5.879   0.826  0.4928  0.1285 -0.0768
 4425TIP3    H134910   6.649   5.932   0.905  0.3847 -0.7054  0.4750
 4425TIP3    H234911   6.626   5.935   0.755 -0.1145  0.6056  0.5700
 4426TIP3   OH234912   3.088   5.728   8.368  0.5295  0.0251 -0.3242
 4426TIP3    H134913   3.068   5.821   8.363  1.1276  0.1640 -0.1800
 4426TIP3    H234914   3.104   5.702   8.277  1.4020  0.3010 -0.2579
 4427TIP3   OH234915   1.553   4.342   6.830 -0.2217 -0.0021  0.0317
 4427TIP3    H134916   1.501   4.347   6.750 -0.2702  0.2581  0.0784
 4427TIP3    H234917   1.523   4.416   6.883 -1.7724 -1.4066  1.2577
 4428TIP3   OH234918   3.058   0.346   7.413  0.6978 -0.2737 -0.1269
 4428TIP3    H134919   3.100   0.376   7.494  0.3455 -1.7309  0.6231
 4428TIP3    H234920   2.971   0.317   7.441 -0.8059  2.4017 -1.5946
 4429TIP3   OH234921   6.434   5.633   0.448 -0.0448 -0.1818  0.2516
 4429TIP3    H134922   6.492   5.643   0.373 -0.4251  0.6872  0.0651
 4429TIP3    H234923   6.436   5.719   0.491 -1.9716  0.1896 -0.3315
 4430TIP3   OH234924   1.911   3.722   8.860 -0.2873  0.1799  0.1795
 4430TIP3    H134925   1.959   3.771   8.794 -1.7083  0.9816 -0.3048
 4430TIP3    H234926   1.840   3.781   8.886 -1.5801 -1.3071  0.1651
 4431TIP3   OH234927   6.147   4.831   2.231  0.2111 -0.7506 -0.1056
 4431TIP3    H134928   6.098   4.790   2.160  0.2019  0.5447 -0.8668
 4431TIP3    H234929   6.098   4.911   2.251  0.2542 -1.0563  1.3167
 4432TIP3   OH234930   3.532   1.609   6.902 -0.0413 -0.3550  0.3145
 4432TIP3    H134931   3.476   1.538   6.932 -1.1300  0.3254 -0.0410
 4432TIP3    H234932   3.513   1.681   6.962 -0.9454  0.4639 -0.9071
 4433TIP3   OH234933   0.265   1.836   7.299  0.3665 -0.2521 -0.1195
 4433TIP3    H134934   0.272   1.835   7.203  0.0545  0.3562 -0.1550
 4433TIP3    H234935   0.213   1.914   7.318 -1.1416 -1.3460  0.4470
 4434TIP3   OH234936   1.385   0.566   7.160  0.0683  0.0430  0.5329
 4434TIP3    H134937   1.315   0.513   7.121  0.6053  0.5792 -1.2576
 4434TIP3    H234938   1.420   0.510   7.230  0.2512 -1.7847 -0.9249
 4435TIP3   OH234939   5.365   6.097   8.452  0.0735 -0.0726  0.2918
 4435TIP3    H134940   5.327   6.009   8.460  3.1603 -1.5962 -0.5220
 4435TIP3    H234941   5.445   6.094   8.505  0.8061  1.9161 -0.6061
 4436TIP3   OH234942   3.323   2.854   8.110 -0.3504  0.0475  0.0088
 4436TIP3    H134943   3.410   2.843   8.073 -0.3165  1.9773 -0.6334
 4436TIP3    H234944   3.269   2.788   8.066  1.4629 -4.1451  3.4313
 4437TIP3   OH234945   6.056   1.746   0.972  0.2140  0.8038  0.3286
 4437TIP3    H134946   5.975   1.696   0.983 -0.6851  1.8088 -1.4146
 4437TIP3    H234947   6.034   1.835   0.999  1.0568  0.8635  0.8601
 4438TIP3   OH234948   5.499   1.688   7.042  0.9199 -0.3593  0.1024
 4438TIP3    H134949   5.442   1.716   7.113 -0.6455 -0.4517 -1.0786
 4438TIP3    H234950   5.498   1.761   6.980 -0.3440 -1.5113 -1.3206
 4439TIP3   OH234951   2.852   5.484   6.175 -0.2932  0.1073  0.0491
 4439TIP3    H134952   2.788   5.476   6.246  0.3247 -0.2354  0.5871
 4439TIP3    H234953   2.846   5.401   6.128 -0.3866  0.1496 -0.0108
 4440TIP3   OH234954   4.530   5.592   1.840  0.0177 -0.1265  0.1432
 4440TIP3    H134955   4.552   5.502   1.817 -0.4242  0.4983 -3.1758
 4440TIP3    H234956   4.436   5.599   1.824 -0.1136  0.7111  1.1810
 4441TIP3   OH234957   1.871   6.659   6.770  0.1242 -0.2054 -0.0469
 4441TIP3    H134958   1.809   6.589   6.791 -1.8045  1.7670  1.1564
 4441TIP3    H234959   1.829   6.739   6.801  2.4864  1.4635 -0.8831
 4442TIP3   OH234960   6.220   2.169   7.310  0.2729  0.1841 -0.3643
 4442TIP3    H134961   6.130   2.200   7.314 -1.2346 -3.5708 -0.7265
 4442TIP3    H234962   6.246   2.182   7.219 -0.3330  0.2337 -0.5321
 4443TIP3   OH234963   1.805   2.255   2.601 -0.0872  0.3183 -0.2406
 4443TIP3    H134964   1.728   2.252   2.545 -0.3833  0.0823  0.1758
 4443TIP3    H234965   1.869   2.198   2.558 -0.3287  0.1049 -0.3165
 4444TIP3   OH234966   5.400   1.008   8.051 -0.3116  0.0352 -0.3529
 4444TIP3    H134967   5.408   1.025   7.957  1.1318  0.6403 -0.1424
 4444TIP3    H234968   5.407   1.094   8.092 -1.0212 -0.2121  0.3255
 4445TIP3   OH234969   2.913   3.077   0.093 -0.4839  0.5036 -0.0003
 4445TIP3    H134970   2.851   3.140   0.131 -0.8244  0.3350 -0.2728
 4445TIP3    H234971   2.935   3.114   0.007  2.7623  2.5702  1.5426
 4446TIP3   OH234972   3.197   5.832   0.013 -0.3584 -0.2815 -0.5220
 4446TIP3    H134973   3.130   5.769  -0.013 -0.4509  0.1058 -1.2696
 4446TIP3    H234974   3.273   5.809  -0.041 -0.8258  1.0754 -1.8147
 4447TIP3   OH234975   5.128   5.292   1.917 -0.0948  0.1240 -0.1437
 4447TIP3    H134976   5.177   5.212   1.938 -0.1978 -0.3314 -1.5073
 4447TIP3    H234977   5.125   5.340   1.999  1.4381 -0.4794  0.3124
 4448TIP3   OH234978   2.405   5.074   8.069  0.4478 -0.2738 -0.9254
 4448TIP3    H134979   2.427   4.994   8.118 -0.1319  1.1346  1.8526
 4448TIP3    H234980   2.313   5.064   8.046  0.4655 -0.5597 -0.8764
 4449TIP3   OH234981   5.324   1.364   2.353 -0.2686 -0.7781 -0.2472
 4449TIP3    H134982   5.238   1.395   2.379 -0.4073  0.6741 -2.2979
 4449TIP3    H234983   5.310   1.320   2.269  0.8122 -1.6478 -0.0009
 4450TIP3   OH234984   3.355   2.054   7.604  0.2679 -0.4716  0.0357
 4450TIP3    H134985   3.439   2.100   7.598  0.6972 -1.1246  0.8149
 4450TIP3    H234986   3.328   2.064   7.695 -1.0412  0.6135 -0.4381
 4451TIP3   OH234987   4.717   6.623   7.854  0.2524 -0.7186  0.8367
 4451TIP3    H134988   4.673   6.599   7.772 -2.4346  1.8511  1.3465
 4451TIP3    H234989   4.793   6.675   7.825  0.2468 -1.1735 -0.0290
 4452TIP3   OH234990   4.523   2.889   1.667  0.0198  0.0810  0.2582
 4452TIP3    H134991   4.432   2.857   1.668  0.3642 -1.1698 -1.8561
 4452TIP3    H234992   4.537   2.924   1.755 -1.4134 -2.8116  1.7856
 4453TIP3   OH234993   2.988   5.933   7.626  0.8683  0.1824 -0.3736
 4453TIP3    H134994   3.017   5.897   7.710  1.9468  2.3093  0.2508
 4453TIP3    H234995   2.918   5.994   7.649 -0.2191 -0.6774 -1.2805
 4454TIP3   OH234996   2.440   1.791   7.891  0.6204 -0.0463  0.2295
 4454TIP3    H134997   2.456   1.759   7.979 -0.5850 -0.5105  0.2942
 4454TIP3    H234998   2.355   1.834   7.896  1.3498  1.5355 -0.2969
 4455TIP3   OH234999   2.574   5.476   7.679 -0.6609  0.8435  0.6486
 4455TIP3    H135000   2.558   5.528   7.601  0.4864  1.2992  0.7037
 4455TIP3    H235001   2.669   5.464   7.682 -0.4496  2.3960  2.9309
 4456TIP3   OH235002   0.657   6.506   0.023 -0.1600  0.2984  0.6113
 4456TIP3    H135003   0.669   6.601   0.015 -2.0655  0.5117 -0.1566
 4456TIP3    H235004   0.678   6.471  -0.064  1.5257 -0.1432  1.1578
 4457TIP3   OH235005   6.368   3.714   8.095 -0.1798 -0.4442  0.4196
 4457TIP3    H135006   6.331   3.792   8.054  0.7791  1.1172  2.3529
 4457TIP3    H235007   6.292   3.667   8.128 -0.7134  0.4823  0.5564
 4458TIP3   OH235008   6.427   4.914   2.306  0.8947 -0.2190 -0.2332
 4458TIP3    H135009   6.441   4.835   2.253 -1.8659 -0.2063 -1.1543
 4458TIP3    H235010   6.338   4.905   2.339  0.9882  1.9073  0.7862
 4459TIP3   OH235011   2.295   1.625   7.490  0.1250 -0.2165 -0.3565
 4459TIP3    H135012   2.377   1.639   7.537 -0.4778 -0.1176  0.6740
 4459TIP3    H235013   2.321   1.627   7.397  1.0344  1.4411 -0.1086
 4460TIP3   OH235014   2.459   1.832   0.852  0.2942  0.0456 -0.0800
 4460TIP3    H135015   2.431   1.897   0.788 -2.2829  0.2979  1.1866
 4460TIP3    H235016   2.385   1.771   0.858  0.8803 -0.5432  1.8777
 4461TIP3   OH235017   0.600   0.966   0.526  0.7399 -0.2421 -0.1910
 4461TIP3    H135018   0.508   0.942   0.533  0.7709 -1.5972 -2.9761
 4461TIP3    H235019   0.617   0.971   0.432  3.4958  0.0728  0.2191
 4462TIP3   OH235020   3.833   4.685   2.280  0.0524  0.0117 -0.3239
 4462TIP3    H135021   3.754   4.715   2.235  0.1123  0.5469 -0.0814
 4462TIP3    H235022   3.851   4.599   2.243 -1.6355 -0.9070  0.8388
 4463TIP3   OH235023   6.584   6.733   7.492 -0.5241 -0.1161  0.5067
 4463TIP3    H135024   6.571   6.821   7.458  1.8308  1.8223  3.9905
 4463TIP3    H235025   6.669   6.705   7.456 -1.2010 -0.9763 -0.4817
 4464TIP3   OH235026   3.011   4.265   7.516  0.0285  0.7653 -0.1196
 4464TIP3    H135027   3.098   4.240   7.483 -1.3334 -1.1248 -2.6258
 4464TIP3    H235028   2.957   4.188   7.501 -2.5540  2.5445 -0.4773
 4465TIP3   OH235029   3.710   0.173   2.026  0.3413 -0.1930  0.4069
 4465TIP3    H135030   3.649   0.101   2.012 -0.4284  0.7602 -1.5333
 4465TIP3    H235031   3.656   0.245   2.057  1.1478 -0.4783  2.6379
 4466TIP3   OH235032   2.571   4.763   7.221  0.1707  0.2357  0.2105
 4466TIP3    H135033   2.579   4.672   7.250 -0.3915  0.0325 -0.2565
 4466TIP3    H235034   2.565   4.813   7.303 -0.4583 -0.2388  0.4593
 4467TIP3   OH235035   6.791   6.449   2.482  0.4327 -0.1112  0.4923
 4467TIP3    H135036   6.878   6.461   2.519  0.0702  1.0245  1.0135
 4467TIP3    H235037   6.765   6.535   2.450  0.0091 -0.6999 -0.8449
 4468TIP3   OH235038   5.547   1.495   6.832  0.5240 -0.2867  0.0724
 4468TIP3    H135039   5.616   1.551   6.795  0.5790 -1.1194 -1.1322
 4468TIP3    H235040   5.506   1.550   6.899  2.0380  0.3941  0.4995
 4469TIP3   OH235041   5.941   4.896   0.792 -0.4400 -0.3471  0.0918
 4469TIP3    H135042   5.967   4.807   0.768  1.4080  0.3385 -0.7119
 4469TIP3    H235043   5.979   4.910   0.878 -2.3753 -0.9254  1.1113
 4470TIP3   OH235044   0.626   4.815   0.276 -0.3152 -0.0932  0.0847
 4470TIP3    H135045   0.653   4.770   0.356  0.9582  4.3328  2.4336
 4470TIP3    H235046   0.705   4.820   0.223 -1.0284 -2.5143 -1.3849
 4471TIP3   OH235047   5.434   2.318   1.626 -0.0866  0.1859 -0.5055
 4471TIP3    H135048   5.434   2.405   1.587 -0.2409  0.2733 -0.3093
 4471TIP3    H235049   5.463   2.331   1.716  2.1988 -0.2594 -1.0997
 4472TIP3   OH235050   4.864   6.581   8.424  0.6038  0.2085 -0.0031
 4472TIP3    H135051   4.881   6.491   8.453  1.8536 -0.0575 -1.4658
 4472TIP3    H235052   4.774   6.580   8.393  0.5250 -0.4766  0.2416
 4473TIP3   OH235053   2.931   3.876   6.961  0.3837 -0.2990  0.0516
 4473TIP3    H135054   2.866   3.821   6.916  0.6461 -0.9098  0.4112
 4473TIP3    H235055   2.987   3.908   6.890  0.4978 -0.8578 -0.1207
 4474TIP3   OH235056   5.832   2.507   2.156  0.4690  0.7644 -0.3566
 4474TIP3    H135057   5.896   2.455   2.205 -0.2965  0.1389  0.0001
 4474TIP3    H235058   5.801   2.572   2.219 -2.3852 -1.6011  0.9011
 4475TIP3   OH235059   2.247   5.235   8.580  0.6262  0.0901  0.2236
 4475TIP3    H135060   2.195   5.195   8.510  1.5725 -0.2710 -0.2949
 4475TIP3    H235061   2.229   5.183   8.657 -0.3353  0.4110  0.2231
 4476TIP3   OH235062   0.236   4.197   8.584 -0.0372  0.3651  0.1646
 4476TIP3    H135063   0.204   4.203   8.674  2.8119  1.8631  1.1814
 4476TIP3    H235064   0.326   4.229   8.588  0.2023  0.4504 -3.2399
 4477TIP3   OH235065   6.262   2.542   1.391 -0.6867  0.1074 -0.0240
 4477TIP3    H135066   6.327   2.582   1.333  0.4770 -1.8198 -0.1054
 4477TIP3    H235067   6.234   2.614   1.448  1.0000  1.1411 -0.4398
 4478TIP3   OH235068   2.054   2.878   7.919  0.1344  0.3853  0.3388
 4478TIP3    H135069   2.083   2.891   7.829  1.4370 -2.8067  0.1544
 4478TIP3    H235070   2.131   2.897   7.973  0.5280 -1.2392  0.4142
 4479TIP3   OH235071   0.270   5.841   1.633  0.2961 -0.1603  0.0718
 4479TIP3    H135072   0.250   5.858   1.541 -0.9003  0.8567  0.4986
 4479TIP3    H235073   0.185   5.827   1.674  0.5330  2.2416  1.5595
 4480TIP3   OH235074   4.808   5.155   1.533  0.5069  0.3012  0.4461
 4480TIP3    H135075   4.866   5.223   1.567 -1.8512  1.4346  2.5397
 4480TIP3    H235076   4.735   5.204   1.494  0.2695 -1.0619 -0.8944
 4481TIP3   OH235077   4.497   5.782   2.028  0.6416 -0.1447 -0.0478
 4481TIP3    H135078   4.430   5.724   2.064  1.5058  0.2937  2.4156
 4481TIP3    H235079   4.527   5.737   1.949 -1.9042 -0.7632 -0.7548
 4482TIP3   OH235080   2.556   2.120   0.391 -0.1368 -1.0581 -0.2883
 4482TIP3    H135081   2.555   2.212   0.366  0.0301 -1.1918 -0.8023
 4482TIP3    H235082   2.477   2.084   0.352 -1.4860 -0.6339  1.9034
 4483TIP3   OH235083   1.410   0.782   1.984  0.6858  0.2688  0.2258
 4483TIP3    H135084   1.440   0.767   2.074 -2.3073  2.8660  1.8792
 4483TIP3    H235085   1.411   0.877   1.974  1.5189  0.0536 -2.8185
 4484TIP3   OH235086   5.149   5.563   7.346  0.2118 -0.0521 -0.0294
 4484TIP3    H135087   5.207   5.511   7.401  0.5819  1.4962  1.1061
 4484TIP3    H235088   5.199   5.643   7.328 -0.5069  0.1214 -1.3519
 4485TIP3   OH235089   4.097   5.058   1.510  0.1036  0.6143 -0.9746
 4485TIP3    H135090   4.098   4.968   1.478  2.0466  0.4627 -0.6264
 4485TIP3    H235091   4.011   5.092   1.485 -1.6272 -2.0027  0.8989
 4486TIP3   OH235092   0.694   5.167   7.564  0.0158 -0.3260 -0.0304
 4486TIP3    H135093   0.779   5.128   7.542 -0.2849 -1.7592  1.1404
 4486TIP3    H235094   0.691   5.166   7.660 -1.3242 -0.3263 -0.0453
 4487TIP3   OH235095   2.215   1.409   8.118  0.4073 -1.1082  0.2906
 4487TIP3    H135096   2.149   1.385   8.183  1.0548  0.0717  1.4253
 4487TIP3    H235097   2.239   1.325   8.077  0.6478 -2.0416  2.2228
 4488TIP3   OH235098   2.741   3.071   0.785 -0.0014  0.0549 -0.1948
 4488TIP3    H135099   2.724   3.165   0.790  1.8933  0.4767 -0.6513
 4488TIP3    H235100   2.701   3.035   0.865 -0.2402  1.3369  0.2873
 4489TIP3   OH235101   4.045   2.435   7.607 -0.2811  0.0180  0.6981
 4489TIP3    H135102   3.983   2.446   7.534 -1.5952 -1.0186  1.6008
 4489TIP3    H235103   4.102   2.363   7.580 -0.6170 -0.2106  0.5920
 4490TIP3   OH235104   1.982   5.677   7.684 -0.4449 -0.1196 -0.4599
 4490TIP3    H135105   1.967   5.717   7.598 -0.2457 -0.4463 -0.6456
 4490TIP3    H235106   2.065   5.713   7.713 -0.7393  0.3581 -0.1899
 4491TIP3   OH235107   3.523   2.062   2.738  0.3484 -0.5659 -0.5520
 4491TIP3    H135108   3.555   1.979   2.703  3.2464  0.3199 -0.2101
 4491TIP3    H235109   3.586   2.127   2.708 -0.3335  1.1146  1.4314
 4492TIP3   OH235110   4.685   2.459   6.832 -0.0756  0.0431 -0.0989
 4492TIP3    H135111   4.742   2.390   6.798 -0.5391 -0.6308  0.4370
 4492TIP3    H235112   4.740   2.509   6.891 -0.4679 -1.8346  2.0091
 4493TIP3   OH235113   6.594   4.041   8.063 -0.3038  0.1104  0.4707
 4493TIP3    H135114   6.593   3.954   8.023  1.4644 -0.4043  1.4293
 4493TIP3    H235115   6.669   4.085   8.022 -0.3668  0.7017  0.9829
 4494TIP3   OH235116   5.214   6.676   1.016 -0.3619 -1.0371  0.1985
 4494TIP3    H135117   5.152   6.645   0.950 -0.9856  0.2015  0.1710
 4494TIP3    H235118   5.243   6.597   1.062 -2.6401 -1.5830  0.8011
 4495TIP3   OH235119   5.950   1.304   1.974 -0.1896  0.4025  0.0584
 4495TIP3    H135120   6.016   1.374   1.974  2.0181 -1.5413 -0.2835
 4495TIP3    H235121   5.911   1.308   2.062 -0.7118  2.4962 -0.2071
 4496TIP3   OH235122   3.547   4.195   6.561  0.3245  0.3020 -0.6615
 4496TIP3    H135123   3.584   4.133   6.623  2.0100  1.6963 -0.2062
 4496TIP3    H235124   3.458   4.210   6.592  0.8867  0.3960  1.0017
 4497TIP3   OH235125   4.397   4.171   1.221  0.6764  0.1041  0.6682
 4497TIP3    H135126   4.431   4.237   1.281  1.7198 -0.8870  1.2277
 4497TIP3    H235127   4.448   4.183   1.141  0.4211  0.3910  0.5508
 4498TIP3   OH235128   6.623   6.306   1.275  0.7746  0.1493 -0.7687
 4498TIP3    H135129   6.715   6.286   1.259  0.9398  0.4498 -0.1868
 4498TIP3    H235130   6.623   6.369   1.347  0.1137  0.1407 -0.7504
 4499TIP3   OH235131   3.844   5.899   2.322  0.2641 -0.1841  0.2397
 4499TIP3    H135132   3.929   5.934   2.346  0.2432  0.9790 -1.1952
 4499TIP3    H235133   3.863   5.819   2.272  0.6900  1.1298 -1.8340
 4500TIP3   OH235134   1.322   5.172   1.175 -0.6834 -0.0499 -0.6328
 4500TIP3    H135135   1.295   5.250   1.223  1.4066 -0.5205  1.4954
 4500TIP3    H235136   1.294   5.099   1.231  0.2970 -0.6757 -0.9232
 4501TIP3   OH235137   2.811   0.330   8.744 -0.4531  0.2278 -0.3929
 4501TIP3    H135138   2.835   0.419   8.718 -0.5033  0.4446  0.2781
 4501TIP3    H235139   2.876   0.275   8.701  0.3786  0.6956  0.2156
 4502TIP3   OH235140   0.764   5.700   0.776  0.2744 -0.3091 -0.4259
 4502TIP3    H135141   0.822   5.657   0.714  0.9976  1.1297 -0.7819
 4502TIP3    H235142   0.700   5.746   0.722  0.4831  0.3825 -0.0839
 4503TIP3   OH235143   5.176   1.653   1.809  0.0641  0.5317  0.1206
 4503TIP3    H135144   5.147   1.700   1.887 -0.1529  1.4404 -0.4864
 4503TIP3    H235145   5.096   1.637   1.759  0.3378  1.0274 -0.4842
 4504TIP3   OH235146   0.669   4.816   1.552  0.1707 -0.4132  0.0315
 4504TIP3    H135147   0.596   4.843   1.496 -0.0710 -0.2936  0.4018
 4504TIP3    H235148   0.657   4.866   1.633 -1.1513 -2.6378  1.3472
 4505TIP3   OH235149   2.325   4.705   1.388  0.2368  0.2174 -0.6114
 4505TIP3    H135150   2.359   4.620   1.413  0.2053  0.6879  1.1842
 4505TIP3    H235151   2.352   4.764   1.459 -1.8359  1.1791 -0.5285
 4506TIP3   OH235152   5.147   5.022   7.818 -0.3541  0.1215  0.1611
 4506TIP3    H135153   5.221   5.080   7.802 -0.1771 -0.1902 -0.1726
 4506TIP3    H235154   5.172   4.939   7.776  0.4508 -0.9889  2.6747
 4507TIP3   OH235155   0.901   4.645   1.278  0.3775  0.1652  0.1625
 4507TIP3    H135156   0.903   4.734   1.315  1.5286  0.5960 -0.8363
 4507TIP3    H235157   0.898   4.659   1.183  0.2860 -0.8769  0.0021
 4508TIP3   OH235158   0.245   1.592   0.669  0.5493 -0.6912  0.1276
 4508TIP3    H135159   0.325   1.645   0.664  0.0409  0.0103 -0.7250
 4508TIP3    H235160   0.214   1.604   0.759  0.5435  0.2962 -0.0029
 4509TIP3   OH235161   6.561   4.769   1.655  0.0175  0.0942  0.0209
 4509TIP3    H135162   6.592   4.686   1.621  0.9445  0.3113  0.3104
 4509TIP3    H235163   6.640   4.814   1.685 -0.7281 -0.1679  2.6496
 4510TIP3   OH235164   3.057   1.707   0.597  0.3048  0.4644  0.1089
 4510TIP3    H135165   3.004   1.746   0.666 -1.4215  1.2478 -1.5653
 4510TIP3    H235166   3.003   1.635   0.563  1.9312 -1.1647  0.7630
 4511TIP3   OH235167   1.735   0.871   8.216  0.2690 -0.2070  0.0790
 4511TIP3    H135168   1.818   0.854   8.261  0.2511 -0.9425 -0.1528
 4511TIP3    H235169   1.692   0.938   8.269  0.4226 -0.7745  0.9489
 4512TIP3   OH235170   3.192   6.740   1.031 -0.0430  0.4933  0.1758
 4512TIP3    H135171   3.164   6.801   0.963 -2.4958 -0.8123 -0.1222
 4512TIP3    H235172   3.204   6.794   1.109 -0.7632  1.5397 -0.4162
 4513TIP3   OH235173   2.102   1.847   7.961 -0.0109 -0.5052 -0.1843
 4513TIP3    H135174   2.026   1.891   7.999  1.2858  0.1972  1.7895
 4513TIP3    H235175   2.125   1.780   8.026  0.1276 -1.7889 -1.5070
 4514TIP3   OH235176   6.010   5.260   7.069 -0.7831  0.4747  0.3393
 4514TIP3    H135177   6.009   5.336   7.126 -1.5370  0.3296  0.5221
 4514TIP3    H235178   5.920   5.252   7.037 -0.4386  0.3953 -0.6603
 4515TIP3   OH235179   1.711   3.222   1.036 -0.4088 -0.0161 -0.3919
 4515TIP3    H135180   1.792   3.180   1.066  0.3205  1.0653 -0.7926
 4515TIP3    H235181   1.694   3.290   1.101 -1.3465 -0.6233  0.0192
 4516TIP3   OH235182   5.123   4.960   1.478  0.5569 -0.2883 -0.4761
 4516TIP3    H135183   5.172   4.976   1.397 -0.5242  1.2900 -0.8809
 4516TIP3    H235184   5.118   5.046   1.520 -1.2460 -0.5155 -0.1365
 4517TIP3   OH235185   3.295   3.900   0.450  0.4375  0.4792 -0.2387
 4517TIP3    H135186   3.320   3.990   0.430  0.9803  0.3175 -0.2946
 4517TIP3    H235187   3.268   3.902   0.541  0.6694  0.6532 -0.1736
 4518TIP3   OH235188   5.177   2.135   6.989  0.6839  0.9098 -0.4995
 4518TIP3    H135189   5.211   2.202   6.930  2.9136  0.8079  0.5506
 4518TIP3    H235190   5.212   2.159   7.075 -0.3489 -0.3433  0.3101
 4519TIP3   OH235191   5.829   0.542   8.131  0.0801  0.2243 -0.7448
 4519TIP3    H135192   5.768   0.469   8.121  1.2470 -1.0507  0.9489
 4519TIP3    H235193   5.913   0.508   8.102  0.3469  1.4336 -1.4793
 4520TIP3   OH235194   4.363   5.432   1.521 -0.2169 -0.1502  0.2539
 4520TIP3    H135195   4.329   5.345   1.541  1.4340 -0.6732  0.9599
 4520TIP3    H235196   4.333   5.487   1.593 -2.4643  0.2493 -0.9019
 4521TIP3   OH235197   2.767   0.019   6.879 -0.4713 -0.1835  0.4753
 4521TIP3    H135198   2.817  -0.063   6.882 -0.3971 -0.3045 -1.8861
 4521TIP3    H235199   2.681  -0.006   6.846 -0.3962  0.6907 -0.4349
 4522TIP3   OH235200   2.502   5.769   6.753 -0.0497  0.3144 -0.3500
 4522TIP3    H135201   2.530   5.855   6.784  1.6830 -0.6340  0.8943
 4522TIP3    H235202   2.570   5.742   6.691  1.0809 -1.3269  1.4630
 4523TIP3   OH235203   4.379   0.590   2.128 -0.0958  0.8714  0.1155
 4523TIP3    H135204   4.401   0.682   2.142  0.2339  0.5167  2.3077
 4523TIP3    H235205   4.463   0.544   2.135 -0.5297  0.2077  1.4201
 4524TIP3   OH235206   4.044   0.184   7.111  0.2471  0.0104 -0.0742
 4524TIP3    H135207   4.066   0.226   7.194  1.5510 -0.7935  0.0040
 4524TIP3    H235208   3.957   0.147   7.126 -1.2216  3.0546 -0.3226
 4525TIP3   OH235209   2.213   1.671   2.503  0.0523 -0.0850 -0.1792
 4525TIP3    H135210   2.140   1.613   2.525 -1.8416  2.0368 -0.4705
 4525TIP3    H235211   2.195   1.751   2.551  1.7686  0.8227 -0.9501
 4526TIP3   OH235212   3.857   2.692   8.067 -0.0020  0.5677  0.5365
 4526TIP3    H135213   3.946   2.722   8.049 -0.6063  1.0443 -1.9170
 4526TIP3    H235214   3.843   2.714   8.160  3.1024 -1.3916  1.6182
 4527TIP3   OH235215   5.275   0.298   1.267  0.1241  0.1438  0.4647
 4527TIP3    H135216   5.190   0.321   1.228  0.4285  0.4827 -0.0110
 4527TIP3    H235217   5.300   0.216   1.223 -0.3526 -0.4278  1.2271
 4528TIP3   OH235218   3.219   4.339   6.486 -0.3661  0.2180 -0.2926
 4528TIP3    H135219   3.180   4.255   6.510 -0.9998  0.7148  0.4845
 4528TIP3    H235220   3.152   4.382   6.432 -0.9721  1.0934  1.0794
 4529TIP3   OH235221   3.951   4.154   2.543 -0.2851  0.0646 -0.0004
 4529TIP3    H135222   3.906   4.211   2.480  1.4474 -0.4362 -1.7716
 4529TIP3    H235223   3.991   4.215   2.605  0.7573  0.8043 -1.3286
 4530TIP3   OH235224   5.983   4.286   7.907  0.7589 -0.4007 -0.6588
 4530TIP3    H135225   5.993   4.381   7.906 -0.1734 -0.2941 -1.1863
 4530TIP3    H235226   6.062   4.254   7.949  0.9752  0.6222 -0.2622
 4531TIP3   OH235227   2.143   4.162   0.763 -0.0165  0.1891 -0.0445
 4531TIP3    H135228   2.077   4.203   0.707 -1.1265 -0.1512  0.9732
 4531TIP3    H235229   2.176   4.234   0.817  0.7121  0.4267 -0.7948
 4532TIP3   OH235230   2.146   2.363   1.007  0.6364 -0.8611  0.6236
 4532TIP3    H135231   2.140   2.389   1.099  0.8839 -0.2428  0.4669
 4532TIP3    H235232   2.237   2.378   0.983  0.1940  0.6202 -0.1998
 4533TIP3   OH235233   5.664   1.503   1.181 -0.1258  0.4403 -0.0842
 4533TIP3    H135234   5.631   1.533   1.266 -0.1508 -0.1424  0.1155
 4533TIP3    H235235   5.587   1.466   1.138  0.4181 -1.8862  0.7982
 4534TIP3   OH235236   2.247   3.019   2.468  0.1819 -0.0049  0.4771
 4534TIP3    H135237   2.258   2.938   2.519  0.8927 -0.2081  0.0238
 4534TIP3    H235238   2.161   3.052   2.493  0.1321 -0.5939  1.1101
 4535TIP3   OH235239   3.617   3.027   6.463 -0.0727 -0.2754  0.2337
 4535TIP3    H135240   3.705   2.989   6.462 -0.9935 -2.6884 -2.9592
 4535TIP3    H235241   3.558   2.953   6.475 -1.8545  0.2972 -3.5661
 4536TIP3   OH235242   3.421   2.758   8.390  0.2473 -0.1523 -0.6664
 4536TIP3    H135243   3.379   2.836   8.353  1.2352 -0.8248 -3.4768
 4536TIP3    H235244   3.381   2.685   8.344  1.0353 -1.1533  0.1896
 4537TIP3   OH235245   4.004   0.801   1.332 -0.3676 -0.0078 -0.1554
 4537TIP3    H135246   3.974   0.846   1.254 -2.0206  2.7725  1.9085
 4537TIP3    H235247   4.088   0.842   1.353 -0.0360 -0.5876 -0.3111
 4538TIP3   OH235248   4.104   6.731   1.054 -0.4172 -0.4214 -0.0281
 4538TIP3    H135249   4.074   6.640   1.049 -3.0611  0.4208 -0.7017
 4538TIP3    H235250   4.181   6.733   0.997 -0.2636 -2.2309  0.0305
 4539TIP3   OH235251   3.298   5.320   7.438 -0.1675  0.4262  0.1753
 4539TIP3    H135252   3.344   5.382   7.495  1.3945 -1.6555  1.3148
 4539TIP3    H235253   3.314   5.235   7.478 -1.4815 -0.8349 -1.8215
 4540TIP3   OH235254   4.355   0.719   7.728 -0.6238  0.6522 -0.3626
 4540TIP3    H135255   4.363   0.623   7.722  1.2380  0.7582 -0.1920
 4540TIP3    H235256   4.404   0.752   7.653 -1.6087  1.4903 -0.6615
 4541TIP3   OH235257   4.555   5.998   8.756 -0.6717  0.0108 -0.5228
 4541TIP3    H135258   4.502   6.040   8.688 -3.8639 -0.9229  1.1783
 4541TIP3    H235259   4.584   6.070   8.811  0.2371  0.5802 -1.6948
 4542TIP3   OH235260   4.947   2.352   7.456 -0.2320  0.2304  0.5439
 4542TIP3    H135261   4.964   2.259   7.470 -0.3459  0.3766  1.7532
 4542TIP3    H235262   4.855   2.363   7.476 -0.4051  0.4753 -0.3493
 4543TIP3   OH235263   2.450   4.679   8.384  0.1586  0.0782  0.1123
 4543TIP3    H135264   2.497   4.730   8.449  0.2811  1.8979 -1.3223
 4543TIP3    H235265   2.361   4.716   8.384  0.4265  0.8202 -1.4049
 4544TIP3   OH235266   4.704   6.325   1.552 -0.1869 -0.0712 -0.8334
 4544TIP3    H135267   4.650   6.398   1.583 -2.9889 -0.5870 -3.9523
 4544TIP3    H235268   4.666   6.248   1.594  0.5441 -0.1057 -0.2152
 4545TIP3   OH235269   0.153   1.796   1.264 -0.1735  0.4238  0.1322
 4545TIP3    H135270   0.233   1.753   1.293 -0.3095  0.6840  0.9374
 4545TIP3    H235271   0.100   1.727   1.226 -0.1401 -0.0173  0.8703
 4546TIP3   OH235272   4.622   4.939   2.172  0.0505 -0.0800  0.6009
 4546TIP3    H135273   4.594   4.849   2.186 -1.0488 -0.0674 -1.2052
 4546TIP3    H235274   4.578   4.990   2.239 -2.5418 -0.3943 -0.7574
 4547TIP3   OH235275   1.043   4.042   2.523  0.4558 -0.2775  0.2988
 4547TIP3    H135276   1.119   4.049   2.465  0.7630 -1.0092  0.6046
 4547TIP3    H235277   1.055   3.959   2.568  0.9796  0.9124  2.4967
 4548TIP3   OH235278   0.230   5.050   0.348  0.2929  0.0390 -0.3315
 4548TIP3    H135279   0.178   5.127   0.370  1.0892  0.6561 -0.5872
 4548TIP3    H235280   0.259   5.016   0.432 -3.0114 -2.1675  0.1500
 4549TIP3   OH235281   4.292   5.449   8.311 -0.0858  0.0099  0.2329
 4549TIP3    H135282   4.318   5.517   8.249  0.0753 -1.0310 -0.8786
 4549TIP3    H235283   4.333   5.369   8.278 -1.6577 -0.9667  0.5369
 4550TIP3   OH235284   3.406   6.608   7.723 -0.2321  0.6116  0.2646
 4550TIP3    H135285   3.367   6.532   7.681  0.5503 -0.4368  1.3661
 4550TIP3    H235286   3.416   6.672   7.653  0.7668 -0.9498 -1.0996
 4551TIP3   OH235287   5.431   4.836   1.076  0.2894  0.7115 -0.0071
 4551TIP3    H135288   5.409   4.877   0.992  0.9825  1.8934  0.3691
 4551TIP3    H235289   5.399   4.746   1.067  2.4881  0.0437 -2.4723
 4552TIP3   OH235290   3.236   3.052   7.873  0.6122  0.2885  0.2896
 4552TIP3    H135291   3.145   3.048   7.901  0.3431 -1.4865 -0.6816
 4552TIP3    H235292   3.286   3.025   7.950  0.0159 -2.4070 -0.1484
 4553TIP3   OH235293   4.648   3.280   8.659  0.1802 -0.0898 -0.3182
 4553TIP3    H135294   4.734   3.290   8.617 -0.0801 -1.0357 -1.1109
 4553TIP3    H235295   4.626   3.187   8.647 -0.4132 -0.1304  0.9475
 4554TIP3   OH235296   0.938   5.178   6.648 -0.2820  0.1253  0.0855
 4554TIP3    H135297   0.955   5.270   6.626 -0.5027  0.1461 -0.0011
 4554TIP3    H235298   1.020   5.133   6.628  0.1265  0.4437  0.9621
 4555TIP3   OH235299   6.376   2.144   0.466 -0.5893 -0.4135  0.4885
 4555TIP3    H135300   6.417   2.179   0.387  1.3101  0.1982  1.6830
 4555TIP3    H235301   6.364   2.051   0.447  1.6087 -0.6685  0.1366
 4556TIP3   OH235302   3.752   0.399   7.941 -0.5069  0.0992  0.2022
 4556TIP3    H135303   3.750   0.465   8.010 -0.9050 -1.1889  1.4527
 4556TIP3    H235304   3.692   0.433   7.874 -0.8349  0.9226  0.8983
 4557TIP3   OH235305   3.958   6.782   7.717 -0.1026  0.1803  0.1300
 4557TIP3    H135306   3.919   6.864   7.745 -0.9310  0.2698 -1.2005
 4557TIP3    H235307   4.003   6.749   7.795 -1.9976  0.5576  1.4739
 4558TIP3   OH235308   5.139   6.355   0.186 -0.1385 -0.2560  0.0346
 4558TIP3    H135309   5.091   6.352   0.104 -1.5822  0.0282  0.8493
 4558TIP3    H235310   5.215   6.411   0.168 -1.6894  1.7605 -0.4654
 4559TIP3   OH235311   1.037   0.141   8.007 -0.2623  0.0111  0.0685
 4559TIP3    H135312   1.014   0.203   7.939 -0.0902  0.4780  0.4327
 4559TIP3    H235313   1.125   0.166   8.035  0.1298 -0.8803 -0.3286
 4560TIP3   OH235314   4.162   2.441   6.996  0.1036 -0.4012  0.2713
 4560TIP3    H135315   4.256   2.422   6.998  0.0876 -0.7506 -1.0950
 4560TIP3    H235316   4.120   2.356   6.981 -0.3155 -0.0521 -0.6315
 4561TIP3   OH235317   2.580   6.263   7.281 -0.0214 -0.2329 -0.3442
 4561TIP3    H135318   2.529   6.194   7.324  0.8629 -0.3718  0.5119
 4561TIP3    H235319   2.564   6.341   7.335  1.5218 -0.5298  0.6075
 4562TIP3   OH235320   5.400   0.969   7.394  0.0968  0.5925 -0.1174
 4562TIP3    H135321   5.381   0.878   7.414 -0.6601  0.9204  0.6921
 4562TIP3    H235322   5.358   1.019   7.464 -0.1892  1.6061 -0.9832
 4563TIP3   OH235323   5.370   5.692   0.696  0.0885  0.0439  0.0403
 4563TIP3    H135324   5.344   5.673   0.605 -1.2941  2.1928 -0.0957
 4563TIP3    H235325   5.383   5.606   0.736 -1.0217 -0.9986 -1.7054
 4564TIP3   OH235326   2.573   0.414   0.429  0.6215 -0.5755 -0.5169
 4564TIP3    H135327   2.641   0.388   0.367  1.7567  2.2997 -0.6475
 4564TIP3    H235328   2.508   0.459   0.375  0.3066 -0.3435  0.0482
 4565TIP3   OH235329   4.598   1.753   6.852 -0.1638  0.4887  0.1734
 4565TIP3    H135330   4.644   1.730   6.771  0.0494  1.0315  0.1338
 4565TIP3    H235331   4.545   1.830   6.828 -2.3774 -1.0631 -0.2342
 4566TIP3   OH235332   0.983   6.591   7.643  0.0379 -0.0316  0.3391
 4566TIP3    H135333   0.970   6.653   7.571 -1.7476 -1.0076 -0.2259
 4566TIP3    H235334   0.896   6.581   7.682 -0.0797 -3.2887 -0.5103
 4567TIP3   OH235335   2.781   4.770   1.770 -0.0382  0.0093 -0.1441
 4567TIP3    H135336   2.694   4.746   1.803  0.5630 -0.7470  0.9328
 4567TIP3    H235337   2.764   4.845   1.712 -1.3817 -0.0174  0.1656
 4568TIP3   OH235338   4.694   4.460   1.210 -0.7773 -0.4755 -0.2831
 4568TIP3    H135339   4.681   4.470   1.304  1.2730 -2.1195  0.2263
 4568TIP3    H235340   4.675   4.547   1.174 -1.9033  0.1016  1.5733
 4569TIP3   OH235341   5.260   1.019   0.618  0.5456 -0.1368 -0.4100
 4569TIP3    H135342   5.198   1.087   0.643 -1.8386 -1.6641 -1.7931
 4569TIP3    H235343   5.289   1.045   0.530  0.9117 -0.0921 -0.2792
 4570TIP3   OH235344   3.124   0.006   8.468  0.0186 -0.0938 -0.1624
 4570TIP3    H135345   3.042   0.015   8.420 -0.6800  1.5042  1.2606
 4570TIP3    H235346   3.191  -0.001   8.399 -0.6810  4.1449 -1.5484
 4571TIP3   OH235347   1.715   2.826   8.177 -0.4425 -0.3364  0.1700
 4571TIP3    H135348   1.781   2.777   8.127 -0.8232  0.4149 -1.1286
 4571TIP3    H235349   1.744   2.917   8.171 -0.3363 -0.2635  1.6153
 4572TIP3   OH235350   3.139   0.807   0.628  0.2766  0.0319 -1.0242
 4572TIP3    H135351   3.163   0.865   0.556 -0.8269  0.4193 -1.0902
 4572TIP3    H235352   3.053   0.837   0.656 -0.1068 -1.2670 -0.7452
 4573TIP3   OH235353   4.740   3.969   8.460 -0.3577  0.3475  0.5957
 4573TIP3    H135354   4.788   4.013   8.390 -2.4677  1.6719 -0.1040
 4573TIP3    H235355   4.782   3.999   8.540 -1.3509  3.3117  0.1125
 4574TIP3   OH235356   1.703   3.627   2.378 -0.0907  0.1299 -0.0111
 4574TIP3    H135357   1.793   3.660   2.370 -0.0087  0.0138  0.3853
 4574TIP3    H235358   1.692   3.569   2.302 -0.6449  1.9412 -1.3795
 4575TIP3   OH235359   0.785   2.665   7.862 -0.3888  0.2371  0.5495
 4575TIP3    H135360   0.728   2.597   7.824 -0.4653  0.6176 -0.0258
 4575TIP3    H235361   0.790   2.732   7.795 -0.4655  0.8965  1.1900
 4576TIP3   OH235362   0.066   2.421   1.566  0.1155  0.1567 -0.3236
 4576TIP3    H135363   0.049   2.355   1.633  0.5227  0.2749 -0.1001
 4576TIP3    H235364   0.014   2.496   1.594  1.2767  0.6640  0.5891
 4577TIP3   OH235365   1.794   3.882   1.650  0.4727  0.2583  0.1674
 4577TIP3    H135366   1.836   3.917   1.572 -1.2877 -1.2515 -1.5425
 4577TIP3    H235367   1.761   3.959   1.696  2.5473  1.2600  0.1030
 4578TIP3   OH235368   3.686   1.905   8.091 -0.4474  0.1857  0.1503
 4578TIP3    H135369   3.748   1.897   8.018  0.9134 -0.0955  1.2907
 4578TIP3    H235370   3.645   1.819   8.096 -1.4565  0.5693 -1.0316
 4579TIP3   OH235371   3.698   5.004   7.729 -0.0976 -0.7888 -0.3992
 4579TIP3    H135372   3.677   5.057   7.652  0.7805 -0.6338 -0.5385
 4579TIP3    H235373   3.767   5.052   7.774  0.2916 -1.5159 -0.1990
 4580TIP3   OH235374   4.783   5.257   0.412 -0.2552  0.4284 -0.3650
 4580TIP3    H135375   4.812   5.195   0.478  1.3520  0.0846 -1.3226
 4580TIP3    H235376   4.687   5.258   0.419 -0.2500 -1.3706  0.3489
 4581TIP3   OH235377   1.368   5.575   2.672  0.3840 -0.2626  0.3437
 4581TIP3    H135378   1.325   5.591   2.756  0.9175 -0.5005  0.6597
 4581TIP3    H235379   1.437   5.641   2.667 -0.1511  0.2639 -0.2663
 4582TIP3   OH235380   1.952   2.380   0.111  0.1579 -0.1883 -0.1574
 4582TIP3    H135381   1.881   2.320   0.135  1.3874 -1.1890  1.1540
 4582TIP3    H235382   1.925   2.464   0.148  0.0305 -0.7512  1.0881
 4583TIP3   OH235383   0.526   4.265   1.011  0.6025  0.3697  0.1801
 4583TIP3    H135384   0.572   4.344   0.983 -1.4958  1.7756  0.4902
 4583TIP3    H235385   0.480   4.291   1.091 -0.2077 -1.1474  0.2489
 4584TIP3   OH235386   1.745   4.986   6.833 -0.3987 -0.0493  0.1312
 4584TIP3    H135387   1.761   4.938   6.752 -1.6883  0.3543 -0.3720
 4584TIP3    H235388   1.753   5.078   6.809  0.4598  0.0503  0.7476
 4585TIP3   OH235389   1.705   5.862   8.689  0.3701 -0.1268  0.5039
 4585TIP3    H135390   1.721   5.942   8.739 -1.2918  0.7782 -0.3064
 4585TIP3    H235391   1.766   5.868   8.615  0.9547 -0.1168  0.9845
 4586TIP3   OH235392   5.290   5.810   7.577 -0.2881  0.3413 -0.1228
 4586TIP3    H135393   5.309   5.873   7.646 -1.8102 -0.4683  1.0903
 4586TIP3    H235394   5.350   5.736   7.594 -1.0021 -0.0728  0.6679
 4587TIP3   OH235395   3.340   5.986   7.683  0.0608 -0.0922  0.2949
 4587TIP3    H135396   3.415   5.949   7.638  0.1465 -0.1628  0.4978
 4587TIP3    H235397   3.325   5.928   7.757  0.4968  0.5492  0.8974
 4588TIP3   OH235398   4.821   0.238   0.507  0.0663  0.1640  0.1836
 4588TIP3    H135399   4.850   0.312   0.560 -0.3603  0.5152 -0.0609
 4588TIP3    H235400   4.793   0.172   0.570 -2.6781  1.4410  0.4800
 4589TIP3   OH235401   3.810   2.316   2.077  0.3920 -0.5309  0.0877
 4589TIP3    H135402   3.879   2.307   2.011  1.3261  0.8903  0.8212
 4589TIP3    H235403   3.857   2.331   2.159 -0.7693  0.7967  0.5556
 4590TIP3   OH235404   0.479   6.432   1.399 -0.1990  0.1539  0.2150
 4590TIP3    H135405   0.571   6.444   1.421  0.6013 -0.5285 -2.4037
 4590TIP3    H235406   0.475   6.346   1.357 -1.8048  0.6540 -0.7790
 4591TIP3   OH235407   2.759   2.363   7.786 -0.1202  0.1425 -0.2214
 4591TIP3    H135408   2.779   2.270   7.774  1.1707  0.3528  0.1245
 4591TIP3    H235409   2.772   2.402   7.699  0.7334  0.2159 -0.0770
 4592TIP3   OH235410   4.783   3.568   7.713  0.9694  0.1657  0.1550
 4592TIP3    H135411   4.858   3.603   7.761  0.9439  1.6349 -0.8025
 4592TIP3    H235412   4.787   3.612   7.627  0.0008 -1.0259 -0.5320
 4593TIP3   OH235413   5.433   1.166   0.079  0.4522 -0.1460 -0.6062
 4593TIP3    H135414   5.454   1.166  -0.015  0.0711 -0.0105 -0.6957
 4593TIP3    H235415   5.474   1.245   0.113  0.0038  0.1770 -0.8006
 4594TIP3   OH235416   0.613   5.024   2.071 -0.5122  0.3654  0.2278
 4594TIP3    H135417   0.569   4.940   2.079 -2.6292  1.3339 -0.5506
 4594TIP3    H235418   0.620   5.040   1.977  0.4956  0.7595  0.3534
 4595TIP3   OH235419   1.490   1.086   7.914  0.2008 -0.1440 -0.6181
 4595TIP3    H135420   1.429   1.152   7.883 -1.3144 -1.0914  0.2114
 4595TIP3    H235421   1.494   1.022   7.843  0.4589  0.0612 -0.7893
 4596TIP3   OH235422   1.474   5.076   2.365  0.1365 -0.2635 -0.9908
 4596TIP3    H135423   1.435   5.159   2.337 -0.3717 -1.0635 -2.8407
 4596TIP3    H235424   1.412   5.009   2.335  0.1582 -1.3119  1.1203
 4597TIP3   OH235425   0.109   1.488   1.285 -0.1289 -0.3587 -0.5631
 4597TIP3    H135426   0.099   1.450   1.197 -1.7852 -0.3884 -0.3920
 4597TIP3    H235427   0.107   1.413   1.344 -1.2568 -0.2117 -0.3767
 4598TIP3   OH235428   3.972   5.656   7.240  0.5092  0.1384 -0.4508
 4598TIP3    H135429   3.982   5.722   7.171  2.4147  0.4266  0.0519
 4598TIP3    H235430   3.930   5.703   7.312 -3.1959 -0.5896 -1.9100
 4599TIP3   OH235431   4.720   5.956   8.191  0.7978  0.4018  0.3551
 4599TIP3    H135432   4.747   5.980   8.280  0.5513  0.2788  0.4632
 4599TIP3    H235433   4.699   5.863   8.198  2.4299 -0.0472 -0.2103
 4600TIP3   OH235434   0.627   5.647   1.007  0.3347 -0.0659 -0.3609
 4600TIP3    H135435   0.674   5.674   0.928 -0.7101  0.2451 -0.8957
 4600TIP3    H235436   0.681   5.679   1.080  1.5451 -0.7694 -0.9281
 4601TIP3   OH235437   6.604   0.665   7.341 -0.3215  0.8299  0.3495
 4601TIP3    H135438   6.518   0.662   7.382 -1.1368  0.4010 -1.2862
 4601TIP3    H235439   6.604   0.749   7.294 -0.5539  0.0880 -1.0323
 4602TIP3   OH235440   3.639   6.460   7.793 -0.1263  0.0804 -0.9807
 4602TIP3    H135441   3.545   6.475   7.784  0.1028  0.9446 -2.3372
 4602TIP3    H235442   3.667   6.521   7.862 -0.3298  0.9668 -1.6600
 4603TIP3   OH235443   6.630   2.111   0.262 -0.5740 -0.3521 -0.2377
 4603TIP3    H135444   6.641   2.017   0.277  0.5160 -0.2024 -0.0044
 4603TIP3    H235445   6.584   2.117   0.178  1.6028 -1.1027 -1.5905
 4604TIP3   OH235446   4.119   2.785   7.484  0.1651 -0.0801  0.6074
 4604TIP3    H135447   4.066   2.710   7.456  0.9483 -0.2817 -0.3506
 4604TIP3    H235448   4.147   2.827   7.403  0.7896  0.5137  1.1196
 4605TIP3   OH235449   1.747   2.684   1.818 -0.3710  0.0556 -0.0005
 4605TIP3    H135450   1.676   2.626   1.793 -0.0030 -0.4382  0.1002
 4605TIP3    H235451   1.824   2.627   1.826  0.5566  0.8552 -2.2376
 4606TIP3   OH235452   1.552   0.416   7.621  0.7437  0.3607  0.1066
 4606TIP3    H135453   1.476   0.405   7.565  0.6827 -0.5547  0.3529
 4606TIP3    H235454   1.627   0.415   7.562  0.6123  0.5439 -0.0637
 4607TIP3   OH235455   1.605   4.691   1.175 -0.2690  0.2875 -0.2386
 4607TIP3    H135456   1.617   4.785   1.162  0.6374  0.0462 -1.2956
 4607TIP3    H235457   1.658   4.671   1.253 -0.2691  0.6148 -0.1517
 4608TIP3   OH235458   1.719   4.272   8.481 -0.2593  0.0742 -0.5568
 4608TIP3    H135459   1.628   4.268   8.449 -0.8527  1.7808  0.7587
 4608TIP3    H235460   1.749   4.360   8.455  0.4451  0.1337  0.4324
 4609TIP3   OH235461   4.541   0.268   1.912  0.8954 -0.4734 -0.5822
 4609TIP3    H135462   4.469   0.291   1.853  0.9092  0.6429 -0.1755
 4609TIP3    H235463   4.602   0.218   1.857 -0.4930 -2.0709 -0.7670
 4610TIP3   OH235464   5.369   4.228   6.257 -0.1273 -0.0129 -0.1620
 4610TIP3    H135465   5.295   4.246   6.315 -0.8018  0.0700 -1.0273
 4610TIP3    H235466   5.446   4.241   6.312 -0.7445  0.2192  0.6714
 4611TIP3   OH235467   3.559   3.485   0.773 -0.7904  0.6003 -0.8427
 4611TIP3    H135468   3.634   3.461   0.828 -2.0934  0.3546  0.9453
 4611TIP3    H235469   3.575   3.577   0.749  0.5296  0.2633 -1.3056
 4612TIP3   OH235470   1.512   6.467   8.881 -0.0510 -0.1912 -0.5123
 4612TIP3    H135471   1.421   6.437   8.883 -0.6945  1.5464  2.2492
 4612TIP3    H235472   1.513   6.539   8.819 -0.7406  0.1932 -0.0889
 4613TIP3   OH235473   0.980   4.915   1.860  0.2013  0.1459  0.0864
 4613TIP3    H135474   0.990   5.002   1.899  2.4976  0.2395 -0.5330
 4613TIP3    H235475   0.941   4.862   1.929  0.6542  1.1909  1.1781
 4614TIP3   OH235476   1.541   6.240   7.112 -0.0156  0.5822 -0.7062
 4614TIP3    H135477   1.586   6.224   7.029  2.3372  1.5882  0.2818
 4614TIP3    H235478   1.583   6.181   7.174  0.0711  1.6822  0.3066
 4615TIP3   OH235479   4.505   4.689   8.900 -0.1173  0.2914  0.5811
 4615TIP3    H135480   4.519   4.778   8.866 -0.0315  0.1611  0.2735
 4615TIP3    H235481   4.593   4.654   8.911 -0.0823  0.7944  2.1976
 4616TIP3   OH235482   3.565   6.112   7.536 -0.5721  0.5852  0.1769
 4616TIP3    H135483   3.512   6.035   7.514  0.2775  0.0732 -0.1210
 4616TIP3    H235484   3.544   6.176   7.468  0.3368 -0.1788 -0.8702
 4617TIP3   OH235485   5.347   1.459   7.593 -0.1592  0.2940  0.1862
 4617TIP3    H135486   5.251   1.454   7.590 -0.1149 -1.3112  0.1969
 4617TIP3    H235487   5.375   1.426   7.507  0.3817  1.6745 -0.1855
 4618TIP3   OH235488   3.915   2.327   0.520  0.0722 -0.2566  0.2216
 4618TIP3    H135489   3.894   2.286   0.604 -2.7509 -0.5348 -0.5018
 4618TIP3    H235490   3.874   2.270   0.455  3.6301 -0.9930 -1.6016
 4619TIP3   OH235491   4.591   4.208   8.610 -0.4044  0.3175 -0.2299
 4619TIP3    H135492   4.620   4.248   8.528  0.2089 -1.8360 -1.1208
 4619TIP3    H235493   4.667   4.160   8.642 -1.3184 -0.7839  0.3746
 4620TIP3   OH235494   3.691   4.842   7.331  0.3609  0.1937  0.6766
 4620TIP3    H135495   3.629   4.911   7.307  0.4307  0.0384  0.0294
 4620TIP3    H235496   3.658   4.807   7.414  0.4094  1.1050  1.0934
 4621TIP3   OH235497   4.934   0.635   1.515  0.0926  0.0668  0.2271
 4621TIP3    H135498   4.896   0.619   1.602 -1.0753  0.7690 -0.1403
 4621TIP3    H235499   4.966   0.725   1.518  0.3511 -0.0162  0.0315
 4622TIP3   OH235500   3.908   0.350   0.423 -0.7250  0.1914 -0.5012
 4622TIP3    H135501   4.000   0.334   0.444 -0.8984 -1.0106 -0.5922
 4622TIP3    H235502   3.868   0.263   0.422 -1.3689  0.4359 -2.7482
 4623TIP3   OH235503   0.695   2.350   0.680 -0.6527  0.2997  0.2418
 4623TIP3    H135504   0.786   2.345   0.652 -0.3398 -0.4386  1.3110
 4623TIP3    H235505   0.689   2.434   0.726 -0.4157  0.1995  0.4600
 4624TIP3   OH235506   0.914   2.773   1.872 -0.0863  0.4383 -0.1858
 4624TIP3    H135507   0.953   2.766   1.959 -0.0803  1.9790 -0.0362
 4624TIP3    H235508   0.981   2.739   1.813 -0.2582 -1.0226  0.4284
 4625TIP3   OH235509   3.044   0.570   7.970 -0.2292  0.5179 -0.5150
 4625TIP3    H135510   3.070   0.650   8.016  0.6404 -0.3780  0.5935
 4625TIP3    H235511   3.052   0.501   8.035 -1.3487 -0.4365 -1.3503
 4626TIP3   OH235512   1.387   1.662   0.755  0.7503 -0.3398  0.7403
 4626TIP3    H135513   1.404   1.576   0.793  2.8731 -0.2752  0.0581
 4626TIP3    H235514   1.414   1.724   0.823 -0.0711 -0.1815  0.9412
 4627TIP3   OH235515   5.486   4.088   1.821 -0.4857  1.1712  0.2451
 4627TIP3    H135516   5.491   4.130   1.735 -2.8989  0.7492 -0.1679
 4627TIP3    H235517   5.577   4.066   1.842  0.1703  1.2342 -2.2097
 4628TIP3   OH235518   1.492   5.047   8.400  0.2723  0.0381  0.3136
 4628TIP3    H135519   1.554   5.064   8.471  0.2468 -0.4348  0.4527
 4628TIP3    H235520   1.533   4.977   8.350  1.0430  1.4194 -1.0712
 4629TIP3   OH235521   2.178   4.533   1.638  0.2250 -0.7432  0.2605
 4629TIP3    H135522   2.136   4.554   1.721  0.7369  1.0094  0.1361
 4629TIP3    H235523   2.271   4.528   1.659  0.3201 -0.6768 -0.1209
 4630TIP3   OH235524   0.322   6.767   0.515  0.9672  0.6142 -0.4807
 4630TIP3    H135525   0.274   6.789   0.595  0.8047 -0.9669 -0.1136
 4630TIP3    H235526   0.328   6.672   0.516  1.0641  0.5651 -2.3067
 4631TIP3   OH235527   6.629   0.106   0.074 -0.5227 -0.4945  0.2428
 4631TIP3    H135528   6.688   0.126   0.146  1.8245  0.5786 -1.8474
 4631TIP3    H235529   6.561   0.173   0.079 -0.0036 -0.0221  1.0557
 4632TIP3   OH235530   2.143   4.079   1.675  0.0294 -0.3563  0.2023
 4632TIP3    H135531   2.232   4.047   1.658 -0.1436 -0.5890 -0.2640
 4632TIP3    H235532   2.135   4.158   1.622 -0.3108 -0.7672 -0.3696
 4633TIP3   OH235533   4.073   0.031   6.063  0.2619  0.0475  0.4050
 4633TIP3    H135534   4.008  -0.017   6.115  0.6093 -1.0514 -0.1326
 4633TIP3    H235535   4.139   0.058   6.126  1.1112 -1.9969  0.4755
 4634TIP3   OH235536   0.213   5.828   1.365 -0.2346 -0.5271 -0.6067
 4634TIP3    H135537   0.240   5.771   1.294  1.1378 -0.5122 -0.1170
 4634TIP3    H235538   0.126   5.860   1.339 -0.3162 -1.5467 -1.6371
 4635TIP3   OH235539   1.736   3.441   1.266  0.2636 -0.5970  0.3713
 4635TIP3    H135540   1.814   3.446   1.210 -0.2417 -0.8473 -0.3765
 4635TIP3    H235541   1.748   3.512   1.329  0.1010  0.7936 -1.0696
 4636TIP3   OH235542   2.010   5.509   0.556  0.3228 -0.1670 -0.2478
 4636TIP3    H135543   1.973   5.596   0.572  1.2686  0.5951 -1.9840
 4636TIP3    H235544   2.012   5.500   0.461  1.3675 -1.5993 -0.1303
 4637TIP3   OH235545   4.464   5.313   7.881 -0.0934  0.2691 -0.4672
 4637TIP3    H135546   4.460   5.403   7.914 -1.8012 -0.9988  3.3009
 4637TIP3    H235547   4.548   5.279   7.914 -0.5595 -0.2031  0.2551
 4638TIP3   OH235548   5.686   2.089   0.266 -0.0291 -0.1708  0.1898
 4638TIP3    H135549   5.602   2.044   0.259 -0.0888  0.0510 -0.5658
 4638TIP3    H235550   5.705   2.090   0.360 -0.4752 -0.9427  0.2920
 4639TIP3   OH235551   3.759   4.154   7.354 -0.6471  0.2485  0.1030
 4639TIP3    H135552   3.798   4.109   7.429  2.1962 -0.9448 -1.9003
 4639TIP3    H235553   3.834   4.192   7.307 -2.5905  3.9488 -0.3756
 4640TIP3   OH235554   1.332   6.423   8.330 -0.0715  0.2199 -0.0617
 4640TIP3    H135555   1.348   6.394   8.240 -1.7081 -1.2039  0.0476
 4640TIP3    H235556   1.248   6.383   8.353 -0.1018  1.2709  1.8080
 4641TIP3   OH235557   4.657   2.915   0.040  0.3348  0.8698  0.1016
 4641TIP3    H135558   4.670   2.821   0.054  1.6943  0.9505 -0.4224
 4641TIP3    H235559   4.696   2.956   0.118  2.4195  1.0795 -0.9847
 4642TIP3   OH235560   4.699   5.592   1.256 -0.6061  0.1342 -0.3487
 4642TIP3    H135561   4.734   5.508   1.226  0.0853  0.7409 -1.3435
 4642TIP3    H235562   4.605   5.587   1.239 -0.9866 -1.3223  1.8441
 4643TIP3   OH235563   0.226   5.487   0.412  0.1658 -0.2542 -0.5944
 4643TIP3    H135564   0.316   5.519   0.412 -0.4368  1.6648  0.9143
 4643TIP3    H235565   0.182   5.539   0.344  0.1341 -1.0250 -1.1711
 4644TIP3   OH235566   1.177   0.919   0.940  0.5794 -0.5985  0.0208
 4644TIP3    H135567   1.227   0.932   0.859  2.3619 -1.2581  0.9475
 4644TIP3    H235568   1.243   0.926   1.009 -0.8764 -0.2358  1.4067
 4645TIP3   OH235569   6.291   1.456   1.582 -0.3266  0.1262 -0.5752
 4645TIP3    H135570   6.306   1.549   1.565  0.3994  0.3485  1.0994
 4645TIP3    H235571   6.372   1.413   1.556  0.7471  0.4549  1.8955
 4646TIP3   OH235572   2.477   2.666   2.117  0.0046 -0.6360  0.4627
 4646TIP3    H135573   2.433   2.685   2.034 -1.2626 -0.0549  1.2486
 4646TIP3    H235574   2.488   2.751   2.159  1.4075 -0.8261  0.5411
 4647TIP3   OH235575   4.238   3.496   0.420  0.0651  0.1588 -0.0653
 4647TIP3    H135576   4.310   3.533   0.369  1.9879 -1.8210  1.0106
 4647TIP3    H235577   4.202   3.428   0.365 -1.4673  1.5309 -0.8397
 4648TIP3   OH235578   3.727   6.107   7.254 -0.0429  0.3884 -0.4681
 4648TIP3    H135579   3.815   6.090   7.289  0.4330  0.9028 -1.3928
 4648TIP3    H235580   3.696   6.182   7.306 -0.1992 -0.1858  0.2874
 4649TIP3   OH235581   5.051   6.711   8.566 -0.5333 -0.3288  0.7913
 4649TIP3    H135582   4.996   6.642   8.528 -2.0534  0.1105  2.0540
 4649TIP3    H235583   4.989   6.779   8.593  0.8840  1.3712 -0.0242
 4650TIP3   OH235584   2.449   0.460   6.527 -0.1121 -0.2170 -0.3117
 4650TIP3    H135585   2.364   0.474   6.486  0.0524 -0.4759 -0.7571
 4650TIP3    H235586   2.471   0.369   6.506 -0.2177 -0.5010  0.7274
 4651TIP3   OH235587   5.260   4.189   8.058 -0.2427 -0.3568  0.1903
 4651TIP3    H135588   5.232   4.165   7.970  1.5158 -0.5122 -0.3617
 4651TIP3    H235589   5.233   4.116   8.113 -2.4918  0.2984  0.0475
 4652TIP3   OH235590   5.575   1.384   0.171  0.2750  0.1585 -0.0599
 4652TIP3    H135591   5.577   1.433   0.253 -2.6531 -1.4291  1.1064
 4652TIP3    H235592   5.598   1.449   0.104  0.0657  2.2003  1.7457
 4653TIP3   OH235593   2.987   5.997   1.232  0.0129  0.1942  0.4077
 4653TIP3    H135594   3.055   6.041   1.181 -1.7357  2.0364 -0.5111
 4653TIP3    H235595   2.987   6.044   1.316  0.5517 -0.4968  0.7993
 4654TIP3   OH235596   0.510   0.477   8.570  0.0823 -0.7121 -0.2910
 4654TIP3    H135597   0.449   0.517   8.633  0.7487 -0.7845  0.4158
 4654TIP3    H235598   0.589   0.532   8.575  0.8877 -1.9054  0.4353
 4655TIP3   OH235599   4.802   6.024   1.906 -0.1820 -0.2687 -0.4885
 4655TIP3    H135600   4.708   6.022   1.921 -0.3365 -0.8315 -1.4161
 4655TIP3    H235601   4.811   6.053   1.815  0.5434 -0.0903 -0.3700
 4656TIP3   OH235602   3.418   5.800   0.678 -0.7048  0.0497  0.2633
 4656TIP3    H135603   3.392   5.783   0.769  2.7177  0.7783  1.5328
 4656TIP3    H235604   3.389   5.723   0.630  0.5109 -2.0896  2.7295
 4657TIP3   OH235605   2.608   6.748   7.412  0.3078  0.0962  0.3181
 4657TIP3    H135606   2.629   6.715   7.500  2.4472 -1.3595 -0.6466
 4657TIP3    H235607   2.598   6.842   7.424  1.6114  0.0832  1.9694
 4658TIP3   OH235608   1.294   3.253   2.567 -0.0184 -0.2219 -0.2257
 4658TIP3    H135609   1.375   3.302   2.556  0.6270 -1.1027  0.4735
 4658TIP3    H235610   1.238   3.311   2.619  0.1373  0.4032 -0.7406
 4659TIP3   OH235611   3.149   3.967   8.744 -0.1749 -0.3362 -0.4954
 4659TIP3    H135612   3.113   3.890   8.702 -0.8777 -0.5158  0.3976
 4659TIP3    H235613   3.154   3.944   8.837  2.7532 -0.5143 -0.6008
 4660TIP3   OH235614   4.090   4.339   0.122 -0.0206 -0.5618  0.9295
 4660TIP3    H135615   4.182   4.330   0.146  0.4890  0.5405 -0.4765
 4660TIP3    H235616   4.050   4.256   0.148  1.7944 -1.8712 -0.2689
 4661TIP3   OH235617   4.125   5.847   0.764 -0.1085 -0.6167  0.4202
 4661TIP3    H135618   4.140   5.776   0.702  0.3733 -0.9592  0.9170
 4661TIP3    H235619   4.131   5.927   0.712  1.2762 -0.8473  0.1886
 4662TIP3   OH235620   6.703   5.963   1.894  0.1314 -0.0996  0.2182
 4662TIP3    H135621   6.628   5.915   1.931  0.3715 -0.2705  0.4812
 4662TIP3    H235622   6.765   5.895   1.869 -0.4903 -0.0678 -1.5580
 4663TIP3   OH235623   6.324   5.476   0.128  0.5159 -0.0250  0.0223
 4663TIP3    H135624   6.259   5.494   0.196  0.3116  1.4414 -0.5289
 4663TIP3    H235625   6.407   5.503   0.166  0.7361 -1.2470  0.4658
 4664TIP3   OH235626   3.478   0.336   1.540  0.4479  0.3259 -0.1558
 4664TIP3    H135627   3.414   0.267   1.555  0.2269  0.9185  1.9684
 4664TIP3    H235628   3.547   0.295   1.489 -1.7291 -0.2408 -2.8996
 4665TIP3   OH235629   5.301   6.391   1.415  0.8830 -0.9198  0.4167
 4665TIP3    H135630   5.396   6.390   1.432  1.0012 -0.7610 -0.2103
 4665TIP3    H235631   5.275   6.299   1.416  1.1699 -1.0081 -0.0913
 4666TIP3   OH235632   4.993   5.989   1.191  0.1371  0.0962  0.3468
 4666TIP3    H135633   4.931   6.037   1.136  0.2555 -1.4372 -1.2021
 4666TIP3    H235634   5.065   5.967   1.132  1.3930  0.4016  1.7183
 4667TIP3   OH235635   4.954   3.944   7.323 -0.0627 -0.2228  0.5224
 4667TIP3    H135636   4.984   4.015   7.380 -0.1721  0.8745 -0.7330
 4667TIP3    H235637   4.861   3.933   7.345 -0.3185  0.7725 -0.0134
 4668TIP3   OH235638   1.340   3.031   8.462  0.4793  0.1332 -0.0516
 4668TIP3    H135639   1.394   3.074   8.396 -2.0130  0.6603 -1.8726
 4668TIP3    H235640   1.291   3.102   8.503 -0.3082 -0.4998  0.1390
 4669TIP3   OH235641   0.283   5.265   8.682  0.5213 -0.6862 -0.1681
 4669TIP3    H135642   0.337   5.344   8.687  0.7425 -0.7753 -1.0231
 4669TIP3    H235643   0.209   5.290   8.626  0.0842 -0.7994  0.3516
 4670TIP3   OH235644   0.754   0.016   0.959  0.0417 -0.5080  0.1581
 4670TIP3    H135645   0.832  -0.030   0.926 -0.1118  0.5253 -1.7945
 4670TIP3    H235646   0.681  -0.042   0.936 -0.0869  0.3224 -1.6381
 4671TIP3   OH235647   5.353   4.720   8.590 -0.4076 -0.5889 -0.1471
 4671TIP3    H135648   5.263   4.752   8.586 -0.0667  0.2766 -1.3437
 4671TIP3    H235649   5.356   4.650   8.525  0.0947  0.2467 -1.0489
 4672TIP3   OH235650   4.170   5.639   0.595  0.5238  0.3353 -0.5127
 4672TIP3    H135651   4.243   5.632   0.533 -1.1355  0.5795 -2.6366
 4672TIP3    H235652   4.091   5.632   0.540 -1.1121  3.5705  1.1168
 4673TIP3   OH235653   3.744   6.081   8.007  0.8210  0.9769 -0.3025
 4673TIP3    H135654   3.693   6.112   7.932  0.0287  1.4647  0.4222
 4673TIP3    H235655   3.835   6.093   7.980  0.5446  1.6417 -0.9878
 4674TIP3   OH235656   3.956   1.630   8.706 -0.3903 -0.4298  0.8912
 4674TIP3    H135657   3.918   1.574   8.638 -0.0332 -2.8319  2.5447
 4674TIP3    H235658   3.890   1.631   8.776  0.1505  0.2018  1.4093
 4675TIP3   OH235659   1.385   5.883   2.368  0.0498 -0.3406  0.5986
 4675TIP3    H135660   1.333   5.908   2.444  0.9301 -0.0647  1.1282
 4675TIP3    H235661   1.452   5.951   2.362  0.8616 -1.1336  0.4494
 4676TIP3   OH235662   0.315   5.090   1.593 -0.0518 -0.0988 -0.3446
 4676TIP3    H135663   0.355   5.027   1.534  0.2723  1.2242 -1.5699
 4676TIP3    H235664   0.381   5.158   1.605  0.6041 -1.1398  2.9806
 4677TIP3   OH235665   4.154   0.557   0.039 -0.0836  0.1378 -0.9528
 4677TIP3    H135666   4.205   0.530   0.116  0.5752 -0.0276 -1.4395
 4677TIP3    H235667   4.139   0.475  -0.009 -1.9667 -0.0341 -0.1517
 4678TIP3   OH235668   2.501   3.842   0.495  0.0909  0.3248 -0.4602
 4678TIP3    H135669   2.421   3.885   0.466 -0.9028 -1.0936  0.0185
 4678TIP3    H235670   2.477   3.801   0.579  1.8797  1.4549  0.6605
 4679TIP3   OH235671   4.090   3.825   2.251  0.1108  0.2890  0.1735
 4679TIP3    H135672   4.014   3.883   2.256 -0.6040 -0.3460 -2.2310
 4679TIP3    H235673   4.076   3.761   2.321 -3.6446 -2.0977 -2.4099
 4680TIP3   OH235674   5.144   0.352   0.592  0.1286  0.1195  0.2795
 4680TIP3    H135675   5.163   0.331   0.501 -1.4605  0.0598 -0.0578
 4680TIP3    H235676   5.049   0.353   0.598  0.1303  2.8982  1.3059
 4681TIP3   OH235677   1.581   1.154   0.885  0.1805 -0.2169 -0.1457
 4681TIP3    H135678   1.607   1.094   0.815 -0.0781 -0.6594  0.1251
 4681TIP3    H235679   1.520   1.102   0.938  1.0255 -0.1924  0.8895
 4682TIP3   OH235680   6.687   2.588   8.160 -0.0879  0.3580  0.2092
 4682TIP3    H135681   6.632   2.661   8.188 -2.9369 -0.1562 -3.3637
 4682TIP3    H235682   6.755   2.629   8.106  0.9804  0.6387  1.6840
 4683TIP3   OH235683   1.095   4.395   0.260  0.0971 -0.0374 -0.3515
 4683TIP3    H135684   1.028   4.452   0.221 -0.9477 -1.2626 -0.4049
 4683TIP3    H235685   1.118   4.438   0.342  0.7917  1.4877 -1.2988
 4684TIP3   OH235686   5.257   6.778   7.968 -0.1380  0.0097  0.4661
 4684TIP3    H135687   5.305   6.829   8.033  1.7293 -0.9441 -0.0786
 4684TIP3    H235688   5.261   6.831   7.888  1.5492 -0.7869 -0.0231
 4685TIP3   OH235689   0.545   5.962   1.637  0.2262  0.1757 -0.6589
 4685TIP3    H135690   0.455   5.928   1.642  0.2425  0.1204 -0.7498
 4685TIP3    H235691   0.534   6.057   1.635  0.1370  0.1556 -1.3305
 4686TIP3   OH235692   0.778   3.629   8.052  0.2435 -0.6689 -1.1182
 4686TIP3    H135693   0.872   3.636   8.071  0.2049 -0.7391 -0.9021
 4686TIP3    H235694   0.749   3.720   8.043  0.2555 -0.6350 -0.8137
 4687TIP3   OH235695   2.967   5.244   0.987  0.0418  0.1991  0.3910
 4687TIP3    H135696   2.950   5.335   1.010 -0.2620  0.0079  0.9143
 4687TIP3    H235697   3.016   5.209   1.061  0.6053  0.0699 -0.0317
 4688TIP3   OH235698   4.601   1.134   0.226  0.0842 -0.1041 -0.0630
 4688TIP3    H135699   4.620   1.089   0.144 -1.2318 -0.2063 -0.3390
 4688TIP3    H235700   4.505   1.133   0.232  0.1518 -0.1967  1.5272
 4689TIP3   OH235701   0.704   3.306   6.875 -0.1772  0.4266 -0.0473
 4689TIP3    H135702   0.776   3.265   6.924 -1.1618 -3.3775 -1.3931
 4689TIP3    H235703   0.700   3.257   6.793 -1.6500  3.3727 -1.8890
 4690TIP3   OH235704   5.310   4.024   1.553  0.4940 -0.2039  0.1967
 4690TIP3    H135705   5.336   3.933   1.538  1.0722 -0.0076  0.0221
 4690TIP3    H235706   5.391   4.074   1.549 -0.0477  0.5865 -1.6705
 4691TIP3   OH235707   3.108   4.857   7.553 -0.6361  0.0014  0.4327
 4691TIP3    H135708   3.150   4.771   7.548 -1.2760 -0.2470 -1.1620
 4691TIP3    H235709   3.181   4.919   7.543 -0.3885 -0.3866 -0.2243
 4692TIP3   OH235710   1.305   1.454   7.381  0.9203  0.4623 -0.3051
 4692TIP3    H135711   1.252   1.375   7.390  0.6691  0.7714  1.3544
 4692TIP3    H235712   1.244   1.526   7.398  1.1943  1.0139 -1.5509
 4693TIP3   OH235713   0.983   2.283   7.286 -0.0177  0.1782  0.0763
 4693TIP3    H135714   1.033   2.285   7.205 -0.9533 -2.3986 -0.6562
 4693TIP3    H235715   0.892   2.269   7.258 -0.2728 -1.4750  1.5413
 4694TIP3   OH235716   1.681   5.566   0.814 -0.1681  0.2209  0.3071
 4694TIP3    H135717   1.756   5.625   0.812  0.4485 -0.5487  0.3929
 4694TIP3    H235718   1.605   5.625   0.816  0.4509  1.0881  2.5107
 4695TIP3   OH235719   2.216   0.827   1.173 -0.7835 -0.1677  0.1588
 4695TIP3    H135720   2.128   0.797   1.194 -0.5394 -1.1685 -0.2167
 4695TIP3    H235721   2.231   0.800   1.083 -0.3841  0.7164 -0.0556
 4696TIP3   OH235722   5.347   5.209   6.177  0.0154  0.6420 -0.4546
 4696TIP3    H135723   5.258   5.176   6.165  0.5036 -0.4491 -1.2066
 4696TIP3    H235724   5.345   5.297   6.138 -0.7470  0.6619 -0.3875
 4697TIP3   OH235725   0.522   0.234   7.812 -0.1649 -0.6472 -0.0961
 4697TIP3    H135726   0.446   0.270   7.857 -1.2561 -1.8102 -0.9232
 4697TIP3    H235727   0.486   0.164   7.757  1.6375 -1.9599  0.2960
 4698TIP3   OH235728   5.900   3.598   0.550  0.2833 -0.6946 -1.0187
 4698TIP3    H135729   5.929   3.511   0.574  0.1004 -0.7534 -1.0048
 4698TIP3    H235730   5.817   3.610   0.597 -1.2788 -1.6948 -3.3067
 4699TIP3   OH235731   0.264   2.568   7.967 -0.0188 -0.6222 -0.2362
 4699TIP3    H135732   0.323   2.499   7.997 -0.6816 -1.9141 -1.7434
 4699TIP3    H235733   0.322   2.633   7.926  0.5753 -0.4531  0.8452
 4700TIP3   OH235734   5.893   2.529   6.964 -0.2428  0.1745  0.2371
 4700TIP3    H135735   5.979   2.543   6.923 -0.6923  0.6021 -0.6022
 4700TIP3    H235736   5.905   2.554   7.055  0.9232 -1.2798  0.5184
 4701TIP3   OH235737   4.699   3.349   1.809  0.3356  0.0784  0.1713
 4701TIP3    H135738   4.611   3.327   1.778 -0.2030 -0.4454  1.9846
 4701TIP3    H235739   4.748   3.268   1.801  0.2518 -0.0043  0.4812
 4702TIP3   OH235740   1.645   6.174   0.354 -0.4134  0.0065 -0.2913
 4702TIP3    H135741   1.567   6.226   0.333  0.2736  1.5740  0.8429
 4702TIP3    H235742   1.611   6.101   0.405 -1.2104  0.4160 -0.2067
 4703TIP3   OH235743   4.340   5.754   0.268  0.2006 -0.4610  0.3571
 4703TIP3    H135744   4.430   5.778   0.246 -0.2912  1.1180 -0.0972
 4703TIP3    H235745   4.342   5.659   0.278  1.2350 -0.9431 -3.1070
 4704TIP3   OH235746   5.595   1.544   1.437  0.4824  0.5260  0.4625
 4704TIP3    H135747   5.525   1.485   1.466  0.6497  0.0779 -0.0441
 4704TIP3    H235748   5.648   1.558   1.516 -1.2034  2.3835  1.3783
 4705TIP3   OH235749   4.273   3.300   1.583  0.1845 -0.6644  0.1372
 4705TIP3    H135750   4.247   3.330   1.496 -0.2369  2.9928  1.3534
 4705TIP3    H235751   4.195   3.257   1.618 -0.3928 -0.1125 -0.4500
 4706TIP3   OH235752   6.525   2.008   7.645 -0.2373 -0.4188  0.4288
 4706TIP3    H135753   6.436   1.976   7.631 -1.3117  2.1648  0.8158
 4706TIP3    H235754   6.524   2.044   7.733  0.5077  1.6334 -0.3501
 4707TIP3   OH235755   5.685   2.639   2.361 -0.2659 -0.2902  0.5387
 4707TIP3    H135756   5.625   2.570   2.392 -0.2389 -0.1677  0.8653
 4707TIP3    H235757   5.748   2.649   2.432 -0.3156  0.1275  0.5237
 4708TIP3   OH235758   2.575   4.194   2.709 -0.2583  0.5905  0.3565
 4708TIP3    H135759   2.661   4.155   2.695 -0.2650  0.9819 -0.8731
 4708TIP3    H235760   2.591   4.288   2.708 -0.3195  0.6915  2.8119
 4709TIP3   OH235761   1.815   4.406   2.253  0.1520 -0.4567 -0.3724
 4709TIP3    H135762   1.741   4.363   2.211 -1.5740  1.4234  0.5971
 4709TIP3    H235763   1.807   4.382   2.346 -0.7893  1.7411  0.1688
 4710TIP3   OH235764   0.904   3.413   1.562 -0.0689  0.1538 -0.8732
 4710TIP3    H135765   0.877   3.500   1.535 -0.7099  0.3182  0.2457
 4710TIP3    H235766   0.824   3.361   1.559  0.0144 -0.0268 -0.1135
 4711TIP3   OH235767   4.204   1.178   7.032  1.2619 -0.0682  0.6370
 4711TIP3    H135768   4.152   1.168   7.112  0.8381  2.1055  0.6927
 4711TIP3    H235769   4.154   1.240   6.979  1.8366 -0.9937 -1.0854
 4712TIP3   OH235770   3.804   4.016   7.595 -0.0914  0.7066  0.2076
 4712TIP3    H135771   3.786   4.103   7.630  0.3385  0.9013 -0.0406
 4712TIP3    H235772   3.898   4.016   7.579  0.3005 -0.5417  2.1947
 4713TIP3   OH235773   2.060   1.001   7.369  0.6652 -0.4296 -0.0494
 4713TIP3    H135774   2.067   0.907   7.384  3.8514 -0.9959 -3.6514
 4713TIP3    H235775   2.134   1.039   7.417 -1.0238  0.5202  2.0122
 4714TIP3   OH235776   6.298   6.462   7.958 -0.0249 -0.3100 -0.0217
 4714TIP3    H135777   6.390   6.474   7.983 -0.1836  0.0713  0.3961
 4714TIP3    H235778   6.258   6.422   8.035 -0.5045  0.7984  0.3274
 4715TIP3   OH235779   3.251   3.427   0.944 -0.0879  0.1590 -0.0114
 4715TIP3    H135780   3.290   3.515   0.943  1.8262 -0.5932 -2.0482
 4715TIP3    H235781   3.315   3.373   0.990 -1.5554 -0.1231  1.8099
 4716TIP3   OH235782   3.596   5.472   0.271 -0.1819 -0.4445  0.2298
 4716TIP3    H135783   3.596   5.568   0.279  0.8658 -0.4039 -0.0086
 4716TIP3    H235784   3.534   5.453   0.202 -1.5466 -0.0514  1.3119
 4717TIP3   OH235785   2.787   4.246   7.303 -0.2239 -0.4014  0.2827
 4717TIP3    H135786   2.751   4.159   7.287  0.4182 -1.1313  2.5483
 4717TIP3    H235787   2.878   4.241   7.273 -0.4723 -0.1784 -0.5294
 4718TIP3   OH235788   5.605   3.524   8.674 -0.2276  0.2631  0.6072
 4718TIP3    H135789   5.637   3.579   8.745  2.6736  1.2125 -1.2497
 4718TIP3    H235790   5.549   3.582   8.622  0.3472  0.5916  0.3405
 4719TIP3   OH235791   1.297   1.448   8.796 -0.6046  0.4148 -0.1648
 4719TIP3    H135792   1.236   1.388   8.839 -0.0604  0.7141  1.0739
 4719TIP3    H235793   1.335   1.396   8.724 -2.3950  0.2810 -1.0585
 4720TIP3   OH235794   4.337   4.971   1.103 -0.2387  0.2451 -0.7476
 4720TIP3    H135795   4.382   5.034   1.048 -1.1520  0.4319 -1.3028
 4720TIP3    H235796   4.286   5.024   1.164 -0.2995  0.0460 -0.6235
 4721TIP3   OH235797   0.981   4.376   7.367 -0.3207  0.1257  0.3523
 4721TIP3    H135798   0.926   4.437   7.318  0.2472  0.1902 -0.2235
 4721TIP3    H235799   0.933   4.294   7.364  0.0964 -0.1021 -1.0837
 4722TIP3   OH235800   2.170   4.536   0.115 -1.0695  0.5492 -0.4801
 4722TIP3    H135801   2.249   4.494   0.149 -0.5834  0.5884 -1.5066
 4722TIP3    H235802   2.114   4.463   0.089 -0.8893  0.5211 -0.7975
 4723TIP3   OH235803   3.921   1.089   8.153 -0.4662 -0.9837 -0.3526
 4723TIP3    H135804   3.858   1.125   8.216 -0.1242 -4.3426  2.1827
 4723TIP3    H235805   4.007   1.117   8.187 -0.3771 -0.4554 -0.9983
 4724TIP3   OH235806   4.510   1.887   0.176 -0.8042 -0.4881 -0.6318
 4724TIP3    H135807   4.596   1.897   0.217 -0.2260 -3.2997 -0.9310
 4724TIP3    H235808   4.448   1.890   0.249 -0.1137 -1.8345  0.0432
 4725TIP3   OH235809   2.166   3.055   2.820 -0.7863 -0.0304 -0.1533
 4725TIP3    H135810   2.126   2.977   2.780  0.9861 -0.1105 -1.8939
 4725TIP3    H235811   2.235   3.020   2.876  2.4503  0.1928 -3.6336
 4726TIP3   OH235812   1.558   2.806   8.589 -0.2237  0.5002 -0.3706
 4726TIP3    H135813   1.626   2.802   8.522 -1.4925  1.4460 -1.7756
 4726TIP3    H235814   1.588   2.876   8.648  1.5513 -1.2118  0.8806
 4727TIP3   OH235815   1.912   0.372   8.879 -0.2357 -0.2772 -0.0424
 4727TIP3    H135816   1.897   0.367   8.784  0.7753 -2.0288 -0.1634
 4727TIP3    H235817   2.000   0.407   8.887  0.2784 -1.5570  0.1602
 4728TIP3   OH235818   0.239   0.079   2.521  0.1369 -0.3849 -1.0395
 4728TIP3    H135819   0.328   0.045   2.507 -0.0389 -1.3920  0.1449
 4728TIP3    H235820   0.182   0.016   2.477 -0.0888 -0.6923 -0.3173
 4729TIP3   OH235821   4.892   5.545   7.485  0.1109 -0.4282 -0.2549
 4729TIP3    H135822   4.972   5.561   7.434  0.2575  2.9607  0.8169
 4729TIP3    H235823   4.823   5.588   7.434 -0.0326  1.4407  1.4119
 4730TIP3   OH235824   6.666   5.932   7.896  0.2691 -0.6601  0.1954
 4730TIP3    H135825   6.723   5.858   7.917  0.3707 -0.5677  0.2489
 4730TIP3    H235826   6.578   5.895   7.895  0.3062 -0.7535  0.3593
 4731TIP3   OH235827   2.432   5.578   8.071  0.6849  0.3424 -0.1087
 4731TIP3    H135828   2.491   5.644   8.109  0.5200 -0.8038  2.3427
 4731TIP3    H235829   2.464   5.495   8.106 -1.3468 -0.4776 -0.0938
 4732TIP3   OH235830   2.443   1.341   0.149  0.0648  0.1167  0.2862
 4732TIP3    H135831   2.385   1.339   0.225 -1.7958 -0.5596 -1.0812
 4732TIP3    H235832   2.474   1.432   0.145 -2.8142  1.1795 -0.2425
 4733TIP3   OH235833   6.019   2.464   0.714  0.7082 -0.1525  0.3958
 4733TIP3    H135834   6.109   2.493   0.731  0.8801  0.5009 -1.3921
 4733TIP3    H235835   6.011   2.467   0.619 -1.1049 -0.5735  0.5040
 4734TIP3   OH235836   2.585   0.764   0.079  0.4838  0.0495 -0.2403
 4734TIP3    H135837   2.580   0.773  -0.016 -2.4862  2.5294 -0.0019
 4734TIP3    H235838   2.653   0.825   0.106  0.9003 -0.2007 -0.7104
 4735TIP3   OH235839   2.113   6.520   8.238 -0.2447  0.0125  1.0720
 4735TIP3    H135840   2.060   6.593   8.206 -0.0022 -0.8011 -1.4197
 4735TIP3    H235841   2.200   6.557   8.251 -0.7274  0.7322  2.5418
 4736TIP3   OH235842   6.462   2.837   0.667  0.1469  0.6404 -0.2345
 4736TIP3    H135843   6.505   2.794   0.740 -0.2984  1.2820  0.4278
 4736TIP3    H235844   6.373   2.856   0.699  0.3762  2.1945 -0.4179
 4737TIP3   OH235845   5.916   0.991   8.816 -0.0812 -0.0758 -0.0824
 4737TIP3    H135846   5.977   1.032   8.756  1.8347 -3.4238 -0.6729
 4737TIP3    H235847   5.929   1.036   8.899  0.4521  1.7208 -1.1046
 4738TIP3   OH235848   0.740   3.663   2.213 -0.0101 -0.1370 -0.6341
 4738TIP3    H135849   0.737   3.712   2.131 -1.1043 -2.2340 -1.9413
 4738TIP3    H235850   0.781   3.723   2.275  0.3580  1.7333 -2.5525
 4739TIP3   OH235851   1.163   4.189   2.136 -1.0366 -0.1622  0.3647
 4739TIP3    H135852   1.243   4.207   2.087 -1.0904  1.5559  0.8642
 4739TIP3    H235853   1.108   4.141   2.075  0.3201 -1.3305 -0.0151
 4740TIP3   OH235854   0.662   0.155   0.314 -0.6745 -0.3980  0.8395
 4740TIP3    H135855   0.673   0.101   0.393  0.4744 -1.5398 -0.0592
 4740TIP3    H235856   0.720   0.114   0.250  0.1818  1.8901  0.0826
 4741TIP3   OH235857   0.702   2.387   0.270 -0.4763  0.3645 -0.4685
 4741TIP3    H135858   0.627   2.436   0.237 -2.0520 -0.9235  1.0291
 4741TIP3    H235859   0.722   2.426   0.355 -1.2316 -0.9995  0.3717
 4742TIP3   OH235860   4.178   2.378   8.467  0.3495 -0.2248 -0.5092
 4742TIP3    H135861   4.261   2.376   8.419  0.4188 -2.8319 -0.4405
 4742TIP3    H235862   4.200   2.348   8.555 -0.4254  0.6367 -0.0053
 4743TIP3   OH235863   5.743   3.653   1.177  0.0744 -0.2925  0.4522
 4743TIP3    H135864   5.759   3.663   1.270  0.4370 -3.6302  0.8942
 4743TIP3    H235865   5.827   3.672   1.136  0.3856 -0.4793  0.9941
 4744TIP3   OH235866   6.292   6.672   8.780 -0.3788  0.6283 -0.1475
 4744TIP3    H135867   6.218   6.615   8.802  0.8338 -0.4714  1.3382
 4744TIP3    H235868   6.353   6.616   8.732 -0.6150  1.6194 -1.6968
 4745TIP3   OH235869   5.489   5.807   0.183 -0.4240 -0.3862 -0.1669
 4745TIP3    H135870   5.473   5.780   0.092  0.4865  2.1515 -1.1542
 4745TIP3    H235871   5.564   5.755   0.210  0.6207  0.2621 -1.6360
 4746TIP3   OH235872   1.988   5.977   1.710  0.0628 -0.0075 -0.4040
 4746TIP3    H135873   2.014   5.918   1.782  1.7606  1.5637  0.3776
 4746TIP3    H235874   2.067   5.983   1.655 -1.4773 -1.8961 -3.0116
 4747TIP3   OH235875   4.909   2.972   0.969  0.0161  1.2359 -0.1372
 4747TIP3    H135876   4.836   2.910   0.968  1.1087 -0.1880  1.5347
 4747TIP3    H235877   4.896   3.024   1.048  1.9312 -0.5795  1.4838
 4748TIP3   OH235878   1.544   4.292   0.250 -0.3409  0.5201  0.2871
 4748TIP3    H135879   1.568   4.208   0.289 -0.2491  0.1099 -0.6213
 4748TIP3    H235880   1.461   4.276   0.207  0.6294  0.3073 -1.6285
 4749TIP3   OH235881   3.859   5.145   1.103 -0.6478 -0.0229  0.6596
 4749TIP3    H135882   3.864   5.175   1.194 -3.6146 -0.7371  1.1867
 4749TIP3    H235883   3.876   5.050   1.109  1.4886  0.2726  0.0590
 4750TIP3   OH235884   3.284   4.697   2.022  0.7531 -0.6471  0.4190
 4750TIP3    H135885   3.266   4.632   2.090 -0.2896 -0.4989  0.3019
 4750TIP3    H235886   3.229   4.772   2.046  1.4371 -0.0520  0.1820
 4751TIP3   OH235887   2.284   2.913   8.068  0.5267  0.2559  0.3302
 4751TIP3    H135888   2.347   2.902   8.140  0.5106 -1.0981  0.1683
 4751TIP3    H235889   2.308   2.844   8.006 -1.8493 -1.1094  0.8196
 4752TIP3   OH235890   4.612   0.606   1.513 -0.1788 -0.0591  0.1973
 4752TIP3    H135891   4.645   0.685   1.556  0.5615 -0.6031  0.6471
 4752TIP3    H235892   4.657   0.534   1.557 -1.3353 -0.7801  0.2468
 4753TIP3   OH235893   0.121   3.606   7.637 -0.0560  0.0076 -0.6506
 4753TIP3    H135894   0.072   3.593   7.556 -0.9623  0.4666 -0.1846
 4753TIP3    H235895   0.103   3.527   7.688 -0.4599  0.2619 -0.4018
 4754TIP3   OH235896   2.607   5.886   7.964  0.2651 -0.2345  0.3379
 4754TIP3    H135897   2.697   5.917   7.970  0.3326 -0.4577  0.5051
 4754TIP3    H235898   2.569   5.935   7.891 -0.1326  1.4956  1.6283
 4755TIP3   OH235899   0.044   3.186   1.851  0.6109  0.6517  0.0088
 4755TIP3    H135900  -0.016   3.259   1.859  1.1674  0.9226  2.1044
 4755TIP3    H235901   0.002   3.128   1.787 -1.2400  1.4273  0.4558
 4756TIP3   OH235902   3.588   1.213   2.089 -0.1602 -0.3436 -0.3490
 4756TIP3    H135903   3.571   1.154   2.163 -1.8508  1.2109  0.5580
 4756TIP3    H235904   3.502   1.247   2.065  0.6527  0.9369 -1.5515
 4757TIP3   OH235905   4.598   5.637   8.773 -0.1083 -0.0447 -0.5188
 4757TIP3    H135906   4.688   5.653   8.745 -0.1986  1.4685 -0.0564
 4757TIP3    H235907   4.587   5.693   8.851 -1.0531 -1.1787  0.2004
 4758TIP3   OH235908   2.876   3.816   7.638  0.0335 -0.0807  0.3704
 4758TIP3    H135909   2.789   3.813   7.597 -0.1334 -0.6102  0.7481
 4758TIP3    H235910   2.889   3.727   7.672  0.6767  0.0285  0.4145
 4759TIP3   OH235911   1.599   5.597   2.459 -0.2580  0.4658 -0.1723
 4759TIP3    H135912   1.610   5.686   2.493  0.5743  0.5659 -0.6774
 4759TIP3    H235913   1.606   5.607   2.364 -0.2145 -0.1303 -0.2305
 4760TIP3   OH235914   2.882   4.538   2.177 -0.0979  0.0542  0.4962
 4760TIP3    H135915   2.823   4.463   2.174  1.0459 -0.8834  0.9441
 4760TIP3    H235916   2.831   4.607   2.219 -0.9857 -0.6388  0.5759
 4761TIP3   OH235917   0.743   0.863   7.673  0.8449 -0.0221 -0.6134
 4761TIP3    H135918   0.657   0.893   7.704  0.7395 -0.5674 -0.3516
 4761TIP3    H235919   0.800   0.870   7.750  1.0212  0.2815 -0.7706
 4762TIP3   OH235920   1.270   4.848   7.744  0.0774  0.6041 -0.7985
 4762TIP3    H135921   1.260   4.796   7.665 -1.8873  1.9185 -1.4865
 4762TIP3    H235922   1.189   4.898   7.750  0.6014  1.2804  1.5168
 4763TIP3   OH235923   4.188   1.493   7.152  0.3058  0.2076  0.0811
 4763TIP3    H135924   4.177   1.398   7.156 -1.9610  0.4034  0.3106
 4763TIP3    H235925   4.258   1.508   7.089 -1.5526 -1.5506 -2.6042
 4764TIP3   OH235926   0.386   4.731   0.541  0.2768  0.0340 -0.1130
 4764TIP3    H135927   0.298   4.750   0.576  0.2405 -2.4318  1.3740
 4764TIP3    H235928   0.390   4.779   0.459 -1.6206  1.9905  0.8426
 4765TIP3   OH235929   4.969   2.795   0.044  0.0944 -0.4259  0.1267
 4765TIP3    H135930   5.005   2.708   0.060 -1.1127 -0.5075  3.0983
 4765TIP3    H235931   5.044   2.848   0.018  1.2975 -1.8117  0.6718
 4766TIP3   OH235932   4.617   4.759   0.799 -0.4549 -0.2557  0.2524
 4766TIP3    H135933   4.648   4.849   0.791 -0.8945 -0.2083 -1.1575
 4766TIP3    H235934   4.521   4.767   0.797 -0.5047 -0.7068  0.7252
 4767TIP3   OH235935   5.494   2.998   0.695 -0.7792  0.6742 -0.4367
 4767TIP3    H135936   5.466   3.089   0.687  1.4648  1.2914 -2.3857
 4767TIP3    H235937   5.492   2.965   0.605  0.7032 -0.4583 -0.0815
 4768TIP3   OH235938   3.675   2.814   8.425  0.1419 -0.4519 -0.4669
 4768TIP3    H135939   3.690   2.843   8.515  1.0932 -1.1139 -0.4074
 4768TIP3    H235940   3.580   2.814   8.415  0.0406 -0.2420  0.4957
 4769TIP3   OH235941   0.440   5.870   0.924  0.0573  0.1209 -0.7407
 4769TIP3    H135942   0.520   5.825   0.950 -1.1194 -1.9983 -0.5535
 4769TIP3    H235943   0.449   5.958   0.961  0.8418 -1.0952  2.2545
 4770TIP3   OH235944   6.750   0.710   1.878  0.0730 -0.2786 -0.1427
 4770TIP3    H135945   6.750   0.710   1.974  0.8169 -0.6956 -0.1303
 4770TIP3    H235946   6.843   0.721   1.855 -0.1259  0.0485 -0.8186
 4771TIP3   OH235947   4.283   2.960   8.142 -0.0737 -0.0253  0.1833
 4771TIP3    H135948   4.207   2.981   8.087  1.0361  2.6542 -0.4776
 4771TIP3    H235949   4.247   2.911   8.215 -2.0589 -0.9827 -1.3427
 4772TIP3   OH235950   0.449   0.158   8.145  0.0313 -0.3689  0.0730
 4772TIP3    H135951   0.472   0.250   8.158 -2.1384 -0.0034  2.0057
 4772TIP3    H235952   0.361   0.160   8.108  0.0990 -1.6846 -0.2052
 4773TIP3   OH235953   6.691   2.144   8.070  0.1265  0.5581  0.4411
 4773TIP3    H135954   6.612   2.123   8.021 -0.1093 -2.3784  1.8638
 4773TIP3    H235955   6.668   2.222   8.121 -2.0466 -0.4562  1.1312
 4774TIP3   OH235956   4.725   3.772   1.575  0.2091  0.1714  0.3641
 4774TIP3    H135957   4.675   3.816   1.506 -1.0832 -1.0786  0.4562
 4774TIP3    H235958   4.691   3.810   1.656 -0.5228 -0.5542  0.4183
 4775TIP3   OH235959   4.085   3.164   8.690 -0.2781 -0.4060  0.2116
 4775TIP3    H135960   4.077   3.070   8.708 -1.6844 -0.2577  0.4509
 4775TIP3    H235961   4.091   3.170   8.595 -0.6310 -0.7096  0.1691
 4776TIP3   OH235962   0.169   1.663   7.751 -0.5407 -0.2626  0.1148
 4776TIP3    H135963   0.116   1.740   7.729 -0.9170 -0.1950  1.2055
 4776TIP3    H235964   0.139   1.637   7.838  1.8549  0.3660  1.2214
 4777TIP3   OH235965   4.076   6.122   2.674  0.4323 -0.6192  0.1875
 4777TIP3    H135966   4.013   6.049   2.679 -0.1860 -0.3785 -2.5882
 4777TIP3    H235967   4.153   6.084   2.631  0.7604 -0.0232  0.2461
 4778TIP3   OH235968   6.193   0.494   0.270 -0.5822  0.5867  0.1841
 4778TIP3    H135969   6.152   0.411   0.248  0.3992  0.3133 -0.6695
 4778TIP3    H235970   6.120   0.556   0.276 -1.4007 -0.4489  1.5240
 4779TIP3   OH235971   4.505   3.530   6.441  0.2754  0.5535 -0.5268
 4779TIP3    H135972   4.597   3.509   6.459 -0.0886  0.7814  1.9653
 4779TIP3    H235973   4.498   3.625   6.456 -0.3809  0.5211 -0.5834
 4780TIP3   OH235974   1.813   4.784   0.331 -0.2185 -0.1212  0.4247
 4780TIP3    H135975   1.760   4.733   0.392 -0.0912  0.5890  1.1539
 4780TIP3    H235976   1.898   4.742   0.332 -0.0013  0.3103  1.3151
 4781TIP3   OH235977   5.735   4.186   1.364  0.6594  0.1950 -0.0423
 4781TIP3    H135978   5.703   4.262   1.317  1.9791 -0.0202 -1.3441
 4781TIP3    H235979   5.830   4.197   1.367  0.8437 -1.2199  0.0630
 4782TIP3   OH235980   6.724   0.557   7.562 -0.0019 -0.1381  0.1954
 4782TIP3    H135981   6.753   0.468   7.539  2.0589  0.6472 -0.4666
 4782TIP3    H235982   6.709   0.599   7.477 -1.3937  0.0607  0.5095
 4783TIP3   OH235983   2.813   6.609   1.001  0.4657 -0.0660 -0.2546
 4783TIP3    H135984   2.832   6.687   1.054 -0.5752  0.2601 -0.3426
 4783TIP3    H235985   2.851   6.630   0.915  2.0062 -0.5279  0.2781
 4784TIP3   OH235986   2.181   3.603   1.306  0.0247  0.2267 -0.1916
 4784TIP3    H135987   2.249   3.539   1.328  0.7771  1.9877  3.2665
 4784TIP3    H235988   2.228   3.672   1.259 -0.0460 -0.0365 -0.6546
 4785TIP3   OH235989   3.447   1.271   6.808 -0.5182 -0.5216  0.1480
 4785TIP3    H135990   3.465   1.315   6.725 -0.2087 -0.2471  0.3582
 4785TIP3    H235991   3.356   1.292   6.827  0.0078  1.2267  0.9489
 4786TIP3   OH235992   6.504   1.381   2.908 -0.3020 -0.4637  0.0912
 4786TIP3    H135993   6.428   1.324   2.890 -0.7694  0.4163 -0.8422
 4786TIP3    H235994   6.567   1.359   2.839  0.1014 -0.8428  0.5733
 4787TIP3   OH235995   0.027   2.156   6.883  0.4162  0.3015  0.0784
 4787TIP3    H135996  -0.031   2.123   6.815 -0.2813 -2.9555  2.0199
 4787TIP3    H235997  -0.028   2.217   6.933 -1.3499 -2.2573  1.5095
 4788TIP3   OH235998   1.712   1.532   0.842 -0.0568 -0.3129 -0.0450
 4788TIP3    H135999   1.793   1.507   0.887  0.1032 -0.2885 -0.3161
 4788TIP3    H236000   1.688   1.616   0.880  0.7630  0.3196 -0.8862
 4789TIP3   OH236001   5.674   1.836   7.260  0.1853  0.1309 -0.1263
 4789TIP3    H136002   5.630   1.751   7.260  0.0900  0.1702 -1.0155
 4789TIP3    H236003   5.702   1.849   7.351  1.1164 -1.3326 -0.1729
 4790TIP3   OH236004   5.848   0.356   7.578 -0.1804  0.2275 -0.6999
 4790TIP3    H136005   5.884   0.443   7.564  0.2864  0.2757  0.7361
 4790TIP3    H236006   5.765   0.371   7.623 -0.5011 -0.0494 -1.1807
 4791TIP3   OH236007   4.930   5.736   1.312 -0.6420 -0.5873  0.3536
 4791TIP3    H136008   4.848   5.688   1.295 -1.2151  0.7815 -1.0316
 4791TIP3    H236009   4.918   5.819   1.266  0.5423  0.6688  2.1981
 4792TIP3   OH236010   0.377   2.878   8.711 -0.1208 -0.1690 -0.6004
 4792TIP3    H136011   0.428   2.954   8.682  0.6907  0.3665  1.9971
 4792TIP3    H236012   0.286   2.905   8.702  0.1547  0.9676 -0.1546
 4793TIP3   OH236013   2.805   0.704   0.389  0.1166  0.1663 -0.0842
 4793TIP3    H136014   2.828   0.761   0.462  1.8416  0.9410 -1.1707
 4793TIP3    H236015   2.812   0.615   0.425 -0.5235  0.5692  1.0687
 4794TIP3   OH236016   6.634   2.448   0.160 -0.3990 -0.3270  0.4790
 4794TIP3    H136017   6.611   2.534   0.195  0.9509  0.0126  0.5774
 4794TIP3    H236018   6.637   2.391   0.237 -0.2920 -0.2346  0.5427
 4795TIP3   OH236019   2.660   1.628   2.231 -0.2880 -0.3137 -0.5926
 4795TIP3    H136020   2.751   1.642   2.207 -0.1605  0.2292  0.1783
 4795TIP3    H236021   2.663   1.606   2.324 -1.0381  0.9236 -0.2566
 4796TIP3   OH236022   4.166   5.855   7.999  0.0508 -0.2669  0.5029
 4796TIP3    H136023   4.192   5.805   8.077 -2.4065  0.1461  1.6891
 4796TIP3    H236024   4.160   5.946   8.030 -0.1324  0.0415 -0.4053
 4797TIP3   OH236025   1.160   3.930   1.091 -0.2797  0.2064  0.0319
 4797TIP3    H136026   1.242   3.926   1.141 -1.7234 -0.6659  2.4578
 4797TIP3    H236027   1.129   4.020   1.102 -0.7675 -0.0751  1.0534
 4798TIP3   OH236028   4.642   1.567   1.203 -0.6439  0.6998 -0.0178
 4798TIP3    H136029   4.720   1.511   1.200 -1.6331 -0.7866  0.8239
 4798TIP3    H236030   4.667   1.646   1.155  0.9723 -0.2503 -0.8076
 4799TIP3   OH236031   6.717   2.153   8.845  0.2541 -0.1579  0.0890
 4799TIP3    H136032   6.776   2.213   8.892 -0.5318  1.0887 -0.4841
 4799TIP3    H236033   6.743   2.161   8.754  2.2329 -3.0875  0.2738
 4800TIP3   OH236034   6.808   3.305   0.667  0.1589 -0.0281  0.5775
 4800TIP3    H136035   6.821   3.396   0.694  1.2119  0.2357 -0.6982
 4800TIP3    H236036   6.753   3.310   0.590 -1.0075 -0.6045  1.3471
 4801TIP3   OH236037   0.204   0.396   7.221  0.1297  0.2643 -0.1261
 4801TIP3    H136038   0.249   0.416   7.139  0.6697 -0.2134  0.0441
 4801TIP3    H236039   0.113   0.419   7.205  0.2325  0.1730 -0.8615
 4802TIP3   OH236040   2.142   0.885   0.564 -0.1632  0.0331  0.2231
 4802TIP3    H136041   2.127   0.791   0.580 -0.4547  0.3181  1.7697
 4802TIP3    H236042   2.054   0.923   0.566 -0.0520  0.3282 -0.5043
 4803TIP3   OH236043   1.407   5.803   1.149  0.1925 -0.3764  0.0343
 4803TIP3    H136044   1.415   5.748   1.071  0.8253  0.2035 -0.3216
 4803TIP3    H236045   1.455   5.755   1.216  0.7367 -0.2719 -0.2735
 4804TIP3   OH236046   3.341   4.444   7.448 -0.0441  0.8974 -0.3163
 4804TIP3    H136047   3.433   4.427   7.427 -0.1499  0.7464 -0.6680
 4804TIP3    H236048   3.295   4.425   7.367 -0.8763 -3.0160  0.8222
 4805TIP3   OH236049   1.546   5.685   7.175  0.0894 -0.3502 -0.4993
 4805TIP3    H136050   1.541   5.743   7.099 -1.6579 -0.3347 -0.4052
 4805TIP3    H236051   1.619   5.626   7.156  0.6548  0.6351 -1.4765
 4806TIP3   OH236052   0.601   6.431   7.735  0.0155  0.0627 -0.0097
 4806TIP3    H136053   0.676   6.388   7.777 -0.2356 -0.2922  0.0773
 4806TIP3    H236054   0.618   6.525   7.746 -0.0865 -0.0203  0.9679
 4807TIP3   OH236055   5.021   3.845   8.413 -0.1228 -0.1134 -0.5021
 4807TIP3    H136056   4.936   3.819   8.449  0.2811 -1.1793 -0.2573
 4807TIP3    H236057   5.058   3.763   8.379  0.2049  0.5718 -1.8954
 4808TIP3   OH236058   0.399   1.909   8.541 -0.4621  0.1027  0.5131
 4808TIP3    H136059   0.353   1.880   8.462 -0.2910  0.4880  0.2704
 4808TIP3    H236060   0.380   1.842   8.606 -3.0975  1.2537  1.0580
 4809TIP3   OH236061   2.478   1.492   0.834 -0.1320  0.1555  0.5481
 4809TIP3    H136062   2.422   1.516   0.761 -1.0602  0.1107  1.2257
 4809TIP3    H236063   2.553   1.447   0.794 -0.3285  0.6670 -0.4051
 4810TIP3   OH236064   0.936   4.774   7.912 -0.1446 -0.1318  0.9894
 4810TIP3    H136065   0.848   4.753   7.881  0.7201 -0.9281 -1.0637
 4810TIP3    H236066   0.940   4.869   7.914 -0.8725 -0.0923  0.6016
 4811TIP3   OH236067   6.566   3.050   2.810 -0.4475 -0.1302  0.3280
 4811TIP3    H136068   6.535   3.090   2.729  0.5581 -1.9057 -0.9922
 4811TIP3    H236069   6.563   2.956   2.793 -0.0043 -0.5409  2.2869
 4812TIP3   OH236070   0.587   0.614   1.056 -0.0206  0.3597  0.3011
 4812TIP3    H136071   0.592   0.653   1.143  2.0463 -0.4850  0.6105
 4812TIP3    H236072   0.671   0.634   1.015 -0.8102  0.4310 -1.3916
 4813TIP3   OH236073   6.600   4.977   8.837  0.3419 -0.1737 -0.1445
 4813TIP3    H136074   6.511   4.989   8.802 -1.2330 -1.0474  3.1515
 4813TIP3    H236075   6.629   5.066   8.859 -1.4635 -0.0898  2.3709
 4814TIP3   OH236076   2.477   2.722   0.358 -0.0784  0.4365 -0.1423
 4814TIP3    H136077   2.475   2.783   0.433 -1.5834 -1.2267  1.2839
 4814TIP3    H236078   2.394   2.675   0.365  0.9509 -1.6353 -1.2978
 4815TIP3   OH236079   0.551   0.415   1.341 -0.3543  0.2163 -0.4287
 4815TIP3    H136080   0.601   0.496   1.332  1.8243 -0.7178  2.0415
 4815TIP3    H236081   0.569   0.367   1.259 -0.0278  1.3533 -1.0371
 4816TIP3   OH236082   5.979   2.901   2.383  0.0667  0.6884  0.0198
 4816TIP3    H136083   6.030   2.933   2.457 -1.6861  1.5112  0.9334
 4816TIP3    H236084   5.965   2.808   2.401 -1.2786  1.1225  1.3161
 4817TIP3   OH236085   0.826   5.042   8.877 -0.1246  0.5689 -0.7425
 4817TIP3    H136086   0.878   4.988   8.816 -0.9693 -1.7414  0.4561
 4817TIP3    H236087   0.742   4.997   8.882 -0.5986  1.5837  0.9409
 4818TIP3   OH236088   3.917   6.755   6.853 -0.1476 -0.4489 -0.5824
 4818TIP3    H136089   3.915   6.842   6.893  2.3513 -1.0319  1.0494
 4818TIP3    H236090   3.921   6.695   6.928  0.7340 -1.8020 -1.6694
 4819TIP3   OH236091   0.772   5.789   1.183  0.2455  0.1762  0.3742
 4819TIP3    H136092   0.796   5.872   1.144  0.3556  0.0785  0.2357
 4819TIP3    H236093   0.712   5.813   1.254 -1.6339  0.2376 -1.1461
 4820TIP3   OH236094   0.847   2.305   8.769  0.7159 -0.5863  0.2377
 4820TIP3    H136095   0.895   2.363   8.711 -0.7857 -0.2467 -0.7250
 4820TIP3    H236096   0.781   2.361   8.810  0.5074 -1.2160  0.7836
 4821TIP3   OH236097   5.509   3.724   8.493  0.5980  0.3879 -0.2599
 4821TIP3    H136098   5.417   3.726   8.517 -0.0356 -1.3361 -2.2733
 4821TIP3    H236099   5.511   3.749   8.401  1.9645 -0.8987 -0.6168
 4822TIP3   OH236100   2.885   5.474   8.700 -0.1740 -0.0020 -0.1094
 4822TIP3    H136101   2.852   5.423   8.626  0.2079  0.8973 -0.9370
 4822TIP3    H236102   2.958   5.524   8.663 -1.1234  1.8699  0.3701
 4823TIP3   OH236103   5.001   5.153   8.009  0.1567 -0.6392  0.0270
 4823TIP3    H136104   4.920   5.119   8.046  0.2898  0.6795  1.6418
 4823TIP3    H236105   5.032   5.084   7.951 -1.9440 -1.2959 -0.3846
 4824TIP3   OH236106   2.775   5.682   0.411  0.1998 -0.9313  0.1751
 4824TIP3    H136107   2.770   5.751   0.478 -1.3562 -0.5677 -0.2764
 4824TIP3    H236108   2.687   5.677   0.374  0.7282 -1.9349 -1.0550
 4825TIP3   OH236109   1.362   2.397   8.119 -0.0404  0.6616 -0.0410
 4825TIP3    H136110   1.319   2.357   8.195 -0.1207  0.4986 -0.1707
 4825TIP3    H236111   1.402   2.477   8.153 -0.5582  0.8856  0.0586
 4826TIP3   OH236112   3.375   4.363   8.595  0.1772  0.1981  0.2527
 4826TIP3    H136113   3.446   4.303   8.618 -0.7475 -1.2094 -0.4247
 4826TIP3    H236114   3.295   4.312   8.610 -0.6114  0.9193 -1.2884
 4827TIP3   OH236115   4.062   2.505   7.865 -0.5169 -0.5668 -0.5871
 4827TIP3    H136116   4.038   2.477   7.777 -2.0867 -0.5834 -0.1728
 4827TIP3    H236117   3.983   2.544   7.901  0.0112 -0.8208  0.9261
 4828TIP3   OH236118   6.396   0.092   1.893 -0.5233  0.2051  0.5504
 4828TIP3    H136119   6.358   0.015   1.936 -1.5074 -0.1216 -0.8349
 4828TIP3    H236120   6.335   0.113   1.822  1.1154  0.5966 -0.8155
 4829TIP3   OH236121   5.562   3.348   0.621 -0.0671 -0.0493 -0.0086
 4829TIP3    H136122   5.576   3.418   0.557  0.5214 -0.4214 -0.3010
 4829TIP3    H236123   5.470   3.324   0.610  0.0145 -0.0758 -0.6839
 4830TIP3   OH236124   5.500   5.096   7.030  0.5453 -0.2388  0.0330
 4830TIP3    H136125   5.442   5.173   7.024 -0.4560 -0.9619  0.1461
 4830TIP3    H236126   5.493   5.055   6.943 -0.3249 -1.1636  0.5201
 4831TIP3   OH236127   2.109   6.599   2.043 -0.1956 -0.4404 -0.3009
 4831TIP3    H136128   2.183   6.660   2.038 -1.5045  1.2674  0.1603
 4831TIP3    H236129   2.139   6.531   2.105  0.8874  0.3387  0.0703
 4832TIP3   OH236130   5.599   2.193   7.372 -0.2266  0.6835  0.6053
 4832TIP3    H136131   5.614   2.109   7.328 -0.4065 -0.0629  1.9300
 4832TIP3    H236132   5.621   2.259   7.306  1.5761 -0.3940  0.0857
 4833TIP3   OH236133   1.393   6.362   1.925 -0.3916 -0.4466  1.0070
 4833TIP3    H136134   1.394   6.415   2.004 -2.6283 -0.8049  1.3594
 4833TIP3    H236135   1.404   6.272   1.955  1.1418 -0.4036  0.6380
 4834TIP3   OH236136   4.152   6.545   7.202 -0.2249  0.1600  0.8462
 4834TIP3    H136137   4.239   6.531   7.165 -0.5559  0.0139  0.1129
 4834TIP3    H236138   4.158   6.510   7.291  0.1314 -0.9437  0.4079
 4835TIP3   OH236139   5.222   2.879   0.324  0.5078  0.1234  0.1829
 4835TIP3    H136140   5.188   2.967   0.341  1.3626  0.4384  0.2719
 4835TIP3    H236141   5.232   2.875   0.229  0.4098  0.0929  0.1731
 4836TIP3   OH236142   1.243   1.879   8.301  0.6045  0.3219  0.0517
 4836TIP3    H136143   1.278   1.800   8.260  0.3819  0.6774 -0.8332
 4836TIP3    H236144   1.148   1.869   8.296  0.5007 -0.5743  2.3219
 4837TIP3   OH236145   5.293   0.329   6.758 -0.7621  0.2210 -0.1486
 4837TIP3    H136146   5.208   0.287   6.774 -0.8060  0.7472  1.0767
 4837TIP3    H236147   5.297   0.400   6.822  1.0236 -0.3808  0.4631
 4838TIP3   OH236148   4.491   1.486   8.586  0.2022 -0.0450 -0.1306
 4838TIP3    H136149   4.411   1.533   8.563 -0.3166 -0.2511  1.1660
 4838TIP3    H236150   4.473   1.449   8.672  1.8543  0.2640  0.3831
 4839TIP3   OH236151   5.134   0.775   7.765  0.1488  0.3137  0.1968
 4839TIP3    H136152   5.178   0.749   7.683 -1.6789 -0.0738 -0.7119
 4839TIP3    H236153   5.123   0.870   7.757  1.8568  0.6259  1.0041
 4840TIP3   OH236154   6.782   0.072   1.198  0.5328 -0.7619 -0.2498
 4840TIP3    H136155   6.874   0.089   1.221  0.2986  0.3156 -0.0489
 4840TIP3    H236156   6.735   0.081   1.281  0.3396 -2.2046 -0.1780
 4841TIP3   OH236157   5.293   0.128   8.198 -0.0209 -0.1051  0.3643
 4841TIP3    H136158   5.264   0.220   8.194  0.1182 -0.0786 -0.0261
 4841TIP3    H236159   5.215   0.080   8.226  0.2373  0.2884  1.8395
 4842TIP3   OH236160   5.655   6.034   8.220  0.2066 -0.2965  0.6771
 4842TIP3    H136161   5.680   6.015   8.311  1.0919  1.6317  0.8792
 4842TIP3    H236162   5.592   6.105   8.227 -1.2946 -1.4886 -0.1600
 4843TIP3   OH236163   1.145   6.321   1.279 -0.4210  0.3480 -0.1900
 4843TIP3    H136164   1.232   6.359   1.291 -0.1038 -0.2990 -0.3939
 4843TIP3    H236165   1.110   6.364   1.202  0.1902 -0.2212 -0.7964
 4844TIP3   OH236166   4.738   6.531   6.359 -0.5293 -0.2890 -0.2562
 4844TIP3    H136167   4.697   6.607   6.317 -0.7042  0.7807  1.7377
 4844TIP3    H236168   4.667   6.487   6.405 -0.0690 -0.4081  0.3648
 4845TIP3   OH236169   4.957   6.384   7.573  0.5971  0.3059 -0.0044
 4845TIP3    H136170   4.974   6.469   7.531 -2.1883 -0.1421 -2.3135
 4845TIP3    H236171   4.872   6.395   7.614  0.6733 -1.1019  0.5643
 4846TIP3   OH236172   2.180   5.724   6.923  0.1086  0.1419  0.2380
 4846TIP3    H136173   2.217   5.689   6.842 -1.3382 -0.3400 -0.2467
 4846TIP3    H236174   2.141   5.649   6.967 -2.2478  0.9065 -0.3712
 4847TIP3   OH236175   0.696   2.732   2.774 -0.3333 -0.0792  0.3116
 4847TIP3    H136176   0.733   2.650   2.808 -0.5137 -0.4267 -0.3334
 4847TIP3    H236177   0.621   2.705   2.722  0.3822  0.3850 -1.0120
 4848TIP3   OH236178   1.527   6.630   0.676  0.1104 -0.8219  0.0295
 4848TIP3    H136179   1.585   6.690   0.629 -0.6553 -0.9318 -1.1093
 4848TIP3    H236180   1.477   6.686   0.736 -1.5630 -0.0212 -1.9651
 4849TIP3   OH236181   5.051   3.087   7.900  0.2962 -0.2630  0.2443
 4849TIP3    H136182   5.100   3.102   7.981  1.5827 -0.8240 -0.3965
 4849TIP3    H236183   5.096   3.139   7.834 -1.9929  1.8954  0.2346
 4850TIP3   OH236184   4.422   1.958   0.477  0.4332  0.2563 -0.2362
 4850TIP3    H136185   4.475   2.023   0.523  0.4940 -0.1864  0.3433
 4850TIP3    H236186   4.474   1.878   0.482  0.3260  0.1452 -0.8746
 4851TIP3   OH236187   3.993   5.510   8.351 -0.2386  0.1899 -0.2876
 4851TIP3    H136188   4.014   5.590   8.400 -1.0680  0.5923 -0.5570
 4851TIP3    H236189   4.078   5.472   8.329  0.1591 -0.0317  1.4798
 4852TIP3   OH236190   0.012   4.389   1.279  0.1023 -0.4735 -0.3157
 4852TIP3    H136191  -0.080   4.415   1.294  0.9285  2.1345  0.9573
 4852TIP3    H236192   0.018   4.376   1.185 -1.2315  1.0160 -0.6538
 4853TIP3   OH236193   3.477   5.428   1.213 -0.1157 -0.2290  0.0772
 4853TIP3    H136194   3.557   5.375   1.222 -1.2197 -1.9323  0.4285
 4853TIP3    H236195   3.463   5.435   1.119  0.2301 -0.2731  0.0223
 4854TIP3   OH236196   3.722   4.034   7.894  0.0976 -0.4523 -0.0191
 4854TIP3    H136197   3.806   4.005   7.857  0.4495  1.8157 -1.1948
 4854TIP3    H236198   3.700   4.112   7.844 -1.3118  0.6539  2.1664
 4855TIP3   OH236199   5.613   5.450   1.251 -0.0885  0.3968  0.8161
 4855TIP3    H136200   5.596   5.459   1.345 -0.1579 -0.4786  0.8984
 4855TIP3    H236201   5.527   5.435   1.212  0.1408 -1.5827  0.9303
 4856TIP3   OH236202   0.565   3.115   1.029  0.3977  0.5339  0.3888
 4856TIP3    H136203   0.604   3.124   0.942  0.1161  0.5497  0.2623
 4856TIP3    H236204   0.624   3.163   1.087  0.0554  1.3865  0.0514
 4857TIP3   OH236205   2.204   2.103   0.822  0.1506 -0.3942 -0.0623
 4857TIP3    H136206   2.132   2.149   0.778 -1.1960  0.0012  2.3715
 4857TIP3    H236207   2.259   2.071   0.750 -0.6509  2.1122 -1.9473
 4858TIP3   OH236208   0.004   3.389   1.128 -0.3970 -0.6172  0.1711
 4858TIP3    H136209  -0.077   3.433   1.153 -1.8908 -1.6518 -2.3903
 4858TIP3    H236210   0.047   3.451   1.069  0.4203 -0.3015  1.0827
 4859TIP3   OH236211   2.811   1.679   1.824  0.5254  0.1016  0.5146
 4859TIP3    H136212   2.860   1.602   1.854  0.2515 -0.4027 -0.3073
 4859TIP3    H236213   2.835   1.688   1.731 -0.4226  0.2433  0.2721
 4860TIP3   OH236214   2.818   3.325   1.811 -0.4062 -0.6746 -0.7807
 4860TIP3    H136215   2.746   3.382   1.782  1.1880  1.3823 -0.9485
 4860TIP3    H236216   2.819   3.253   1.748 -0.9412  0.4382 -2.1087
 4861TIP3   OH236217   3.704   5.834   7.742  0.3308 -0.5729 -0.3898
 4861TIP3    H136218   3.774   5.890   7.708 -0.3686 -0.5150 -1.8161
 4861TIP3    H236219   3.683   5.775   7.670 -1.1065 -0.5688 -0.0059
 4862TIP3   OH236220   5.285   1.377   6.748  0.0092 -0.3704  0.7287
 4862TIP3    H136221   5.288   1.404   6.656  2.9751 -2.9390 -0.1094
 4862TIP3    H236222   5.354   1.428   6.790 -0.8369  0.2410  1.4269
 4863TIP3   OH236223   0.141   3.009   7.967 -0.2424  0.1448 -0.1791
 4863TIP3    H136224   0.147   3.046   8.055 -0.6848 -2.6877  1.1823
 4863TIP3    H236225   0.224   2.962   7.955 -0.7095 -0.5745 -0.7090
 4864TIP3   OH236226   3.981   1.801   0.120 -0.3669 -0.6812  0.2902
 4864TIP3    H136227   3.945   1.867   0.061  0.7240  0.0044  0.3642
 4864TIP3    H236228   4.030   1.742   0.063 -0.5205 -0.8615  0.3430
 4865TIP3   OH236229   5.945   2.100   8.027  0.1812  0.3823  0.5690
 4865TIP3    H136230   5.870   2.070   8.077 -0.6153  0.7156 -0.3812
 4865TIP3    H236231   6.018   2.045   8.055 -0.8712 -1.3237  0.0444
 4866TIP3   OH236232   1.414   6.512   7.760 -0.3714  0.3125 -0.0888
 4866TIP3    H136233   1.338   6.568   7.774 -1.4780 -1.2109  0.1841
 4866TIP3    H236234   1.378   6.427   7.736  1.2586 -0.3177 -0.4498
 4867TIP3   OH236235   6.145   0.533   6.446 -0.1804  0.1258 -0.6438
 4867TIP3    H136236   6.085   0.514   6.518  1.2876 -0.4811  0.4643
 4867TIP3    H236237   6.099   0.598   6.393 -2.7273 -1.9007 -1.0825
 4868TIP3   OH236238   3.886   4.069   1.919 -0.7367  0.1251  0.5399
 4868TIP3    H136239   3.912   4.119   1.996 -0.2957 -0.2244  0.6181
 4868TIP3    H236240   3.951   4.000   1.911 -0.4050  0.5266 -0.5127
 4869TIP3   OH236241   2.019   1.371   2.101 -0.1000 -0.0866  0.1039
 4869TIP3    H136242   2.088   1.342   2.161  0.0651  0.8788  0.3980
 4869TIP3    H236243   1.989   1.291   2.059 -0.8727 -0.9382  2.1585
 4870TIP3   OH236244   2.731   3.569   1.420  0.3063  0.2323  0.0049
 4870TIP3    H136245   2.775   3.643   1.463  0.5404 -0.5972  1.2388
 4870TIP3    H236246   2.756   3.493   1.472 -1.9671 -0.3747  0.3058
 4871TIP3   OH236247   4.972   2.913   1.762 -0.2545 -0.5088 -0.6048
 4871TIP3    H136248   5.064   2.887   1.774  0.1978  1.7764  1.7599
 4871TIP3    H236249   4.922   2.843   1.803  0.5760 -0.6536  0.1992
 4872TIP3   OH236250   5.676   5.711   7.527 -0.3353  0.2940 -0.0206
 4872TIP3    H136251   5.660   5.799   7.494  0.9255  0.3631 -0.4970
 4872TIP3    H236252   5.591   5.666   7.518 -1.2474  1.7219  1.1497
 4873TIP3   OH236253   1.998   2.697   0.970 -0.0819 -0.2222  0.0047
 4873TIP3    H136254   1.915   2.744   0.969 -0.2774 -0.5754 -0.6707
 4873TIP3    H236255   1.977   2.611   1.006  0.4508  0.4913  2.1637
 4874TIP3   OH236256   5.227   2.775   7.483  0.1410 -0.4806 -0.0484
 4874TIP3    H136257   5.155   2.810   7.430 -0.9608 -0.9294  1.1132
 4874TIP3    H236258   5.272   2.853   7.517 -0.2718 -0.1932 -0.1584
 4875TIP3   OH236259   1.600   0.639   8.114  0.1076 -0.9700 -0.4149
 4875TIP3    H136260   1.616   0.718   8.165 -0.2058 -1.1023 -0.1093
 4875TIP3    H236261   1.655   0.650   8.036  0.3047 -0.5976 -0.2289
 4876TIP3   OH236262   3.654   3.144   1.235  0.0411  0.1097  0.2308
 4876TIP3    H136263   3.691   3.122   1.320 -1.7470  1.8748  1.5326
 4876TIP3    H236264   3.729   3.143   1.175  1.2413 -1.7008  1.6622
 4877TIP3   OH236265   5.701   4.765   0.934 -0.1333  0.6007  0.5024
 4877TIP3    H136266   5.606   4.753   0.940  0.2824 -2.8848  2.4093
 4877TIP3    H236267   5.730   4.696   0.875  1.3222  1.2045  0.4763
 4878TIP3   OH236268   0.688   3.217   7.264  0.0429  0.0056 -0.3621
 4878TIP3    H136269   0.721   3.181   7.181 -1.4371  1.0554 -1.4627
 4878TIP3    H236270   0.595   3.232   7.248  0.1173  2.0946  0.8222
 4879TIP3   OH236271   4.986   2.612   8.425 -0.0001  0.4310 -0.7531
 4879TIP3    H136272   5.009   2.559   8.349  2.2654  0.3817 -0.1297
 4879TIP3    H236273   4.917   2.670   8.395  0.8057  0.3825 -2.8412
 4880TIP3   OH236274   6.112   1.182   7.085  0.0654  0.0048 -0.2329
 4880TIP3    H136275   6.023   1.215   7.076 -0.1699 -0.4904  0.2332
 4880TIP3    H236276   6.167   1.260   7.078 -0.3382  0.1963 -1.4569
 4881TIP3   OH236277   4.625   6.226   2.197  0.3270  0.0700 -0.2674
 4881TIP3    H136278   4.547   6.191   2.154 -0.3469 -2.0009  2.3790
 4881TIP3    H236279   4.600   6.315   2.221 -1.8521 -0.9732  1.7326
 4882TIP3   OH236280   0.713   2.118   0.088  0.0330 -0.4274 -0.0114
 4882TIP3    H136281   0.694   2.198   0.138 -1.3850 -1.3467  1.0227
 4882TIP3    H236282   0.685   2.139  -0.001  2.0272  1.0401 -0.3575
 4883TIP3   OH236283   6.036   4.754   8.343  0.3208  0.7515  0.1294
 4883TIP3    H136284   6.073   4.681   8.393  1.2008  2.0653  1.4850
 4883TIP3    H236285   6.088   4.830   8.368 -1.2390  2.0747 -0.4027
 4884TIP3   OH236286   2.993   2.304   8.201  0.1068 -0.1572  0.3447
 4884TIP3    H136287   2.987   2.355   8.283 -2.0035 -0.2607  0.2907
 4884TIP3    H236288   2.916   2.330   8.151  0.5556 -1.2515 -0.9617
 4885TIP3   OH236289   1.270   6.784   0.027 -0.1166  0.2916  0.6770
 4885TIP3    H136290   1.242   6.868   0.065 -0.9941  0.9498 -1.3122
 4885TIP3    H236291   1.336   6.752   0.088  0.6510  2.6851  1.2242
 4886TIP3   OH236292   3.694   6.019   8.466  0.3426 -0.1509 -0.4582
 4886TIP3    H136293   3.743   5.965   8.528  1.6347 -0.0033 -1.3265
 4886TIP3    H236294   3.686   6.104   8.509  0.7669 -0.2014 -0.2727
 4887TIP3   OH236295   4.311   1.646   8.272 -0.0197  0.0595  0.5775
 4887TIP3    H136296   4.406   1.655   8.281  0.4783 -0.7313 -2.7102
 4887TIP3    H236297   4.282   1.733   8.245  0.1808 -0.3358 -0.9516
 4888TIP3   OH236298   1.367   5.598   1.007  0.5111 -0.2403  0.6039
 4888TIP3    H136299   1.318   5.593   0.925  0.1325  3.2163  0.4610
 4888TIP3    H236300   1.302   5.578   1.075  0.2183 -0.7594  0.1767
 4889TIP3   OH236301   4.353   6.298   7.990 -0.0355 -0.4418 -0.5801
 4889TIP3    H136302   4.392   6.381   8.015  0.0615 -0.1215 -1.7580
 4889TIP3    H236303   4.419   6.255   7.936  0.2991 -1.7267  0.7843
 4890TIP3   OH236304   5.583   5.222   6.461 -0.3556 -0.2594  0.1668
 4890TIP3    H136305   5.598   5.174   6.379  0.0811  0.0980  0.0328
 4890TIP3    H236306   5.562   5.311   6.433  0.6450  0.0829  0.4614
 4891TIP3   OH236307   4.368   6.270   1.140  0.1275 -0.7529  0.2111
 4891TIP3    H136308   4.339   6.266   1.232 -0.4304  0.5788  0.1266
 4891TIP3    H236309   4.341   6.186   1.103  0.8507 -1.5327  1.3933
 4892TIP3   OH236310   1.316   2.819   7.182 -0.1437 -0.0462  0.3017
 4892TIP3    H136311   1.266   2.788   7.106 -0.4480 -0.3250  0.6122
 4892TIP3    H236312   1.257   2.878   7.227  0.0394  0.1218  0.3235
 4893TIP3   OH236313   6.276   3.284   8.068  0.8962 -0.0120 -0.3445
 4893TIP3    H136314   6.189   3.260   8.035 -0.2011 -1.6607  3.2404
 4893TIP3    H236315   6.265   3.371   8.105  0.2818 -0.7670  1.3591
 4894TIP3   OH236316   6.188   3.857   7.947 -0.6831 -0.2716 -0.0468
 4894TIP3    H136317   6.189   3.773   7.901  1.3551  0.6246 -1.8477
 4894TIP3    H236318   6.156   3.919   7.883  0.1277  0.6954  0.4567
 4895TIP3   OH236319   4.726   0.520   7.430  0.4117  0.4037  0.1620
 4895TIP3    H136320   4.768   0.590   7.480 -0.2317 -0.1926  1.6096
 4895TIP3    H236321   4.743   0.441   7.482 -1.4197 -0.0298  0.1545
 4896TIP3   OH236322   2.595   0.579   8.343  0.3822 -0.3740 -0.4570
 4896TIP3    H136323   2.556   0.663   8.318  0.8879  0.2401  0.7452
 4896TIP3    H236324   2.520   0.522   8.361  0.0342 -0.2536 -1.4570
 4897TIP3   OH236325   6.391   4.980   7.412  0.2435 -0.1702 -0.6302
 4897TIP3    H136326   6.368   4.890   7.387  1.9682 -0.6452 -0.6311
 4897TIP3    H236327   6.335   4.999   7.487 -0.4179 -1.0950 -0.8664
 4898TIP3   OH236328   2.757   2.444   1.542  0.3441  0.0418 -0.4972
 4898TIP3    H136329   2.771   2.517   1.602 -0.0067 -0.6176  0.3902
 4898TIP3    H236330   2.664   2.423   1.551  0.5452 -0.8129 -0.4240
 4899TIP3   OH236331   3.253   4.630   7.628  0.0116  0.5507  0.4890
 4899TIP3    H136332   3.292   4.597   7.709 -2.8785 -0.3396  1.6541
 4899TIP3    H236333   3.252   4.554   7.569 -0.5784  0.3592  0.7356
 4900TIP3   OH236334   1.084   1.277   8.625 -0.6899 -0.0830 -0.4792
 4900TIP3    H136335   1.174   1.250   8.606 -0.4166  0.7076 -0.3679
 4900TIP3    H236336   1.033   1.196   8.624  0.0401 -0.5487 -0.4517
 4901TIP3   OH236337   5.961   5.702   7.512 -0.6633 -0.3980  0.2375
 4901TIP3    H136338   5.948   5.768   7.579 -3.5733 -1.2166  0.6169
 4901TIP3    H236339   5.873   5.681   7.481  0.4607 -0.8296 -3.1294
 4902TIP3   OH236340   2.809   2.061   0.824  0.5604  0.0404  0.2423
 4902TIP3    H136341   2.897   2.097   0.819  0.0725  1.2530  0.0566
 4902TIP3    H236342   2.768   2.107   0.897 -0.8005  1.5557 -1.3825
 4903TIP3   OH236343   0.728   6.208   0.346  0.2463 -0.3044 -0.5356
 4903TIP3    H136344   0.738   6.248   0.432  0.5690 -1.4443 -0.0335
 4903TIP3    H236345   0.807   6.235   0.298  0.3793 -0.2012 -0.2619
 4904TIP3   OH236346   2.347   5.601   7.797  0.1453 -0.5519  0.3458
 4904TIP3    H136347   2.416   5.555   7.749  0.8972  1.0032 -0.1205
 4904TIP3    H236348   2.361   5.576   7.889  2.6388  1.2591  0.5581
 4905TIP3   OH236349   4.569   6.291   7.743  0.0929  0.0724 -0.6780
 4905TIP3    H136350   4.547   6.215   7.688  0.3587 -0.5753  0.0840
 4905TIP3    H236351   4.640   6.334   7.695  0.5210 -0.6484 -0.7192
 4906TIP3   OH236352   2.744   4.315   7.604  0.1006  0.0279  0.4866
 4906TIP3    H136353   2.832   4.341   7.577  0.6412 -1.1549  1.0266
 4906TIP3    H236354   2.741   4.220   7.588 -1.5486  0.2506 -0.8090
 4907TIP3   OH236355   0.418   3.230   7.188 -0.1866  0.1120  0.4413
 4907TIP3    H136356   0.333   3.191   7.166 -0.5810  0.6005  1.0231
 4907TIP3    H236357   0.435   3.292   7.117 -1.8938  2.3635  1.8304
 4908TIP3   OH236358   5.675   6.117   7.622  0.5209 -0.0772 -0.0311
 4908TIP3    H136359   5.730   6.055   7.575  0.4428 -0.7660  0.7779
 4908TIP3    H236360   5.648   6.071   7.701 -0.6989  0.4748 -0.1052
 4909TIP3   OH236361   2.579   5.397   8.832 -0.0328 -0.2057 -0.2451
 4909TIP3    H136362   2.661   5.406   8.784  1.3102  1.7201  2.1687
 4909TIP3    H236363   2.530   5.477   8.813 -0.5066 -0.4814 -0.2045
 4910TIP3   OH236364   0.260   2.073   1.743  0.0295  0.1262  1.1333
 4910TIP3    H136365   0.288   2.146   1.797 -0.3344 -0.2536  1.8560
 4910TIP3    H236366   0.171   2.095   1.716  0.6191  0.8565 -0.3069
 4911TIP3   OH236367   6.530   4.996   8.448  0.4714 -0.0070  1.0774
 4911TIP3    H136368   6.614   5.022   8.486  1.3631 -1.2860  0.0901
 4911TIP3    H236369   6.491   5.077   8.417  1.1899  0.6545  1.8457
 4912TIP3   OH236370   6.547   1.237   8.243 -0.3665 -0.0375 -0.0898
 4912TIP3    H136371   6.565   1.262   8.333 -1.0255  0.7339 -0.1608
 4912TIP3    H236372   6.519   1.319   8.201 -2.1202 -0.7814 -0.4638
 4913TIP3   OH236373   6.822   6.371   6.137 -0.4074  0.1356  0.3351
 4913TIP3    H136374   6.758   6.420   6.085  1.1367  0.2955 -1.5064
 4913TIP3    H236375   6.856   6.435   6.200  0.0900  0.8847 -0.6757
 4914TIP3   OH236376   6.409   0.448   0.394 -0.5286  0.1601 -0.0029
 4914TIP3    H136377   6.375   0.442   0.484 -1.0947 -1.4708 -0.2838
 4914TIP3    H236378   6.334   0.478   0.342 -0.4207  0.3637 -0.0413
 4915TIP3   OH236379   0.011   5.996   7.224  0.0669  0.4948  0.7735
 4915TIP3    H136380  -0.059   6.060   7.215  0.3646  0.8514  0.9661
 4915TIP3    H236381   0.090   6.048   7.238  0.2914  0.0872  1.0645
 4916TIP3   OH236382   3.835   6.212   1.914 -0.1995  0.1378 -0.1404
 4916TIP3    H136383   3.778   6.283   1.944  0.1026 -0.0642  0.9613
 4916TIP3    H236384   3.790   6.175   1.838 -2.0734 -0.7060  1.3245
 4917TIP3   OH236385   0.862   3.625   2.615 -0.0697  0.1456  0.4717
 4917TIP3    H136386   0.782   3.638   2.564  0.4270 -0.3484 -0.4722
 4917TIP3    H236387   0.833   3.593   2.700 -0.8551 -0.4520 -0.0137
 4918TIP3   OH236388   6.475   1.365   0.225 -0.2532  0.1464  0.5256
 4918TIP3    H136389   6.444   1.276   0.211  1.3798 -0.7226  1.9605
 4918TIP3    H236390   6.506   1.365   0.316 -0.7062  2.3494  0.7403
 4919TIP3   OH236391   6.639   3.560   1.281  0.5150  0.1955  1.5258
 4919TIP3    H136392   6.573   3.530   1.219  0.4724  0.1347  1.6013
 4919TIP3    H236393   6.639   3.656   1.271 -1.6367  0.5098  3.5616
 4920TIP3   OH236394   3.777   0.576   8.673  0.4278  0.0657 -0.5973
 4920TIP3    H136395   3.768   0.533   8.758 -0.5585 -0.5223 -0.9827
 4920TIP3    H236396   3.865   0.552   8.644  1.1506  1.0743  0.6765
 4921TIP3   OH236397   0.587   6.202   1.187 -0.7219 -0.0472 -0.3355
 4921TIP3    H136398   0.635   6.151   1.252 -0.2800  0.6211 -0.1309
 4921TIP3    H236399   0.646   6.273   1.163 -0.3365 -1.0179 -2.4826
 4922TIP3   OH236400   4.712   6.641   8.865  0.0685  0.5467  1.0329
 4922TIP3    H136401   4.620   6.616   8.875  0.0335 -0.2924 -0.9398
 4922TIP3    H236402   4.721   6.664   8.773  2.5854 -2.9842  0.1687
 4923TIP3   OH236403   3.667   4.775   7.874 -0.1538  0.1733 -0.0378
 4923TIP3    H136404   3.680   4.819   7.790  0.3696  1.4249  0.6695
 4923TIP3    H236405   3.573   4.762   7.880 -0.0202 -2.6690 -2.1211
 4924TIP3   OH236406   0.450   6.191   6.824 -0.1654  0.1069 -0.1378
 4924TIP3    H136407   0.499   6.196   6.742  1.3338  1.6079  0.7769
 4924TIP3    H236408   0.362   6.223   6.802  0.6194  1.9050 -0.9064
 4925TIP3   OH236409   6.126   4.152   6.990  0.2876  0.4382  0.4390
 4925TIP3    H136410   6.172   4.118   7.067  0.1893 -2.7638 -0.7729
 4925TIP3    H236411   6.192   4.154   6.922 -0.4704 -0.6499 -0.3677
 4926TIP3   OH236412   0.433   4.607   7.881  0.3307  0.1586 -0.2271
 4926TIP3    H136413   0.432   4.536   7.816 -0.0170  0.8780 -1.0227
 4926TIP3    H236414   0.366   4.668   7.851 -0.8613 -0.1735  1.5903
 4927TIP3   OH236415   3.438   0.432   0.664  0.2764 -1.3603 -0.0644
 4927TIP3    H136416   3.530   0.453   0.680  0.3525 -1.0906 -0.8071
 4927TIP3    H236417   3.410   0.496   0.598 -0.4434 -1.4392  0.1546
 4928TIP3   OH236418   0.308   5.386   7.341 -0.4697 -1.1188  0.2931
 4928TIP3    H136419   0.226   5.356   7.301 -0.8214  1.4964 -1.2019
 4928TIP3    H236420   0.296   5.480   7.351  1.3836 -1.0424  2.5458
 4929TIP3   OH236421   5.716   4.639   6.947 -0.0099  0.0116  0.4310
 4929TIP3    H136422   5.625   4.634   6.918 -0.0904  2.5989 -0.0520
 4929TIP3    H236423   5.767   4.642   6.866  0.4865 -1.0400  0.6950
 4930TIP3   OH236424   3.446   1.077   8.377  0.3214 -0.3002 -0.4393
 4930TIP3    H136425   3.359   1.037   8.377  0.0413  0.2460  0.9318
 4930TIP3    H236426   3.491   1.037   8.304 -0.6698 -1.5314 -0.4018
 4931TIP3   OH236427   0.682   3.163   0.789 -0.7522  0.0408 -0.1880
 4931TIP3    H136428   0.765   3.126   0.821  0.6174  2.7517 -0.3602
 4931TIP3    H236429   0.680   3.142   0.696 -0.8179 -0.9573  0.0279
 4932TIP3   OH236430   2.572   0.353   0.044 -0.5678 -0.2109  0.1730
 4932TIP3    H136431   2.513   0.428   0.048  1.1647  1.1391  2.4104
 4932TIP3    H236432   2.620   0.365  -0.038  0.8749  2.1674  1.2697
 4933TIP3   OH236433   0.058   5.092   6.646 -0.0577  0.1252  0.6661
 4933TIP3    H136434   0.070   5.113   6.553  0.2222  1.8323  1.0580
 4933TIP3    H236435   0.113   5.014   6.660  0.0274 -0.0529 -0.5442
 4934TIP3   OH236436   5.762   2.376   8.415  0.0140 -0.3713  0.5140
 4934TIP3    H136437   5.857   2.372   8.413  0.0536 -0.6386  1.8233
 4934TIP3    H236438   5.739   2.454   8.365  0.9021 -0.4247  0.0158
 4935TIP3   OH236439   5.655   0.465   7.791  0.1676 -0.0397 -0.0564
 4935TIP3    H136440   5.616   0.421   7.867  0.2420 -1.4191 -0.7707
 4935TIP3    H236441   5.735   0.505   7.824 -1.0654  1.5763  1.1227
 4936TIP3   OH236442   5.476   2.223   7.605  0.1884  0.1257  0.0385
 4936TIP3    H136443   5.506   2.236   7.515 -0.3835 -1.2026 -0.3729
 4936TIP3    H236444   5.554   2.237   7.658  1.0073 -0.9188 -0.8269
 4937TIP3   OH236445   1.907   4.451   8.423  0.0560  0.2827  0.0183
 4937TIP3    H136446   1.947   4.456   8.336 -0.7008  1.0951 -0.2970
 4937TIP3    H236447   1.979   4.427   8.482  0.1489 -2.8252 -1.1489
 4938TIP3   OH236448   5.029   3.148   6.602 -0.0034  0.4299 -0.2324
 4938TIP3    H136449   5.032   3.231   6.554  0.3163  0.7561  0.3430
 4938TIP3    H236450   4.936   3.127   6.608 -0.0701  0.6160 -0.6085
 4939TIP3   OH236451   4.523   2.955   1.925 -0.5279  0.1328 -0.2940
 4939TIP3    H136452   4.452   2.973   1.987  0.3713  0.4168  0.6791
 4939TIP3    H236453   4.562   2.873   1.956 -0.3626  0.0256 -0.7708
 4940TIP3   OH236454   5.711   5.788   8.107 -0.0371 -0.0495 -0.0990
 4940TIP3    H136455   5.657   5.766   8.183 -1.6572  0.0083 -1.1984
 4940TIP3    H236456   5.733   5.880   8.120 -1.8365  0.4818 -0.5691
 4941TIP3   OH236457   6.156   1.062   0.317 -0.1554 -0.2608 -0.0767
 4941TIP3    H136458   6.112   1.046   0.401 -0.3496 -0.8005 -0.2729
 4941TIP3    H236459   6.100   1.126   0.272 -2.0786 -2.6149 -1.2848
 4942TIP3   OH236460   3.934   2.848   0.449 -0.4594  0.6908 -0.5374
 4942TIP3    H136461   4.011   2.893   0.413  0.2605  0.4130  0.5786
 4942TIP3    H236462   3.900   2.908   0.515  0.8495 -0.5600  1.3730
 4943TIP3   OH236463   0.679   4.965   6.226 -0.5272 -0.0360 -0.7090
 4943TIP3    H136464   0.720   4.912   6.295 -1.3442  0.3953  0.1431
 4943TIP3    H236465   0.747   5.027   6.201  1.0664 -2.4570 -2.9460
 4944TIP3   OH236466   0.311   6.363   8.607  0.7753  0.3603  0.0158
 4944TIP3    H136467   0.256   6.293   8.642 -0.8892  1.3681 -0.4281
 4944TIP3    H236468   0.338   6.412   8.685 -0.0729  0.6062  0.1753
 4945TIP3   OH236469   5.749   1.558   2.075 -0.1072  0.1496  0.3054
 4945TIP3    H136470   5.755   1.477   2.126 -1.8250  0.3769  0.9509
 4945TIP3    H236471   5.814   1.548   2.006 -0.8087 -2.1155 -0.0963
 4946TIP3   OH236472   2.632   6.345   1.418  0.0957 -0.0108 -0.0181
 4946TIP3    H136473   2.574   6.273   1.393 -1.3002  0.8303  0.6634
 4946TIP3    H236474   2.673   6.373   1.336  1.9568 -2.5934 -0.0976
 4947TIP3   OH236475   6.071   1.050   0.597 -0.3045 -0.0137  0.0645
 4947TIP3    H136476   6.142   1.013   0.650 -0.6690 -0.9149 -0.0570
 4947TIP3    H236477   6.083   1.145   0.604  0.8936 -0.1479  0.0685
 4948TIP3   OH236478   6.633   5.976   1.090 -0.2072 -0.3559  0.0647
 4948TIP3    H136479   6.605   6.067   1.104 -0.1990 -0.4735  0.8616
 4948TIP3    H236480   6.589   5.927   1.159  0.0753 -0.9076 -0.1464
 4949TIP3   OH236481   4.941   5.169   7.106 -0.0852  0.8867  0.2012
 4949TIP3    H136482   4.892   5.137   7.183  0.8717  0.2999  0.5780
 4949TIP3    H236483   5.025   5.197   7.142  0.4533  0.4014 -0.6713
 4950TIP3   OH236484   3.783   0.850   8.081 -0.3529 -0.3316 -0.4320
 4950TIP3    H136485   3.696   0.865   8.118 -0.1153 -1.4255  0.6538
 4950TIP3    H236486   3.840   0.910   8.129 -0.5542  0.7109 -1.4594
 4951TIP3   OH236487   4.158   1.459   1.666  0.0985 -0.1718 -0.1552
 4951TIP3    H136488   4.128   1.369   1.652 -1.6988  0.3478  0.0358
 4951TIP3    H236489   4.122   1.483   1.752  1.4374  0.3974  0.2703
 4952TIP3   OH236490   3.362   3.241   0.050 -0.1609 -0.1400  0.1055
 4952TIP3    H136491   3.340   3.316   0.105 -0.8689  1.1683 -1.8500
 4952TIP3    H236492   3.344   3.164   0.104 -0.4215  1.0784  1.7987
 4953TIP3   OH236493   3.334   4.912   0.118 -0.7118  0.0426 -0.4496
 4953TIP3    H136494   3.275   4.979   0.083  1.1922  2.4536  0.6291
 4953TIP3    H236495   3.332   4.925   0.213  0.5068 -0.7291 -0.2910
 4954TIP3   OH236496   3.642   0.711   0.152 -0.1850 -0.3211  0.5535
 4954TIP3    H136497   3.697   0.760   0.092 -0.3286  0.0107  0.6917
 4954TIP3    H236498   3.699   0.643   0.188  0.6900  1.1638  2.1288
 4955TIP3   OH236499   3.113   0.067   6.805 -0.1566 -0.2601  0.2885
 4955TIP3    H136500   3.126  -0.020   6.767 -0.5932 -0.0729 -0.3074
 4955TIP3    H236501   3.027   0.094   6.773  0.7091  1.1251 -0.9678
 4956TIP3   OH236502   3.861   1.303   0.956  0.2074 -0.3633 -0.1736
 4956TIP3    H136503   3.850   1.265   0.868 -0.6748  0.3281 -0.3768
 4956TIP3    H236504   3.857   1.398   0.941  3.4103 -0.0798  0.1811
 4957TIP3   OH236505   1.825   2.833   1.296 -0.3187  0.2517  0.4925
 4957TIP3    H136506   1.743   2.786   1.305 -0.8273  0.7504 -1.1586
 4957TIP3    H236507   1.832   2.887   1.375 -0.6042 -1.2238  1.5471
 4958TIP3   OH236508   4.250   3.899   8.244  0.3229  0.4417  0.4991
 4958TIP3    H136509   4.229   3.881   8.152  0.5273  3.7996 -0.3173
 4958TIP3    H236510   4.340   3.932   8.242  0.7457 -0.4835  2.1195
 4959TIP3   OH236511   5.321   6.522   6.775 -0.1032  0.2267  0.2230
 4959TIP3    H136512   5.332   6.431   6.745  0.4057  0.6713 -0.9925
 4959TIP3    H236513   5.227   6.534   6.780 -0.1794 -0.2291 -0.0392
 4960TIP3   OH236514   0.063   4.783   8.766 -0.1652  0.8337  0.4843
 4960TIP3    H136515  -0.025   4.818   8.777  0.1996  1.6868  0.7338
 4960TIP3    H236516   0.111   4.851   8.720  0.0856 -0.0699 -0.6420
 4961TIP3   OH236517   4.779   5.858   8.853 -0.0202 -0.0101  0.7884
 4961TIP3    H136518   4.706   5.906   8.813 -0.5484 -0.8269  0.7429
 4961TIP3    H236519   4.747   5.833   8.940  0.3731  0.0032  0.9413
 4962TIP3   OH236520   3.608   1.436   8.805 -0.6774 -0.0698  0.4311
 4962TIP3    H136521   3.688   1.384   8.796 -0.8691 -0.2998  0.0749
 4962TIP3    H236522   3.582   1.457   8.716  0.9354  3.0050  0.5192
 4963TIP3   OH236523   3.089   0.687   1.999  0.2015  1.0358  0.0089
 4963TIP3    H136524   3.061   0.779   1.995 -3.0255  0.1238 -1.4833
 4963TIP3    H236525   3.129   0.670   1.914 -0.0011  0.8766 -0.0578
 4964TIP3   OH236526   3.471   6.766   8.675  0.9356 -0.3465 -0.4012
 4964TIP3    H136527   3.407   6.756   8.746 -0.8622  1.5839 -1.6421
 4964TIP3    H236528   3.441   6.706   8.607  1.8276 -1.1250 -0.1347
 4965TIP3   OH236529   5.988   4.533   2.192  0.1686  0.2078  0.5045
 4965TIP3    H136530   6.062   4.472   2.193 -0.5077 -0.6440  0.7502
 4965TIP3    H236531   5.992   4.574   2.106 -0.3490 -1.4812 -0.3712
 4966TIP3   OH236532   0.679   5.669   7.251 -0.1258  0.1348  0.4028
 4966TIP3    H136533   0.706   5.617   7.175 -2.0390  1.3127 -1.1732
 4966TIP3    H236534   0.740   5.742   7.254 -0.2100  0.2288 -0.1763
 4967TIP3   OH236535   0.071   2.965   8.652 -0.4106 -0.1697 -0.1608
 4967TIP3    H136536   0.053   3.012   8.571 -0.5325 -0.1982 -0.1504
 4967TIP3    H236537   0.037   3.021   8.721 -0.2827 -0.1333 -0.1277
 4968TIP3   OH236538   3.340   1.510   7.555 -0.0944  0.0061  0.3413
 4968TIP3    H136539   3.379   1.591   7.587  1.1184 -0.7055  0.7342
 4968TIP3    H236540   3.402   1.441   7.580 -0.5407 -0.9230 -0.9564
 4969TIP3   OH236541   2.716   2.015   7.511  0.4216  0.2054  0.9351
 4969TIP3    H136542   2.738   2.054   7.596 -0.4302 -0.2090  1.3519
 4969TIP3    H236543   2.729   1.921   7.524 -1.3942 -0.0494  1.1541
 4970TIP3   OH236544   4.597   5.363   0.210 -0.7112  0.0566  0.2437
 4970TIP3    H136545   4.563   5.453   0.201 -1.9798 -0.4473 -0.2796
 4970TIP3    H236546   4.546   5.326   0.282  0.4007  0.0021  1.0250
 4971TIP3   OH236547   3.713   4.631   8.240 -0.1683  0.5610  0.0531
 4971TIP3    H136548   3.779   4.618   8.172 -1.7392 -2.1252 -1.1229
 4971TIP3    H236549   3.736   4.569   8.309 -1.6236 -0.7408 -0.5737
 4972TIP3   OH236550   2.360   3.169   0.933  0.5855  0.0742  0.0646
 4972TIP3    H136551   2.394   3.127   0.854  0.8261  0.6040 -0.1143
 4972TIP3    H236552   2.414   3.247   0.944 -0.5372  0.9281 -0.2195
 4973TIP3   OH236553   3.528   3.856   8.595  0.1707 -0.3752 -0.4684
 4973TIP3    H136554   3.433   3.854   8.588  0.2701 -2.1507 -1.9582
 4973TIP3    H236555   3.557   3.913   8.523  0.2886 -0.7142 -0.6884
 4974TIP3   OH236556   1.876   0.370   8.610  0.1559  0.7351 -0.4951
 4974TIP3    H136557   1.954   0.396   8.560  0.4907  0.9080  0.1100
 4974TIP3    H236558   1.874   0.275   8.603 -0.2376  0.7994 -1.4757
 4975TIP3   OH236559   3.670   0.244   1.069 -0.5707 -0.1570  0.0533
 4975TIP3    H136560   3.585   0.233   1.027 -0.6157 -0.3390  0.1896
 4975TIP3    H236561   3.678   0.169   1.128 -1.0089  0.6986  1.2335
 4976TIP3   OH236562   2.441   6.459   0.553  0.6345 -0.0055 -0.3029
 4976TIP3    H136563   2.416   6.502   0.636  0.3686 -0.3458 -0.2067
 4976TIP3    H236564   2.425   6.366   0.568 -1.4268  0.1136 -1.4332
 4977TIP3   OH236565   5.795   5.199   0.443 -0.8192  0.4673 -0.2343
 4977TIP3    H136566   5.748   5.116   0.443  0.4455 -0.2803 -0.6451
 4977TIP3    H236567   5.842   5.200   0.360  0.2567  0.9564  0.3589
 4978TIP3   OH236568   5.729   1.218   0.830 -1.1856  0.6859  0.4420
 4978TIP3    H136569   5.690   1.299   0.796 -0.8851  0.4243 -0.5725
 4978TIP3    H236570   5.656   1.171   0.869 -1.6261  0.8330 -0.1882
 4979TIP3   OH236571   0.948   0.947   8.903  0.2231 -0.3192 -0.4874
 4979TIP3    H136572   0.936   0.928   8.996 -0.4895 -0.6297 -0.6365
 4979TIP3    H236573   1.001   1.027   8.902 -2.5892  1.6970  0.2671
 4980TIP3   OH236574   1.998   1.341   1.748 -0.2062 -0.4649 -0.3770
 4980TIP3    H136575   2.002   1.273   1.681 -1.3967 -1.0033  0.0713
 4980TIP3    H236576   1.973   1.296   1.828 -0.7802  0.4539 -0.0175
 4981TIP3   OH236577   2.235   0.541   7.930 -0.0118 -0.0430  0.2654
 4981TIP3    H136578   2.278   0.626   7.938  2.0486 -0.9588 -0.3122
 4981TIP3    H236579   2.161   0.546   7.991 -0.0049  2.1622  0.1925
 4982TIP3   OH236580   4.820   2.793   1.573  0.0839 -0.3039 -0.3103
 4982TIP3    H136581   4.893   2.845   1.607 -1.2699  1.7787 -0.3982
 4982TIP3    H236582   4.769   2.855   1.520 -2.0422 -1.5147  0.2044
 4983TIP3   OH236583   5.892   4.149   8.175 -0.1062 -0.1490 -0.6303
 4983TIP3    H136584   5.922   4.060   8.155  0.0194 -0.1149 -0.5955
 4983TIP3    H236585   5.958   4.206   8.137 -0.7645 -0.0362 -1.6214
 4984TIP3   OH236586   2.543   1.761   1.881 -0.5450 -0.0064 -0.1637
 4984TIP3    H136587   2.553   1.823   1.954  1.3548  0.4007 -0.7017
 4984TIP3    H236588   2.633   1.737   1.858 -1.1503 -0.9810 -1.6652
 4985TIP3   OH236589   2.665   1.426   8.128 -0.2094 -0.1193 -0.4486
 4985TIP3    H136590   2.725   1.475   8.184 -2.5275  1.2411  0.9834
 4985TIP3    H236591   2.644   1.347   8.178  2.0789 -1.8537 -1.9720
 4986TIP3   OH236592   2.042   3.031   1.651 -0.2616 -0.0924 -0.0150
 4986TIP3    H136593   1.969   3.030   1.590 -0.9684 -0.5651  0.8226
 4986TIP3    H236594   2.009   3.076   1.728 -0.0432 -1.2613  0.7912
 4987TIP3   OH236595   0.001   5.963   8.633  0.2654  0.0763  0.1848
 4987TIP3    H136596  -0.072   5.926   8.682 -0.9237  2.1331  0.0899
 4987TIP3    H236597  -0.017   5.942   8.542  0.3188 -0.2400  0.2455
 4988TIP3   OH236598   4.363   1.425   1.142  0.6514  0.8251  0.5376
 4988TIP3    H136599   4.445   1.469   1.119  0.6016  1.0573  0.8047
 4988TIP3    H236600   4.297   1.468   1.087  0.6430  0.9067  0.6126
 4989TIP3   OH236601   3.148   4.303   0.666  0.2661  0.0966  0.2856
 4989TIP3    H136602   3.100   4.221   0.679  0.8763 -0.1890  0.7805
 4989TIP3    H236603   3.124   4.357   0.742 -0.4639  0.5515 -0.2514
 4990TIP3   OH236604   1.694   4.475   8.167  0.4360 -0.2359  0.2319
 4990TIP3    H136605   1.788   4.460   8.177  0.8262  2.2117  0.9958
 4990TIP3    H236606   1.681   4.488   8.073  1.0663  0.4815  0.2378
 4991TIP3   OH236607   5.029   3.147   6.949 -0.1417  0.3713 -0.0057
 4991TIP3    H136608   5.064   3.059   6.934 -0.1551  0.3544  0.0604
 4991TIP3    H236609   5.092   3.206   6.908  0.1321  0.3604  0.3955
 4992TIP3   OH236610   2.750   0.325   6.494  0.1382 -0.0299  0.0159
 4992TIP3    H136611   2.738   0.390   6.424 -0.6881 -0.0234  0.1552
 4992TIP3    H236612   2.665   0.283   6.503 -0.0680  0.6854  1.7450
 4993TIP3   OH236613   4.949   5.547   1.567 -0.1882 -0.0773  0.1488
 4993TIP3    H136614   4.951   5.580   1.478  2.5605  1.2602  0.6075
 4993TIP3    H236615   4.894   5.609   1.615  0.9540  1.1255 -0.0203
 4994TIP3   OH236616   0.073   4.239   7.519  0.0172 -0.0797  0.4829
 4994TIP3    H136617   0.074   4.197   7.605 -0.4134 -0.3369  0.3622
 4994TIP3    H236618   0.052   4.169   7.458 -0.5384  0.2740  0.2627
 4995TIP3   OH236619   2.384   4.919   1.971 -0.1146 -0.6420 -0.1847
 4995TIP3    H136620   2.337   4.960   2.044  0.7141  1.8426 -0.9776
 4995TIP3    H236621   2.348   4.961   1.893  0.6115 -1.6307 -1.0699
 4996TIP3   OH236622   3.165   0.096   7.658 -0.0427 -0.0068  0.6720
 4996TIP3    H136623   3.161   0.144   7.740  1.8501  0.2873  0.6238
 4996TIP3    H236624   3.215   0.017   7.679 -0.7223 -0.6077  0.0979
 4997TIP3   OH236625   0.986   2.480   1.341  0.0539  0.2251  0.1966
 4997TIP3    H136626   0.925   2.553   1.339  0.1929  0.3373 -0.0234
 4997TIP3    H236627   1.006   2.463   1.249  1.5576  1.2124  0.2996
 4998TIP3   OH236628   6.815   1.642   8.023 -0.4380  0.0443  0.1356
 4998TIP3    H136629   6.818   1.735   8.043 -1.1906  0.2199 -0.5102
 4998TIP3    H236630   6.734   1.611   8.065 -0.3432 -0.2501  0.1061
 4999TIP3   OH236631   3.699   2.820   2.592 -0.0543 -0.5020 -0.0779
 4999TIP3    H136632   3.618   2.871   2.586 -0.7104 -1.4255  0.7485
 4999TIP3    H236633   3.768   2.886   2.596 -1.0084  0.4417  2.9816
 5000TIP3   OH236634   3.430   3.258   1.103 -0.0625  0.1349 -0.0530
 5000TIP3    H136635   3.420   3.163   1.101 -0.7855  0.1595  1.3635
 5000TIP3    H236636   3.515   3.273   1.145 -0.0020  0.1220 -0.1698
 5001TIP3   OH236637   4.246   1.436   6.739  0.7541  0.2040 -0.2983
 5001TIP3    H136638   4.281   1.514   6.695  1.0659  0.8750  1.0720
 5001TIP3    H236639   4.166   1.467   6.780  1.4012  0.0927  1.1019
 5002TIP3   OH236640   4.641   5.262   2.439 -0.6421  0.0356 -0.3687
 5002TIP3    H136641   4.611   5.175   2.465 -1.6297  0.6305  0.5883
 5002TIP3    H236642   4.735   5.262   2.460 -0.6828 -0.7160 -0.1475
 5003TIP3   OH236643   5.747   1.442   7.953  0.7086 -0.1275 -0.0967
 5003TIP3    H136644   5.702   1.413   7.873  0.6702  0.3352 -0.2451
 5003TIP3    H236645   5.728   1.374   8.017  1.1250 -0.7371 -0.6110
 5004TIP3   OH236646   6.633   5.398   1.832 -0.0559  0.1190 -0.2489
 5004TIP3    H136647   6.692   5.469   1.807 -0.6853  0.3320 -1.1585
 5004TIP3    H236648   6.559   5.442   1.875 -0.2810 -0.0093 -0.4995
 5005TIP3   OH236649   0.229   3.523   6.870  0.5724 -0.7846  0.1610
 5005TIP3    H136650   0.302   3.584   6.883 -0.9647  1.4227 -0.7694
 5005TIP3    H236651   0.249   3.478   6.788  0.3690  0.7071 -0.7444
 5006TIP3   OH236652   2.430   5.024   7.201 -0.0854  0.4090  0.1296
 5006TIP3    H136653   2.512   4.984   7.231 -0.4274 -0.5822 -0.1983
 5006TIP3    H236654   2.370   4.950   7.190 -1.0684  1.1272  0.4759
 5007TIP3   OH236655   3.079   1.683   1.102  0.5592  0.0285  0.2016
 5007TIP3    H136656   3.116   1.702   1.016  2.3298  0.1731  0.9640
 5007TIP3    H236657   3.063   1.769   1.141 -0.8196 -0.0264 -0.1881
 5008TIP3   OH236658   0.318   0.714   1.779  0.2695 -0.4055  0.1827
 5008TIP3    H136659   0.388   0.654   1.805  1.0163  0.4815  0.2683
 5008TIP3    H236660   0.358   0.771   1.714  0.2008  1.2968  1.5547
 5009TIP3   OH236661   4.852   2.355   0.531 -0.4197  0.0494  0.1364
 5009TIP3    H136662   4.808   2.429   0.489  3.0369  2.2662  0.0791
 5009TIP3    H236663   4.830   2.364   0.624 -0.4653  0.8440  0.0580
 5010TIP3   OH236664   1.567   3.659   0.320 -0.0781 -0.2912 -0.0505
 5010TIP3    H136665   1.523   3.625   0.242 -3.1393  1.5051  0.7017
 5010TIP3    H236666   1.658   3.669   0.294 -0.5163 -1.9022 -2.6046
 5011TIP3   OH236667   3.576   1.561   7.770  0.2438  0.9372  0.3155
 5011TIP3    H136668   3.646   1.622   7.745  1.3092  0.8275  2.7297
 5011TIP3    H236669   3.508   1.616   7.808  0.3031  0.8022  0.6200
 5012TIP3   OH236670   4.915   3.586   2.348 -0.1992  0.4687 -0.1845
 5012TIP3    H136671   4.932   3.639   2.425 -0.1494  0.4148 -0.1583
 5012TIP3    H236672   4.865   3.511   2.381  0.4887  0.0500 -0.0790
 5013TIP3   OH236673   1.834   3.434   2.182  0.1742  0.0728  0.4264
 5013TIP3    H136674   1.761   3.398   2.233 -0.2736  0.9073  0.3930
 5013TIP3    H236675   1.832   3.384   2.100 -0.5968  0.3279  0.2772
 5014TIP3   OH236676   4.386   4.434   1.704 -0.0895  0.2545  0.2085
 5014TIP3    H136677   4.295   4.426   1.673  0.2942  0.5550 -1.0296
 5014TIP3    H236678   4.397   4.528   1.720 -0.3912  0.0711  1.6675
 5015TIP3   OH236679   2.357   0.322   1.535 -0.3885  0.2023 -0.1144
 5015TIP3    H136680   2.283   0.276   1.576  0.8136 -0.1688  1.7540
 5015TIP3    H236681   2.379   0.268   1.459 -1.8741  0.2083 -0.5900
 5016TIP3   OH236682   2.534   1.433   8.713 -0.0740 -0.1225  0.0361
 5016TIP3    H136683   2.598   1.426   8.642  1.5075 -0.2189  1.3991
 5016TIP3    H236684   2.557   1.515   8.757 -0.9485 -0.1296  0.5148
 5017TIP3   OH236685   2.872   6.322   2.128  0.0414 -0.5450  0.2403
 5017TIP3    H136686   2.920   6.300   2.208  2.1674  2.4518 -0.0290
 5017TIP3    H236687   2.781   6.329   2.155  0.4587 -1.3483  1.9739
 5018TIP3   OH236688   5.517   4.757   1.834 -0.3498 -0.3351 -0.1403
 5018TIP3    H136689   5.585   4.824   1.845  0.5829 -0.8265 -2.3753
 5018TIP3    H236690   5.441   4.792   1.881  0.7375  1.3072  0.4783
 5019TIP3   OH236691   5.011   1.071   6.940  0.1600 -1.0785 -0.3729
 5019TIP3    H136692   4.924   1.080   6.980  0.2449 -3.2672  0.5025
 5019TIP3    H236693   5.021   0.976   6.926  2.6736 -0.9796  0.2120
 5020TIP3   OH236694   6.055   4.255   0.724  0.0423  0.0920 -0.3097
 5020TIP3    H136695   6.015   4.205   0.794  0.1132  0.6299  0.1178
 5020TIP3    H236696   5.982   4.295   0.677 -0.0817 -1.1768 -1.2564
 5021TIP3   OH236697   4.563   0.117   8.234  0.2879 -0.2946 -0.1256
 5021TIP3    H136698   4.503   0.192   8.239  1.4829  0.6345  0.6965
 5021TIP3    H236699   4.548   0.069   8.316 -0.2449 -0.7881 -0.5063
 5022TIP3   OH236700   1.401   2.895   2.431  0.4305 -0.5196 -0.0835
 5022TIP3    H136701   1.424   2.970   2.376  0.8867 -1.2753 -0.9450
 5022TIP3    H236702   1.331   2.928   2.487  0.5949  0.5401 -0.4649
 5023TIP3   OH236703   6.030   5.831   0.853 -0.4789  0.3509  0.6490
 5023TIP3    H136704   6.080   5.776   0.914 -1.5490 -0.0078  1.2146
 5023TIP3    H236705   5.996   5.770   0.787 -0.7961  0.4873  0.6855
 5024TIP3   OH236706   3.307   5.478   1.773  0.5980  0.2486  0.4742
 5024TIP3    H136707   3.225   5.444   1.809  0.1206 -0.1882 -0.9282
 5024TIP3    H236708   3.356   5.511   1.848 -0.5695 -0.1238  1.4157
 5025TIP3   OH236709   0.216   2.483   8.388 -0.1659  0.0082 -0.1295
 5025TIP3    H136710   0.311   2.484   8.395 -0.1526 -0.4000 -0.2447
 5025TIP3    H236711   0.196   2.555   8.328 -0.0468  1.1695  1.1736
 5026TIP3   OH236712   3.506   1.334   0.496  0.3564  0.1449 -0.3633
 5026TIP3    H136713   3.435   1.337   0.432 -1.4314 -1.2401  1.4224
 5026TIP3    H236714   3.480   1.265   0.557  2.2318  1.0234  1.5592
 5027TIP3   OH236715   3.838   4.525   7.996  0.2041 -0.3536 -0.0077
 5027TIP3    H136716   3.858   4.435   7.968 -1.1945 -0.5248 -0.5435
 5027TIP3    H236717   3.771   4.555   7.935  0.1007  0.7895  0.6333
 5028TIP3   OH236718   0.138   3.851   8.327 -0.2676 -0.1555 -0.1043
 5028TIP3    H136719   0.226   3.874   8.296 -0.1713  0.6179  0.6707
 5028TIP3    H236720   0.153   3.783   8.393 -0.0055  1.4258  1.5628
 5029TIP3   OH236721   3.580   6.193   7.800  0.3307  0.5197 -0.1290
 5029TIP3    H136722   3.575   6.288   7.797  2.0425  0.6522  0.0621
 5029TIP3    H236723   3.594   6.167   7.709  0.9765  0.5546 -0.0466
 5030TIP3   OH236724   3.843   3.292   1.709 -0.1857 -0.3446 -0.4303
 5030TIP3    H136725   3.757   3.264   1.679 -0.3727  1.2775 -1.4982
 5030TIP3    H236726   3.905   3.231   1.668 -0.7682 -1.2825  0.0470
 5031TIP3   OH236727   1.612   0.787   0.403 -0.1069  0.1069  0.4102
 5031TIP3    H136728   1.615   0.713   0.343 -0.0446  0.7011 -0.3329
 5031TIP3    H236729   1.555   0.758   0.474 -1.6909  0.0437 -0.8240
 5032TIP3   OH236730   3.429   1.887   6.959 -0.5780 -0.0738 -0.0027
 5032TIP3    H136731   3.415   1.879   6.865  0.8818  1.0347 -0.3460
 5032TIP3    H236732   3.496   1.955   6.968 -0.6162 -0.2239  1.8340
 5033TIP3   OH236733   2.850   4.521   0.766 -0.0833  0.6103  0.2849
 5033TIP3    H136734   2.792   4.597   0.758  0.2603  0.6237 -3.5190
 5033TIP3    H236735   2.937   4.559   0.778  0.1625  0.9465 -2.1349
 5034TIP3   OH236736   0.323   2.390   1.500 -0.4319  0.2252  0.0692
 5034TIP3    H136737   0.343   2.297   1.506 -1.5659  0.0154  0.8547
 5034TIP3    H236738   0.230   2.396   1.522 -0.5396  1.4713 -0.6407
 5035TIP3   OH236739   0.536   3.244   7.966 -0.0702 -0.1941 -0.5483
 5035TIP3    H136740   0.525   3.269   7.875  2.2381  0.8090 -0.6252
 5035TIP3    H236741   0.605   3.302   7.999 -1.0089 -0.3344  1.9269
 5036TIP3   OH236742   3.619   2.348   1.842 -0.2354 -0.0950  0.0987
 5036TIP3    H136743   3.658   2.341   1.755 -0.8745  0.6392 -0.2638
 5036TIP3    H236744   3.692   2.367   1.900  0.3580 -1.6955 -0.0924
 5037TIP3   OH236745   3.423   6.261   7.355  0.3379 -0.3275  0.6842
 5037TIP3    H136746   3.435   6.346   7.313  0.1398  0.0008  1.2939
 5037TIP3    H236747   3.348   6.222   7.309  0.3175 -0.1057  0.5270
 5038TIP3   OH236748   1.942   4.057   6.540 -0.0376 -0.3507 -0.2917
 5038TIP3    H136749   2.030   4.076   6.573 -0.7704 -0.2696  1.7347
 5038TIP3    H236750   1.883   4.097   6.603 -1.5570 -0.5555 -1.5160
 5039TIP3   OH236751   1.191   6.501   7.032  0.3485 -0.3098  0.2717
 5039TIP3    H136752   1.133   6.448   6.976  0.3510  0.6840 -0.7114
 5039TIP3    H236753   1.269   6.515   6.979  0.7237 -0.0764  0.8766
 5040TIP3   OH236754   0.916   1.355   0.655  0.4125  0.3592 -0.5427
 5040TIP3    H136755   0.936   1.355   0.561  1.9549  1.9600 -0.2674
 5040TIP3    H236756   0.906   1.448   0.678 -3.4235 -0.0756  0.2743
 5041TIP3   OH236757   4.745   4.197   8.849 -0.8715 -0.5924  0.4316
 5041TIP3    H136758   4.653   4.193   8.875 -0.8080 -2.3871  0.5271
 5041TIP3    H236759   4.792   4.216   8.931 -1.1403  0.3927  0.3708
 5042TIP3   OH236760   4.922   5.247   2.422  0.6897 -0.0869  0.2189
 5042TIP3    H136761   5.007   5.238   2.465 -0.1701 -2.6248  1.6092
 5042TIP3    H236762   4.940   5.229   2.329  1.7516  0.1427  0.3617
 5043TIP3   OH236763   5.818   0.759   6.630  0.7157 -0.0319 -0.3602
 5043TIP3    H136764   5.827   0.669   6.662  2.3011  0.1291 -0.2629
 5043TIP3    H236765   5.828   0.751   6.535  1.4445  0.0831 -0.3028
 5044TIP3   OH236766   4.750   0.222   1.261 -0.1616 -0.6705 -0.7714
 5044TIP3    H136767   4.764   0.151   1.198 -0.6333 -0.5404 -1.0253
 5044TIP3    H236768   4.715   0.178   1.339  0.9193 -0.9010 -0.3986
 5045TIP3   OH236769   3.490   6.453   0.427 -0.6135 -0.4932  0.7431
 5045TIP3    H136770   3.463   6.451   0.519 -1.0161 -0.8732  0.6196
 5045TIP3    H236771   3.429   6.394   0.383 -0.9094  0.2727  0.1054
 5046TIP3   OH236772   1.430   3.073   7.888  0.5304 -0.2036  0.3967
 5046TIP3    H136773   1.390   3.068   7.975 -1.8361  0.3891 -0.5705
 5046TIP3    H236774   1.452   2.983   7.865  0.0416 -0.5053  1.1158
 5047TIP3   OH236775   6.533   5.065   8.062  0.1480 -0.0889  0.1473
 5047TIP3    H136776   6.516   5.136   8.000 -0.2594  0.1970  0.5822
 5047TIP3    H236777   6.446   5.029   8.081  0.3583 -0.7931 -0.1663
 5048TIP3   OH236778   3.254   5.317   7.171  0.1302  0.6489  0.2407
 5048TIP3    H136779   3.307   5.395   7.155  0.4982  0.0519 -1.7663
 5048TIP3    H236780   3.268   5.297   7.263  3.4297  0.5343 -0.1706
 5049TIP3   OH236781   4.883   3.162   1.718 -0.0272 -0.0975  0.1526
 5049TIP3    H136782   4.961   3.210   1.743 -0.7871  0.3442  1.8875
 5049TIP3    H236783   4.910   3.070   1.717  0.9365  0.1828 -1.1510
 5050TIP3   OH236784   1.553   6.683   8.063 -0.2135  0.7379 -0.3396
 5050TIP3    H136785   1.462   6.710   8.059 -0.4651 -0.2171 -1.5562
 5050TIP3    H236786   1.570   6.640   7.979  1.0992  0.1118  0.2089
 5051TIP3   OH236787   1.935   5.306   0.937  0.1484  0.7957  0.0412
 5051TIP3    H136788   1.892   5.299   0.852  2.6007  1.7362 -1.3835
 5051TIP3    H236789   1.945   5.216   0.967 -1.0187  0.4742 -0.4844
 5052TIP3   OH236790   3.994   4.925   8.851 -0.1645 -0.0388 -0.0681
 5052TIP3    H136791   3.992   4.840   8.894 -0.9692  1.1849  2.5263
 5052TIP3    H236792   3.939   4.981   8.906  2.2701  2.7822 -0.2274
 5053TIP3   OH236793   5.985   2.763   0.669 -0.1949  0.6345  0.3271
 5053TIP3    H136794   5.894   2.776   0.644  0.5460  0.0950 -3.3797
 5053TIP3    H236795   5.989   2.671   0.697 -0.4679 -0.1885 -2.0580
 5054TIP3   OH236796   5.759   3.309   0.332  0.5724 -0.4167  0.3360
 5054TIP3    H136797   5.710   3.228   0.327 -3.5122  1.8239  0.2921
 5054TIP3    H236798   5.710   3.371   0.279  3.9658  1.9876 -0.3798
 5055TIP3   OH236799   2.511   2.681   0.690  0.2512 -0.5266 -0.2996
 5055TIP3    H136800   2.449   2.633   0.745 -0.1793 -0.4830 -0.7393
 5055TIP3    H236801   2.585   2.620   0.678  0.4042 -0.4913  0.4134
 5056TIP3   OH236802   1.102   0.607   0.901  0.1176  0.0226 -0.1666
 5056TIP3    H136803   1.007   0.602   0.900 -0.0481  2.1585  0.4374
 5056TIP3    H236804   1.124   0.647   0.985  1.3730  1.4715 -1.1145
 5057TIP3   OH236805   2.749   5.289   1.572 -0.0608 -0.1255  0.1785
 5057TIP3    H136806   2.695   5.292   1.493  0.3973  2.3212 -0.1261
 5057TIP3    H236807   2.708   5.352   1.631  2.7605  2.4607 -0.3756
 5058TIP3   OH236808   5.269   2.719   8.373  0.0627 -0.3365 -0.2417
 5058TIP3    H136809   5.285   2.719   8.467  2.4576  0.0226 -0.5896
 5058TIP3    H236810   5.277   2.811   8.347 -1.3355 -0.3203 -0.7254
 5059TIP3   OH236811   5.015   0.667   7.156 -0.1392 -0.0149  0.3835
 5059TIP3    H136812   4.958   0.699   7.086 -0.2595  1.1616  1.0025
 5059TIP3    H236813   5.103   0.692   7.127 -0.2107  0.6838  0.7506
 5060TIP3   OH236814   3.056   5.412   7.917  0.0787  0.5301 -0.1493
 5060TIP3    H136815   3.080   5.330   7.876 -1.7650 -0.2757  0.2720
 5060TIP3    H236816   3.126   5.428   7.981  1.3924  0.2582 -1.4672
 5061TIP3   OH236817   5.885   5.940   1.087  0.1183  0.2633 -0.1038
 5061TIP3    H136818   5.941   5.866   1.067 -0.9248 -0.4393 -0.5114
 5061TIP3    H236819   5.844   5.963   1.004 -0.1922  0.7735  0.1846
 5062TIP3   OH236820   1.879   4.291   7.776  0.4699 -0.8840 -0.0451
 5062TIP3    H136821   1.908   4.327   7.692 -0.3560  0.4299  0.2095
 5062TIP3    H236822   1.955   4.304   7.834  0.3849 -0.0198 -0.1040
 5063TIP3   OH236823   4.283   2.160   7.288  0.0768  0.3407  0.0474
 5063TIP3    H136824   4.347   2.089   7.293  0.8631  1.0902  1.3823
 5063TIP3    H236825   4.320   2.222   7.225 -0.1597 -0.0031 -0.4311
 5064TIP3   OH236826   6.336   6.133   8.540 -0.0129  0.1122  0.2985
 5064TIP3    H136827   6.249   6.171   8.530 -0.3285 -0.7794 -0.6306
 5064TIP3    H236828   6.328   6.045   8.501  1.1579 -0.1817  0.6766
 5065TIP3   OH236829   1.532   3.472   1.558  0.3153  0.0267  0.1748
 5065TIP3    H136830   1.561   3.391   1.599 -1.4020  0.9764  3.6953
 5065TIP3    H236831   1.613   3.516   1.532  1.3735 -1.8835  0.0656
 5066TIP3   OH236832   2.618   0.293   1.162 -0.3060  0.0871  0.7044
 5066TIP3    H136833   2.604   0.205   1.196 -1.7985  0.1808  0.4093
 5066TIP3    H236834   2.621   0.349   1.240 -1.1533 -0.0084  0.8076
 5067TIP3   OH236835   0.261   6.716   0.249  0.3238 -0.1202 -0.0131
 5067TIP3    H136836   0.302   6.630   0.249  1.2521  0.2992 -0.1717
 5067TIP3    H236837   0.265   6.745   0.340 -1.5833 -0.9465  0.3697
 5068TIP3   OH236838   2.367   1.955   8.300  0.4546 -0.4940 -0.0286
 5068TIP3    H136839   2.442   1.998   8.341  0.4430 -0.5806  0.0855
 5068TIP3    H236840   2.356   1.999   8.216  0.6928 -0.5468 -0.0858
 5069TIP3   OH236841   3.537   4.012   7.645  0.0055 -0.5781  0.0388
 5069TIP3    H136842   3.629   4.020   7.621  0.1564 -0.8268  0.5114
 5069TIP3    H236843   3.496   3.968   7.571  0.3387 -0.7770 -0.0275
 5070TIP3   OH236844   0.500   5.316   7.147  0.3990  0.0460 -0.6693
 5070TIP3    H136845   0.584   5.362   7.140  1.2810 -0.9458  1.9874
 5070TIP3    H236846   0.450   5.366   7.211 -1.4182  0.9892 -2.6814
 5071TIP3   OH236847   3.088   3.778   1.090  0.3811 -0.8659  0.4473
 5071TIP3    H136848   3.168   3.728   1.076 -0.0016 -1.1233 -0.9930
 5071TIP3    H236849   3.033   3.756   1.015  0.1185  1.5834 -0.1644
 5072TIP3   OH236850   4.580   3.970   7.814  0.0827  0.0566  0.5583
 5072TIP3    H136851   4.595   3.876   7.821  2.5196  0.5039  3.5229
 5072TIP3    H236852   4.659   4.003   7.771 -0.1913  0.8533  0.6466
 5073TIP3   OH236853   0.760   3.821   8.350  0.2012  0.1590  0.3757
 5073TIP3    H136854   0.805   3.779   8.277  0.5275 -0.3019  0.8372
 5073TIP3    H236855   0.818   3.893   8.376 -0.0748  0.5380 -0.0261
 5074TIP3   OH236856   4.988   5.497   0.603  0.0467  0.4662 -0.1184
 5074TIP3    H136857   4.939   5.425   0.563  0.0601  0.4085 -0.0302
 5074TIP3    H236858   4.957   5.499   0.693  1.1839 -0.4423  0.3145
 5075TIP3   OH236859   5.229   0.424   7.827  0.1504 -0.1127  0.4900
 5075TIP3    H136860   5.164   0.467   7.771 -0.1813 -0.9376  0.2398
 5075TIP3    H236861   5.235   0.481   7.904 -0.5679  0.1826  0.3353
 5076TIP3   OH236862   4.829   6.085   0.273 -0.2002  0.2876  0.0248
 5076TIP3    H136863   4.866   5.999   0.291 -1.3002 -0.1009  0.4826
 5076TIP3    H236864   4.892   6.147   0.310  1.5093 -0.2109 -1.8822
 5077TIP3   OH236865   5.072   4.872   8.643  0.4914  0.1707  0.5313
 5077TIP3    H136866   5.045   4.784   8.669  1.8389 -0.1311  0.9995
 5077TIP3    H236867   5.019   4.930   8.698 -0.8367 -0.3050 -0.1988
 5078TIP3   OH236868   6.823   0.005   1.491 -0.2197  0.4134  0.1094
 5078TIP3    H136869   6.805  -0.077   1.538 -0.0223 -0.5459 -1.4146
 5078TIP3    H236870   6.880   0.055   1.550  0.4316 -0.9627  0.6864
 5079TIP3   OH236871   3.317   2.960   1.024  0.1175  0.5575  0.0190
 5079TIP3    H136872   3.224   2.973   1.041  0.3469  1.3757  0.7293
 5079TIP3    H236873   3.327   2.971   0.929 -0.6429 -0.4460 -0.1848
 5080TIP3   OH236874   3.470   1.512   2.208 -0.4032 -0.1572  0.4078
 5080TIP3    H136875   3.461   1.472   2.295 -0.3347 -1.5131 -0.1808
 5080TIP3    H236876   3.559   1.547   2.207 -0.4804  0.0688  0.9559
 5081TIP3   OH236877   5.298   1.103   6.468  0.6040 -0.7522 -0.6425
 5081TIP3    H136878   5.322   1.169   6.402 -1.0725  0.7731  0.1722
 5081TIP3    H236879   5.366   1.110   6.534 -0.6592  1.8729  0.5343
 5082TIP3   OH236880   2.415   4.129   1.981  0.0950  0.4341  0.3320
 5082TIP3    H136881   2.365   4.211   1.981  1.1174  1.0823  0.9555
 5082TIP3    H236882   2.449   4.122   1.891 -2.7211 -1.0811 -0.7303
 5083TIP3   OH236883   1.306   6.564   1.579  0.1006  0.0240 -0.3791
 5083TIP3    H136884   1.215   6.592   1.588  0.1393  0.1532 -0.3895
 5083TIP3    H236885   1.301   6.469   1.574 -0.1845  0.0939 -1.9518
 5084TIP3   OH236886   0.738   6.556   7.422 -0.2819 -0.0007  0.2534
 5084TIP3    H136887   0.713   6.518   7.338 -0.4841  0.5713  0.0555
 5084TIP3    H236888   0.676   6.518   7.485  2.1332 -3.4551  0.8590
 5085TIP3   OH236889   4.597   0.821   6.898 -0.5547  0.0757  0.1426
 5085TIP3    H136890   4.543   0.892   6.931 -0.9744 -0.0374 -0.2856
 5085TIP3    H236891   4.584   0.822   6.803  0.7728  0.5067 -0.0493
 5086TIP3   OH236892   2.175   6.091   0.827 -0.6114 -0.2791 -0.2376
 5086TIP3    H136893   2.235   6.025   0.859  0.4466  0.9357  0.3716
 5086TIP3    H236894   2.089   6.063   0.858  0.1773  0.0653  2.4414
 5087TIP3   OH236895   1.117   2.720   2.071  0.5041 -0.0847 -0.2396
 5087TIP3    H136896   1.166   2.642   2.045  1.9010  0.4394  0.7370
 5087TIP3    H236897   1.123   2.722   2.167  0.2380  1.0606 -0.2315
 5088TIP3   OH236898   0.301   6.581   1.549 -0.3149 -0.2630 -0.1232
 5088TIP3    H136899   0.360   6.525   1.498 -0.5303 -0.8552  0.2553
 5088TIP3    H236900   0.330   6.670   1.532  0.0179 -0.4926 -0.7705
 5089TIP3   OH236901   3.212   5.843   6.810  0.2021  0.3141 -0.1094
 5089TIP3    H136902   3.254   5.787   6.876  1.3896 -0.5820 -1.5686
 5089TIP3    H236903   3.255   5.820   6.728 -1.4071  1.2201 -1.2657
 5090TIP3   OH236904   0.894   6.413   2.597  0.2235 -0.0802  0.3070
 5090TIP3    H136905   0.890   6.343   2.663  1.5831 -1.3589 -0.9067
 5090TIP3    H236906   0.957   6.475   2.632 -0.0402 -0.0784  0.8016
 5091TIP3   OH236907   2.302   6.091   8.412  0.0410  0.3032 -0.1256
 5091TIP3    H136908   2.383   6.053   8.445 -0.3509 -0.3297  0.1208
 5091TIP3    H236909   2.328   6.138   8.333  1.1934  2.7080  1.5516
 5092TIP3   OH236910   2.482   6.150   6.914  0.0997  0.0763  0.1028
 5092TIP3    H136911   2.508   6.060   6.932 -0.8408 -0.3073 -0.4083
 5092TIP3    H236912   2.446   6.147   6.825 -2.0053  0.4900  0.8784
 5093TIP3   OH236913   2.008   0.117   7.286  0.1760 -0.3905 -0.1517
 5093TIP3    H136914   2.072   0.047   7.273 -1.1960 -1.4142 -1.9500
 5093TIP3    H236915   1.956   0.116   7.205 -2.2398  0.2222  1.3189
 5094TIP3   OH236916   6.285   0.938   6.834  0.1295  0.0989 -0.2695
 5094TIP3    H136917   6.323   0.855   6.805  0.5548  0.2770 -0.2310
 5094TIP3    H236918   6.357   1.001   6.826 -0.0902  0.3918  0.0319
 5095TIP3   OH236919   1.951   5.206   1.252  0.2558 -0.0614  0.2161
 5095TIP3    H136920   1.893   5.155   1.309  0.3906 -1.5015 -0.8701
 5095TIP3    H236921   1.963   5.150   1.175  0.9711  1.3487 -0.7287
 5096TIP3   OH236922   6.282   2.312   1.027  0.3168  0.3996 -0.0713
 5096TIP3    H136923   6.264   2.304   0.933  1.4766  0.6514 -0.3312
 5096TIP3    H236924   6.302   2.405   1.039  0.2310  0.3555  0.4069
 5097TIP3   OH236925   4.308   4.519   8.794 -0.6215  0.3423  0.3158
 5097TIP3    H136926   4.386   4.567   8.821 -0.1021 -0.5436  0.4449
 5097TIP3    H236927   4.247   4.586   8.766 -0.6525  1.2041  2.3013
 5098TIP3   OH236928   4.089   1.530   8.117  0.0804 -0.3329 -0.1185
 5098TIP3    H136929   4.123   1.485   8.193 -1.4147  0.5950  1.1664
 5098TIP3    H236930   4.095   1.623   8.139  3.6681  0.3284 -2.9360
 5099TIP3   OH236931   2.716   1.057   7.592 -0.0720  0.0643 -0.0942
 5099TIP3    H136932   2.795   1.085   7.638 -0.9362  0.4291  1.1905
 5099TIP3    H236933   2.677   1.138   7.559  0.3789 -0.1652 -1.2554
 5100TIP3   OH236934   5.768   3.750   1.840 -0.2530 -0.4630  0.1953
 5100TIP3    H136935   5.701   3.715   1.899  0.0706 -0.4823  0.5538
 5100TIP3    H236936   5.846   3.698   1.859 -0.2944 -0.8584 -0.6571
 5101TIP3   OH236937   5.020   0.531   7.675  0.4252  0.5602  0.4094
 5101TIP3    H136938   5.007   0.625   7.684  0.9458  0.7193 -0.3933
 5101TIP3    H236939   4.993   0.511   7.586  1.7000  0.2125  0.0771
 5102TIP3   OH236940   0.178   6.824   8.829 -0.6941  0.0519  0.7469
 5102TIP3    H136941   0.167   6.764   8.756  0.7070  1.7485 -0.9499
 5102TIP3    H236942   0.118   6.896   8.811  0.5475  1.0773  0.5507
 5103TIP3   OH236943   1.831   3.976   1.356 -0.1524 -0.1517 -0.2133
 5103TIP3    H136944   1.855   4.059   1.315  0.9185 -0.2385  0.2071
 5103TIP3    H236945   1.915   3.933   1.373 -0.6472 -0.7573  0.7428
 5104TIP3   OH236946   4.684   2.638   0.083 -0.2332 -0.4835  0.1090
 5104TIP3    H136947   4.590   2.642   0.065 -0.3027  1.6390  0.7156
 5104TIP3    H236948   4.719   2.582   0.014 -1.8280 -0.6468 -0.6067
 5105TIP3   OH236949   3.141   3.901   0.114  0.1556  0.1708  0.3933
 5105TIP3    H136950   3.134   3.977   0.172  0.1123 -0.0881  0.7278
 5105TIP3    H236951   3.072   3.841   0.144  0.1452  0.0291  0.0877
 5106TIP3   OH236952   1.574   2.759   7.417 -0.3417  0.7253 -0.2692
 5106TIP3    H136953   1.585   2.820   7.344 -0.4750  1.6717  0.5003
 5106TIP3    H236954   1.497   2.790   7.464 -0.6389 -0.2601 -0.0839
 5107TIP3   OH236955   0.643   0.604   6.766  0.2982  1.0363 -0.8702
 5107TIP3    H136956   0.726   0.647   6.786  1.0462 -1.4258  2.1493
 5107TIP3    H236957   0.638   0.531   6.828 -2.5954 -0.9728 -3.1658
 5108TIP3   OH236958   5.439   0.789   0.273 -0.0096 -0.9108 -0.4428
 5108TIP3    H136959   5.368   0.735   0.308  1.3390 -2.1326  0.5494
 5108TIP3    H236960   5.512   0.727   0.260  1.4693  0.5816  0.3155
 5109TIP3   OH236961   4.858   0.816   6.917  0.0975  0.1275 -0.1584
 5109TIP3    H136962   4.770   0.814   6.954  0.0371 -2.7167 -0.1834
 5109TIP3    H236963   4.846   0.840   6.826 -0.5333  0.6296  0.0543
 5110TIP3   OH236964   5.559   2.529   1.462 -0.7269  0.2114  0.5758
 5110TIP3    H136965   5.592   2.583   1.534  2.4040 -1.0909  0.2406
 5110TIP3    H236966   5.628   2.533   1.395 -2.4083 -0.6773 -1.3220
 5111TIP3   OH236967   3.598   2.145   6.363  0.2576  0.8850 -0.2471
 5111TIP3    H136968   3.634   2.231   6.346 -0.2288  1.1776  0.1630
 5111TIP3    H236969   3.532   2.159   6.432  0.8045  0.0576  0.4742
 5112TIP3   OH236970   0.103   3.756   1.036  0.0647 -0.0870  0.2547
 5112TIP3    H136971   0.155   3.727   1.111  0.9153  0.2958 -0.1684
 5112TIP3    H236972   0.165   3.805   0.982 -0.4448 -0.6538 -0.8723
 5113TIP3   OH236973   6.794   2.155   1.494  0.1652 -0.1381  0.1686
 5113TIP3    H136974   6.799   2.061   1.478 -0.6070 -0.4373  1.4675
 5113TIP3    H236975   6.718   2.165   1.552 -0.0997  1.3499 -0.3876
 5114TIP3   OH236976   1.975   6.249   1.838 -0.0159  0.0928 -0.1278
 5114TIP3    H136977   2.065   6.238   1.868 -0.0945 -0.4940 -0.0979
 5114TIP3    H236978   1.963   6.180   1.773 -1.0053 -0.9586  1.1363
 5115TIP3   OH236979   3.625   4.399   7.374  0.3080  0.3186  0.3285
 5115TIP3    H136980   3.683   4.447   7.314  1.5517  2.3555  2.9486
 5115TIP3    H236981   3.658   4.309   7.372 -0.2405  0.0602 -2.5401
 5116TIP3   OH236982   1.745   5.528   7.006 -0.3567 -0.1293 -0.4912
 5116TIP3    H136983   1.774   5.450   7.053 -1.6570 -1.3019 -1.5542
 5116TIP3    H236984   1.661   5.503   6.967  0.7652  0.6285 -3.7039
 5117TIP3   OH236985   2.909   2.200   1.221 -0.0479 -0.5116  0.1816
 5117TIP3    H136986   2.857   2.252   1.159  0.1508 -1.1401 -0.5332
 5117TIP3    H236987   2.849   2.182   1.293 -0.0965  0.7572  0.4763
 5118TIP3   OH236988   4.279   4.699   6.925 -0.3014 -0.2412  0.6043
 5118TIP3    H136989   4.268   4.636   6.854  1.8368 -0.2955  0.2537
 5118TIP3    H236990   4.268   4.784   6.884  1.2749 -0.2591  0.0861
 5119TIP3   OH236991   1.278   5.290   0.309  0.2240  0.3844  0.2953
 5119TIP3    H136992   1.189   5.318   0.335  0.1748  0.7547 -0.2477
 5119TIP3    H236993   1.285   5.201   0.341 -1.2648 -0.5588 -1.7512
 5120TIP3   OH236994   6.764   1.482   7.517 -0.0419  0.2357 -0.6858
 5120TIP3    H136995   6.725   1.478   7.604 -1.8204 -2.1476 -1.4702
 5120TIP3    H236996   6.859   1.476   7.532 -0.2408  1.0381  1.0838
 5121TIP3   OH236997   6.030   0.623   7.277  0.0597 -0.5193 -1.2290
 5121TIP3    H136998   5.959   0.658   7.332  0.1055 -3.4159  0.9060
 5121TIP3    H236999   5.986   0.561   7.218  0.7050 -2.0462 -0.1560
 5122TIP3   OH237000   5.130   1.567   0.143 -0.1596 -0.5412 -0.1917
 5122TIP3    H137001   5.076   1.526   0.210  0.4275 -0.1594  0.5317
 5122TIP3    H237002   5.197   1.615   0.192 -0.7172  1.1597 -0.9963
 5123TIP3   OH237003   5.847   6.113   8.035 -0.4369 -0.1727 -0.6045
 5123TIP3    H137004   5.811   6.200   8.020 -2.2146 -1.0873 -2.1249
 5123TIP3    H237005   5.794   6.078   8.108  1.6122  0.6685  1.4116
 5124TIP3   OH237006   1.457   6.477   6.877  0.3721  0.8587  0.3774
 5124TIP3    H137007   1.419   6.498   6.792 -1.6283 -0.4210  0.8867
 5124TIP3    H237008   1.549   6.501   6.869 -0.3260  3.2732 -1.2331
 5125TIP3   OH237009   1.063   2.169   0.008 -0.0395  0.1084 -0.2321
 5125TIP3    H137010   1.123   2.149  -0.064  0.5445  0.6764  0.0874
 5125TIP3    H237011   1.010   2.242  -0.024 -0.4472 -0.2702 -0.4421
 5126TIP3   OH237012   1.924   3.385   0.075  0.3037  0.2182  0.1500
 5126TIP3    H137013   1.934   3.382   0.170 -0.9227  1.4512  0.3465
 5126TIP3    H237014   1.946   3.296   0.045 -2.0415 -1.0409  1.8647
 5127TIP3   OH237015   4.776   4.965   0.376  0.1847  0.4108 -0.3037
 5127TIP3    H137016   4.766   5.031   0.307 -0.4865  0.8788  0.2210
 5127TIP3    H237017   4.705   4.903   0.361  0.6490 -0.0456 -0.6313
 5128TIP3   OH237018   2.466   4.204   6.952 -0.3815  0.7061  0.4137
 5128TIP3    H137019   2.403   4.134   6.940 -0.7827  0.6080  2.7085
 5128TIP3    H237020   2.548   4.170   6.914 -0.6029 -0.9554  1.3627
 5129TIP3   OH237021   1.544   5.024   0.310  0.7534  0.0339 -0.2549
 5129TIP3    H137022   1.494   4.969   0.250  1.5903 -1.5842  0.4794
 5129TIP3    H237023   1.505   5.008   0.396  0.1641  1.6324 -0.1770
 5130TIP3   OH237024   4.559   3.323   7.012  0.4084 -0.6585  0.1746
 5130TIP3    H137025   4.543   3.229   6.999 -0.1554 -0.6248  0.5969
 5130TIP3    H237026   4.650   3.335   6.988  0.8950 -1.5719  1.4674
 5131TIP3   OH237027   1.061   5.015   7.744 -0.4300 -0.2011 -0.2585
 5131TIP3    H137028   1.000   4.991   7.674 -1.1734 -0.7955  0.5628
 5131TIP3    H237029   1.017   5.086   7.791 -0.5346 -0.6682  0.3701
 5132TIP3   OH237030   4.080   4.541   0.299 -0.5383 -0.1228  0.3574
 5132TIP3    H137031   4.071   4.472   0.233  0.4913  0.2819 -0.2224
 5132TIP3    H237032   4.173   4.563   0.299 -0.7924  1.0514  0.7490
 5133TIP3   OH237033   4.717   1.160   1.763  0.1047 -0.1282 -0.2755
 5133TIP3    H137034   4.686   1.206   1.685 -1.2001  1.7053  1.2416
 5133TIP3    H237035   4.650   1.176   1.829  2.1346  0.1344  1.8447
 5134TIP3   OH237036   3.126   2.514   1.042 -0.0031  0.2156  1.0748
 5134TIP3    H137037   3.061   2.567   1.089 -0.7881 -0.2945  0.5951
 5134TIP3    H237038   3.202   2.571   1.034 -0.1474  0.6008  2.2272
 5135TIP3   OH237039   1.328   0.606   8.092  0.6768  0.1470 -0.4867
 5135TIP3    H137040   1.325   0.695   8.056 -0.9706  0.8299  1.1789
 5135TIP3    H237041   1.419   0.595   8.120  0.8711  1.3517 -0.5784
 5136TIP3   OH237042   6.105   6.794   0.690  0.0333  0.2464 -0.5115
 5136TIP3    H137043   6.134   6.867   0.636 -1.3426  0.4513 -1.0152
 5136TIP3    H237044   6.019   6.772   0.656 -0.0840 -0.8314  0.4217
 5137TIP3   OH237045   4.795   4.850   6.589  0.2802  0.4751  0.3156
 5137TIP3    H137046   4.772   4.932   6.632  1.0779  0.8089  0.1228
 5137TIP3    H237047   4.711   4.809   6.569 -0.1805 -0.6288  3.8669
 5138TIP3   OH237048   2.700   0.428   8.115  0.2426  0.5403  0.9140
 5138TIP3    H137049   2.647   0.456   8.190  0.7941  0.5625  1.2961
 5138TIP3    H237050   2.732   0.510   8.077 -1.1027  0.6159 -0.1522
 5139TIP3   OH237051   6.542   2.819   1.758  0.2296  0.1024  0.3258
 5139TIP3    H137052   6.449   2.832   1.738  0.1285 -0.9209  0.0877
 5139TIP3    H237053   6.588   2.883   1.704 -0.3699  1.1259  0.9957
 5140TIP3   OH237054   3.262   3.626   7.765  0.6511  0.7611  0.2354
 5140TIP3    H137055   3.226   3.629   7.854  0.9267  0.3103  0.3676
 5140TIP3    H237056   3.317   3.704   7.759  2.1893 -0.2037  1.1579
 5141TIP3   OH237057   3.158   1.272   1.626  0.1785 -0.1943 -0.0717
 5141TIP3    H137058   3.204   1.327   1.689 -1.4915  0.0007  1.0348
 5141TIP3    H237059   3.166   1.183   1.661 -1.2253 -0.0206  0.7856
 5142TIP3   OH237060   2.557   4.141   8.536 -0.5655 -0.4023 -0.0522
 5142TIP3    H137061   2.522   4.073   8.594 -0.8706 -0.7118 -0.5900
 5142TIP3    H237062   2.625   4.184   8.587 -1.0278 -0.4774  0.6387
 5143TIP3   OH237063   2.865   0.200   2.450 -0.2828 -0.8145  0.2903
 5143TIP3    H137064   2.810   0.278   2.442 -0.2328 -0.7261  0.7750
 5143TIP3    H237065   2.908   0.192   2.365  0.2394  0.0849  0.4505
 5144TIP3   OH237066   3.125   6.646   7.974  0.2512 -0.1712  0.1486
 5144TIP3    H137067   3.200   6.678   7.924 -0.1418 -0.0959 -0.4046
 5144TIP3    H237068   3.125   6.552   7.959  2.0884 -0.6923  2.6990
 5145TIP3   OH237069   3.358   3.342   8.693 -0.0692 -0.2659  0.2279
 5145TIP3    H137070   3.360   3.315   8.785 -0.8971 -1.5184 -0.0894
 5145TIP3    H237071   3.424   3.286   8.651 -0.7580 -0.7702 -0.1927
 5146TIP3   OH237072   0.951   1.780   8.292  0.3348 -0.2540  0.1872
 5146TIP3    H137073   0.877   1.820   8.245  0.6852  0.1974  0.0163
 5146TIP3    H237074   0.922   1.776   8.383  0.9960  2.1156  0.5518
 5147TIP3   OH237075   0.747   4.234   1.521  0.2636 -0.2167  0.0294
 5147TIP3    H137076   0.721   4.301   1.584  0.5188 -1.8591  1.9974
 5147TIP3    H237077   0.843   4.234   1.524  0.2600 -0.9351  0.3615
 5148TIP3   OH237078   1.400   2.252   7.684  0.4634  0.3211 -0.6317
 5148TIP3    H137079   1.321   2.255   7.629 -1.2067  0.8112  1.6253
 5148TIP3    H237080   1.385   2.320   7.750  1.9309 -0.8190  0.9634
 5149TIP3   OH237081   5.318   1.146   7.583 -0.3259  0.2743 -0.6418
 5149TIP3    H137082   5.323   1.239   7.606 -0.0162 -0.2058  1.4670
 5149TIP3    H237083   5.227   1.122   7.602  0.0150 -0.2072  0.4462
 5150TIP3   OH237084   4.461   3.777   6.483 -0.5973 -0.5968  0.5075
 5150TIP3    H137085   4.497   3.850   6.431  2.0153 -1.0533  1.5243
 5150TIP3    H237086   4.411   3.820   6.553 -0.8448  0.1367 -0.1016
 5151TIP3   OH237087   1.824   1.963   7.933  0.0510 -0.9766  0.1558
 5151TIP3    H137088   1.825   2.042   7.987  1.7887 -0.8427 -0.0124
 5151TIP3    H237089   1.859   1.992   7.849  0.1148 -1.7868 -0.0986
 5152TIP3   OH237090   3.415   1.275   0.015  0.0188  0.5821 -0.4686
 5152TIP3    H137091   3.496   1.324   0.002  0.7527  0.1459  1.8884
 5152TIP3    H237092   3.418   1.205  -0.050  0.0666  2.2554 -2.3505
 5153TIP3   OH237093   3.115   3.930   8.161  0.3054  0.4390 -0.1104
 5153TIP3    H137094   3.130   4.002   8.100 -1.7467  1.6096  0.6658
 5153TIP3    H237095   3.021   3.930   8.176  0.2233 -2.4774 -0.0920
 5154TIP3   OH237096   1.241   2.967   0.851 -0.5076 -0.0789  0.6425
 5154TIP3    H137097   1.226   3.051   0.895  2.2201  1.1800 -0.5902
 5154TIP3    H237098   1.314   2.927   0.899 -1.7595 -1.7980  1.1956
 5155TIP3   OH237099   2.369   2.447   2.286 -0.3952  0.0148 -0.2168
 5155TIP3    H137100   2.410   2.514   2.231  1.4430  1.9657  3.1572
 5155TIP3    H237101   2.414   2.366   2.263 -1.3126  0.1998 -3.0489
 5156TIP3   OH237102   6.139   1.492   7.538 -0.0635 -0.3654  0.0444
 5156TIP3    H137103   6.089   1.548   7.598  0.4693 -1.1572  1.2894
 5156TIP3    H237104   6.075   1.427   7.507 -0.3985  0.1928 -0.4460
 5157TIP3   OH237105   2.270   2.571   7.820 -0.4826 -0.0795 -0.3331
 5157TIP3    H137106   2.256   2.658   7.782  0.8743 -0.1469 -1.0348
 5157TIP3    H237107   2.192   2.522   7.795 -0.8929  0.6892 -0.6252
 5158TIP3   OH237108   2.745   4.437   2.624  0.6175 -0.2837  0.1075
 5158TIP3    H137109   2.679   4.500   2.593 -0.1937 -0.4481  1.4246
 5158TIP3    H237110   2.723   4.423   2.716 -0.0507 -3.5056 -0.4447
 5159TIP3   OH237111   3.523   3.998   1.255  0.8768 -0.0378 -0.0375
 5159TIP3    H137112   3.581   4.025   1.326  2.6729 -1.4912 -0.8632
 5159TIP3    H237113   3.515   3.903   1.265 -0.1213 -0.0595 -0.8548
 5160TIP3   OH237114   6.724   2.761   0.950  0.5254 -0.3603 -0.5371
 5160TIP3    H137115   6.777   2.838   0.973  2.1222 -1.3964 -0.5949
 5160TIP3    H237116   6.743   2.746   0.857  3.5271 -3.1559  0.3284
 5161TIP3   OH237117   2.282   3.050   1.514  0.2327 -0.3653  0.0960
 5161TIP3    H137118   2.292   2.956   1.503 -3.6461 -0.8183 -0.9518
 5161TIP3    H237119   2.207   3.059   1.574 -0.0296  2.0084 -0.4911
 5162TIP3   OH237120   1.096   4.489   0.522 -0.3385 -0.7630 -0.0148
 5162TIP3    H137121   1.049   4.561   0.480  2.0047  1.0751  0.2647
 5162TIP3    H237122   1.062   4.487   0.611  1.3600  1.9088  0.8101
 5163TIP3   OH237123   0.767   0.016   0.532  0.2003 -0.2148  0.2016
 5163TIP3    H137124   0.697  -0.024   0.584 -0.0537  0.1087  0.1075
 5163TIP3    H237125   0.823   0.059   0.596  1.2945 -1.9343  0.4658
 5164TIP3   OH237126   3.729   3.996   8.448 -0.2897  0.2304  0.4626
 5164TIP3    H137127   3.723   3.957   8.361 -1.3460  0.6566  0.3218
 5164TIP3    H237128   3.821   4.021   8.457 -0.3783  1.2899 -1.0544
 5165TIP3   OH237129   2.667   4.045   6.841 -0.3616  0.3250  0.2612
 5165TIP3    H137130   2.689   3.961   6.881 -0.4355  0.9727  1.7104
 5165TIP3    H237131   2.750   4.077   6.806 -0.1164  0.1506  0.6712
 5166TIP3   OH237132   3.076   2.876   0.543 -0.1258 -0.1178 -0.6398
 5166TIP3    H137133   3.050   2.924   0.622 -0.1094 -2.0831  0.6088
 5166TIP3    H237134   3.127   2.940   0.493 -0.0489  1.1639  0.9690
 5167TIP3   OH237135   0.683   6.473   7.168 -0.1953  0.0074  0.5121
 5167TIP3    H137136   0.682   6.399   7.109 -0.2193  0.1899  0.2835
 5167TIP3    H237137   0.684   6.550   7.111 -3.5215  0.2826  0.6427
 5168TIP3   OH237138   6.404   1.483   7.246  0.2556  0.0481 -0.2545
 5168TIP3    H137139   6.386   1.397   7.208  1.1559  0.3801 -1.4837
 5168TIP3    H237140   6.397   1.544   7.173 -2.2165  1.3249  0.9310
 5169TIP3   OH237141   0.476   5.088   0.984  0.3521 -0.1234  0.7289
 5169TIP3    H137142   0.383   5.110   0.986 -0.2778 -2.5925  2.2415
 5169TIP3    H237143   0.480   5.004   0.938  1.8544 -0.0140  0.6073
 5170TIP3   OH237144   0.687   1.943   1.242  0.1822  0.2484 -0.4690
 5170TIP3    H137145   0.643   1.997   1.307 -0.2256 -1.1133  0.4523
 5170TIP3    H237146   0.635   1.952   1.162  0.7751  2.0543 -0.6916
 5171TIP3   OH237147   3.818   4.606   7.206  0.0892  0.2769 -0.3781
 5171TIP3    H137148   3.875   4.652   7.145  2.1102 -1.8916 -0.2736
 5171TIP3    H237149   3.794   4.672   7.271  0.4033  1.8653 -1.8061
 5172TIP3   OH237150   5.509   2.150   7.053  0.0366 -0.2047 -0.3212
 5172TIP3    H137151   5.503   2.139   6.958  1.1807  1.0281 -0.5686
 5172TIP3    H237152   5.477   2.239   7.068  0.8556 -0.0138  0.3187
 5173TIP3   OH237153   2.065   1.032   0.848  0.1394 -0.3007 -0.3349
 5173TIP3    H137154   2.047   1.072   0.763  1.4147  0.7209 -0.1644
 5173TIP3    H237155   2.054   1.104   0.911  0.4285 -0.7268  0.2140
 5174TIP3   OH237156   0.976   5.030   8.244  0.0150 -0.4456  0.5160
 5174TIP3    H137157   0.953   5.112   8.200  1.5067 -0.7341 -0.8874
 5174TIP3    H237158   0.971   5.051   8.337  1.3772  1.5715  0.2096
 5175TIP3   OH237159   0.715   1.689   7.936 -0.5755 -0.4184  0.1007
 5175TIP3    H137160   0.714   1.624   8.005  1.2391 -1.0510 -0.4097
 5175TIP3    H237161   0.622   1.708   7.919 -1.0994  0.1949  3.0354
 5176TIP3   OH237162   3.709   5.418   2.477  0.8332 -0.2692 -0.0768
 5176TIP3    H137163   3.717   5.331   2.516  2.3896 -0.2489 -0.2833
 5176TIP3    H237164   3.794   5.434   2.436 -0.3432  0.1777 -2.5246
 5177TIP3   OH237165   6.466   4.952   0.270 -0.3262 -0.0669 -0.5888
 5177TIP3    H137166   6.414   5.017   0.223  1.2239  0.0155 -2.2529
 5177TIP3    H237167   6.494   4.890   0.203 -0.2472 -1.4433  0.6722
 5178TIP3   OH237168   0.694   3.453   0.408  0.3573  0.8637 -0.2533
 5178TIP3    H137169   0.757   3.449   0.479  0.6537  0.1611 -0.5490
 5178TIP3    H237170   0.718   3.532   0.359  0.0723  1.4181  0.4889
 5179TIP3   OH237171   4.191   3.230   0.342 -0.2706  0.0330 -0.1791
 5179TIP3    H137172   4.222   3.142   0.323  0.8328  0.1722  0.8241
 5179TIP3    H237173   4.161   3.226   0.433 -0.6727  0.5664 -0.2846
 5180TIP3   OH237174   2.906   4.417   0.485  0.0675 -0.1886 -0.0094
 5180TIP3    H137175   2.864   4.491   0.529 -0.3445 -0.2351 -0.3222
 5180TIP3    H237176   2.994   4.415   0.522  0.0998  0.4903 -0.0281
 5181TIP3   OH237177   0.666   1.260   8.690  0.2943  0.0431 -0.3619
 5181TIP3    H137178   0.671   1.304   8.605  1.0645  0.4687 -0.1115
 5181TIP3    H237179   0.733   1.192   8.685  1.8586  1.4216  0.6315
 5182TIP3   OH237180   1.508   5.044   8.059 -0.0860  0.1675 -0.0370
 5182TIP3    H137181   1.544   5.004   8.139 -0.4343  1.6213  0.8924
 5182TIP3    H237182   1.540   4.989   7.988 -0.2077 -1.4973  1.1323
 5183TIP3   OH237183   5.729   5.095   0.768  0.6431 -0.0393 -0.3091
 5183TIP3    H137184   5.768   5.008   0.768 -0.7887 -0.8548  2.9995
 5183TIP3    H237185   5.802   5.154   0.747  1.6392 -1.9584 -2.6599
 5184TIP3   OH237186   2.172   6.067   7.306  0.6089 -0.3215  0.1096
 5184TIP3    H137187   2.130   6.146   7.340 -0.5352 -1.1184  0.6374
 5184TIP3    H237188   2.120   6.044   7.228  0.3232 -1.0660  0.5061
 5185TIP3   OH237189   5.297   0.198   0.738  0.6898 -0.1063 -0.3377
 5185TIP3    H137190   5.248   0.254   0.678 -0.4507  0.8363  1.3866
 5185TIP3    H237191   5.242   0.121   0.749  1.4672 -0.8412 -1.3925
 5186TIP3   OH237192   2.489   3.896   1.419  0.4810  0.1992  0.4464
 5186TIP3    H137193   2.584   3.888   1.414  0.4315 -0.9412  0.8251
 5186TIP3    H237194   2.473   3.989   1.432  1.6308  0.2507  1.7612
 5187TIP3   OH237195   5.917   3.269   1.022  0.6699  1.1217 -0.7589
 5187TIP3    H137196   5.953   3.185   0.992 -0.2712 -0.0452  1.1611
 5187TIP3    H237197   5.908   3.258   1.116 -0.0613  3.1851 -0.5507
 5188TIP3   OH237198   5.141   0.592   8.054  0.8072 -0.0134 -0.1877
 5188TIP3    H137199   5.058   0.639   8.061  0.0238 -0.9567 -2.3514
 5188TIP3    H237200   5.123   0.505   8.090  0.4170 -0.6759 -1.9144
 5189TIP3   OH237201   5.339   2.388   7.138 -0.3774  0.2955  0.2494
 5189TIP3    H137202   5.389   2.425   7.211  0.0563  1.7426 -0.7365
 5189TIP3    H237203   5.273   2.333   7.179  1.4735 -1.0330  1.6410
 5190TIP3   OH237204   3.930   0.216   6.809 -0.4681 -0.3409 -0.3753
 5190TIP3    H137205   3.901   0.289   6.754  2.7200 -0.3244 -2.2970
 5190TIP3    H237206   3.969   0.258   6.886 -0.6762 -0.1230 -0.3869
 5191TIP3   OH237207   5.207   4.958   1.197 -0.3175  0.1428 -0.1039
 5191TIP3    H137208   5.170   5.044   1.177 -1.1032 -0.5173 -1.5708
 5191TIP3    H237209   5.297   4.963   1.166 -1.1419 -0.4289 -2.8200
 5192TIP3   OH237210   6.338   3.749   0.466 -0.0283  0.6515 -0.0718
 5192TIP3    H137211   6.385   3.665   0.473  0.5549  1.0306  0.7602
 5192TIP3    H237212   6.279   3.737   0.391  0.9676 -0.0512 -0.7767
 5193TIP3   OH237213   1.195   3.818   1.637  0.6554  0.3538 -0.6977
 5193TIP3    H137214   1.157   3.738   1.674 -1.1189  0.3051 -2.4405
 5193TIP3    H237215   1.166   3.888   1.696 -1.9073  0.2536 -1.6839
 5194TIP3   OH237216   0.688   3.033   1.344  0.2911 -0.3032 -0.2309
 5194TIP3    H137217   0.723   2.966   1.285  3.5631 -0.3775  1.5840
 5194TIP3    H237218   0.707   3.115   1.300  1.4545 -0.4144  0.0204
 5195TIP3   OH237219   6.735   0.268   7.806 -0.6893  0.0085  0.0644
 5195TIP3    H137220   6.726   0.245   7.713 -1.2501  0.8686 -0.0981
 5195TIP3    H237221   6.650   0.303   7.831 -0.7598 -0.8309  1.0959
 5196TIP3   OH237222   6.156   2.988   1.054 -0.1367  0.4609 -0.6158
 5196TIP3    H137223   6.200   3.072   1.041  0.3978  0.4707  1.0631
 5196TIP3    H237224   6.067   3.002   1.022 -0.0143  1.6287 -0.4730
 5197TIP3   OH237225   5.688   0.410   1.387  0.2670 -0.0461  0.4305
 5197TIP3    H137226   5.747   0.383   1.317  1.5354 -0.6219  1.6675
 5197TIP3    H237227   5.630   0.474   1.346  0.4545 -0.9332 -1.3250
 5198TIP3   OH237228   1.346   3.372   0.658  0.3633 -0.2629  0.6476
 5198TIP3    H137229   1.259   3.411   0.654  0.6352  0.2628 -1.1144
 5198TIP3    H237230   1.331   3.278   0.667 -0.4204 -0.2641 -0.4931
 5199TIP3   OH237231   3.734   5.184   7.321 -0.2197 -0.3299 -0.4420
 5199TIP3    H137232   3.803   5.129   7.284 -0.2076  1.5856 -3.6228
 5199TIP3    H237233   3.780   5.263   7.351 -0.7348 -0.2359  0.1169
 5200TIP3   OH237234   2.709   1.283   7.908  0.2818 -0.6143 -0.2566
 5200TIP3    H137235   2.660   1.217   7.958  0.5016 -0.7852 -0.2685
 5200TIP3    H237236   2.712   1.359   7.966  2.2666 -1.4499  0.8426
 5201TIP3   OH237237   1.159   4.593   7.269  0.0954 -0.3721  0.2591
 5201TIP3    H137238   1.184   4.587   7.177 -2.5437  0.1874 -0.5852
 5201TIP3    H237239   1.098   4.520   7.282 -2.4180  1.6256  0.4705
 5202TIP3   OH237240   3.817   2.603   8.632 -0.4203  0.3313 -0.6120
 5202TIP3    H137241   3.856   2.543   8.694 -1.4301  0.0692 -0.2172
 5202TIP3    H237242   3.744   2.555   8.594  0.2371  0.4429 -2.0945
 5203TIP3   OH237243   1.442   3.425   8.374 -0.1432  0.3927  0.0593
 5203TIP3    H137244   1.377   3.376   8.424 -0.5065 -1.3116 -1.9665
 5203TIP3    H237245   1.441   3.386   8.287  1.1582  2.5980 -1.0440
 5204TIP3   OH237246   4.640   2.320   7.265 -0.0906  0.4653  0.4147
 5204TIP3    H137247   4.671   2.239   7.305 -0.2291  0.8192  1.2579
 5204TIP3    H237248   4.556   2.297   7.225  1.1431 -0.4887 -1.8251
 5205TIP3   OH237249   6.076   5.308   8.290 -0.6878  0.0183 -0.3502
 5205TIP3    H137250   6.026   5.226   8.293  0.6249 -0.7911  2.0146
 5205TIP3    H237251   6.119   5.307   8.205 -1.6619 -1.1432 -0.8578
 5206TIP3   OH237252   2.107   5.451   7.002  0.3962 -0.3255  0.5311
 5206TIP3    H137253   2.045   5.430   7.073 -0.4743 -0.6721 -0.3104
 5206TIP3    H237254   2.185   5.400   7.023  0.3992  0.0952  1.6003
 5207TIP3   OH237255   6.371   4.083   0.354  0.9722  0.3742  0.0208
 5207TIP3    H137256   6.285   4.112   0.384  0.3676 -1.8486  0.6345
 5207TIP3    H237257   6.431   4.106   0.425 -0.0862 -2.8658  2.1830
 5208TIP3   OH237258   6.622   6.398   7.582 -0.1387 -0.1869  0.2467
 5208TIP3    H137259   6.696   6.459   7.584  1.5212 -2.1062  0.9965
 5208TIP3    H237260   6.570   6.421   7.659 -0.2061  1.0169 -0.1392
 5209TIP3   OH237261   4.574   5.720   0.530  0.3348  0.5833 -0.8528
 5209TIP3    H137262   4.507   5.781   0.500 -2.3451 -2.6993 -2.2776
 5209TIP3    H237263   4.629   5.705   0.452 -0.9867 -1.0586 -1.5389
 5210TIP3   OH237264   5.141   0.360   8.249 -0.4613  0.0135 -0.4634
 5210TIP3    H137265   5.077   0.331   8.184 -1.1500 -0.6802  0.5078
 5210TIP3    H237266   5.131   0.299   8.322  1.4144 -0.1987 -0.3369
 5211TIP3   OH237267   0.126   5.381   0.963  0.7326 -0.2342  0.3515
 5211TIP3    H137268   0.135   5.300   1.013 -0.2308 -1.7415 -1.7867
 5211TIP3    H237269   0.216   5.412   0.951  1.0758 -0.6470  1.6738
 5212TIP3   OH237270   2.258   0.051   7.770  0.1910 -0.0188  0.5690
 5212TIP3    H137271   2.167   0.070   7.750  0.6097  0.3954 -1.0162
 5212TIP3    H237272   2.300   0.136   7.778  0.5359 -0.2144  0.9272
 5213TIP3   OH237273   1.169   5.054   1.372 -0.2363  0.2511  0.3444
 5213TIP3    H137274   1.110   4.998   1.421  0.7359 -0.1707  1.0441
 5213TIP3    H237275   1.189   5.127   1.431  0.6961 -0.1016  0.4783
 5214TIP3   OH237276   6.564   3.707   7.001 -0.1871 -0.4429 -0.3046
 5214TIP3    H137277   6.637   3.693   6.940  0.7081 -0.8863  0.8415
 5214TIP3    H237278   6.578   3.642   7.070 -2.9614 -2.1492 -1.1956
 5215TIP3   OH237279   5.790   4.459   1.626 -0.2872 -0.5607  0.3999
 5215TIP3    H137280   5.863   4.501   1.672 -0.0212  0.7449 -1.1230
 5215TIP3    H237281   5.789   4.369   1.659  0.4968  0.0579  2.1834
 5216TIP3   OH237282   2.921   1.834   8.303 -0.2253  0.2337  0.5289
 5216TIP3    H137283   2.978   1.903   8.268  0.8805 -1.4211 -1.0460
 5216TIP3    H237284   2.974   1.792   8.371 -0.6291  0.4222  0.9708
 5217TIP3   OH237285   6.366   0.403   8.503 -0.1861  0.7117 -0.5843
 5217TIP3    H137286   6.384   0.468   8.571 -2.3333  0.7812 -0.0202
 5217TIP3    H237287   6.349   0.322   8.550  0.0439  0.3271 -1.1456
 5218TIP3   OH237288   1.706   3.042   2.137 -0.1352  0.6226 -0.0499
 5218TIP3    H137289   1.665   3.010   2.217  0.0546 -0.0688 -0.2215
 5218TIP3    H237290   1.702   2.968   2.077 -0.8532  1.3384 -0.9086
 5219TIP3   OH237291   6.040   3.226   0.371 -0.4991  0.0863  0.4607
 5219TIP3    H137292   6.115   3.199   0.318  0.2120  1.4055  0.7647
 5219TIP3    H237293   5.964   3.199   0.320  0.1780 -0.3232 -0.3548
 5220TIP3   OH237294   3.338   3.342   0.705 -0.3747 -0.2752  0.7839
 5220TIP3    H137295   3.283   3.377   0.775 -1.4625  0.7039 -0.5114
 5220TIP3    H237296   3.425   3.376   0.724 -0.6822  0.1083  1.5769
 5221TIP3   OH237297   6.077   0.424   0.937 -0.0753  0.0737  0.0287
 5221TIP3    H137298   6.091   0.369   1.014  1.4500  1.3866  0.7460
 5221TIP3    H237299   6.101   0.368   0.863  0.0027 -0.6974  0.6187
 5222TIP3   OH237300   3.617   5.199   0.514 -0.2517 -0.4229  0.0172
 5222TIP3    H137301   3.706   5.179   0.484  0.3530  0.4051  1.1576
 5222TIP3    H237302   3.594   5.125   0.571 -0.1718 -0.4874 -0.0335
 5223TIP3   OH237303   3.539   4.314   0.419  0.2752 -0.5119  0.3282
 5223TIP3    H137304   3.528   4.389   0.360  2.1014 -0.9528 -0.6521
 5223TIP3    H237305   3.614   4.337   0.473  2.3925 -2.4879 -1.5475
 5224TIP3   OH237306   5.513   1.310   0.994  0.7806  0.7540  0.2506
 5224TIP3    H137307   5.480   1.324   0.905 -0.0367  1.0896  0.6007
 5224TIP3    H237308   5.449   1.253   1.035  0.7567  1.2185  0.8684
 5225TIP3   OH237309   2.942   2.302   0.240 -0.0381  0.2322  0.0665
 5225TIP3    H137310   2.915   2.387   0.204  3.2957  0.9642 -1.0495
 5225TIP3    H237311   2.900   2.237   0.183  0.1856  1.2517 -1.3112
 5226TIP3   OH237312   3.565   1.326   7.619 -0.0102 -0.4219  0.5682
 5226TIP3    H137313   3.569   1.421   7.632 -1.9957 -0.1215 -0.6176
 5226TIP3    H237314   3.638   1.292   7.671  1.1973  1.7948  0.4606
 5227TIP3   OH237315   1.095   0.549   8.775  0.2358  0.2034  0.3142
 5227TIP3    H137316   1.125   0.624   8.723  0.9832  0.6712  1.3977
 5227TIP3    H237317   1.008   0.574   8.805 -0.3244 -0.1908 -0.9313
 5228TIP3   OH237318   3.740   6.161   1.353  0.4910 -0.3650 -0.5523
 5228TIP3    H137319   3.737   6.243   1.402  0.7709 -0.6132 -0.1198
 5228TIP3    H237320   3.729   6.188   1.262  0.4561  0.1415 -0.4019
 5229TIP3   OH237321   5.661   3.248   7.403 -0.2178  0.3053  0.3432
 5229TIP3    H137322   5.741   3.285   7.366 -0.1492  0.4236  0.6020
 5229TIP3    H237323   5.593   3.269   7.340  0.1212 -0.6813 -0.3757
 5230TIP3   OH237324   0.620   3.760   0.816  0.1244  0.2800  0.2440
 5230TIP3    H137325   0.666   3.722   0.891  1.6483  1.5771  0.0135
 5230TIP3    H237326   0.595   3.848   0.844  2.1375  1.4066 -1.2173
 5231TIP3   OH237327   0.831   4.721   8.557 -0.1585  0.0849 -0.8120
 5231TIP3    H137328   0.881   4.796   8.592 -1.1142  0.8572 -1.0583
 5231TIP3    H237329   0.898   4.661   8.524  0.6545  0.5305 -0.0055
 5232TIP3   OH237330   4.051   1.092   8.819 -0.0842  0.0054 -0.4776
 5232TIP3    H137331   4.083   1.039   8.892 -0.0893 -0.1598 -0.5946
 5232TIP3    H237332   4.063   1.036   8.742 -0.5768 -0.0284 -0.5335
 5233TIP3   OH237333   2.301   6.400   6.366  0.0791 -0.1119 -0.8297
 5233TIP3    H137334   2.208   6.423   6.371 -0.3915 -1.9470 -0.4380
 5233TIP3    H237335   2.337   6.459   6.300 -1.4923  0.2751 -1.3698
 5234TIP3   OH237336   3.983   4.741   0.137 -0.1304 -0.0044  0.3199
 5234TIP3    H137337   3.888   4.734   0.146 -0.2562  2.1224  1.5165
 5234TIP3    H237338   4.017   4.667   0.187 -1.0935 -2.3705 -2.2977
 5235TIP3   OH237339   6.431   1.909   0.374 -0.4733 -0.5028 -0.2950
 5235TIP3    H137340   6.444   1.882   0.283  2.0942  0.2594 -0.2415
 5235TIP3    H237341   6.416   1.827   0.421 -0.2682 -1.0653 -1.1907
 5236TIP3   OH237342   5.986   0.121   8.208 -0.2299 -0.2351  0.2611
 5236TIP3    H137343   6.060   0.062   8.221  1.6107  1.5766 -1.4868
 5236TIP3    H237344   5.993   0.150   8.117 -2.0002  1.4571  0.5946
 5237TIP3   OH237345   3.227   1.954   1.473  0.4350  0.1832 -0.3602
 5237TIP3    H137346   3.198   1.863   1.480  2.2688 -0.3450  1.6723
 5237TIP3    H237347   3.214   1.977   1.381 -0.1989 -2.0833 -0.8994
 5238TIP3   OH237348   1.784   2.514   2.089 -0.5964  0.0524  0.6934
 5238TIP3    H137349   1.842   2.471   2.027 -1.6984 -1.3926  0.5928
 5238TIP3    H237350   1.729   2.443   2.123 -0.7047  0.9678  2.5600
 5239TIP3   OH237351   2.831   4.711   0.444  0.5082  0.0932  0.1962
 5239TIP3    H137352   2.899   4.693   0.379 -0.0384  0.2109 -0.4182
 5239TIP3    H237353   2.759   4.748   0.394 -0.8192 -1.9178  0.5405
 5240TIP3   OH237354   4.709   6.239   1.205  0.6677 -0.5128 -0.1843
 5240TIP3    H137355   4.705   6.284   1.289 -0.4148  1.4990 -1.2339
 5240TIP3    H237356   4.642   6.172   1.211  0.6360 -0.4241  0.5794
 5241TIP3   OH237357   6.497   3.558   1.012  0.2034  0.1951 -0.2688
 5241TIP3    H137358   6.542   3.485   0.972 -0.1221  0.1219 -0.5090
 5241TIP3    H237359   6.524   3.635   0.961 -1.2223 -0.0678 -1.5048
 5242TIP3   OH237360   0.470   5.225   1.294  0.4961  0.6175  0.3791
 5242TIP3    H137361   0.497   5.279   1.220 -0.2348 -2.3813 -2.2714
 5242TIP3    H237362   0.432   5.288   1.357 -0.2937  3.1817 -2.4172
 5243TIP3   OH237363   2.961   6.343   8.437  0.6109  0.1446  0.0125
 5243TIP3    H137364   2.876   6.307   8.409  0.2154 -0.8362  2.2573
 5243TIP3    H237365   2.985   6.290   8.513  1.4871  2.7110  1.6363
 5244TIP3   OH237366   6.129   0.190   0.519  0.7384 -0.5165  0.2553
 5244TIP3    H137367   6.109   0.259   0.582  1.7164 -0.9573  1.0817
 5244TIP3    H237368   6.081   0.215   0.440  1.4865  1.3886  0.3531
 5245TIP3   OH237369   4.482   6.572   1.169 -0.4211 -0.7557 -0.4975
 5245TIP3    H137370   4.485   6.541   1.078  0.8727 -1.8271 -0.1270
 5245TIP3    H237371   4.560   6.534   1.209 -0.3009  0.7256  0.7487
 5246TIP3   OH237372   0.170   6.132   1.531 -1.0373 -0.5311  0.0090
 5246TIP3    H137373   0.243   6.110   1.473  0.3513  0.4322  1.3116
 5246TIP3    H237374   0.132   6.047   1.555 -0.8980 -1.0010 -1.3320
 5247TIP3   OH237375   1.577   1.767   6.860 -0.1849 -0.1371 -0.1294
 5247TIP3    H137376   1.487   1.759   6.829 -0.4863 -0.5481  0.8370
 5247TIP3    H237377   1.582   1.711   6.937  0.8245  0.0960 -0.0051
 5248TIP3   OH237378   4.815   2.238   1.066  0.2326  0.0242 -0.1424
 5248TIP3    H137379   4.803   2.174   1.136  0.1456  1.2190  0.9745
 5248TIP3    H237380   4.902   2.275   1.082  0.3576  0.0795 -0.8879
 5249TIP3   OH237381   0.149   0.492   1.702 -0.1871 -0.0402  0.2309
 5249TIP3    H137382   0.103   0.527   1.626 -1.6076  1.7326  1.8250
 5249TIP3    H237383   0.209   0.562   1.728  0.2651 -0.6133  0.7764
 5250TIP3   OH237384   0.029   4.412   7.827  0.4010  0.0879  0.9439
 5250TIP3    H137385   0.085   4.471   7.776  1.9305  0.0398  2.4347
 5250TIP3    H237386  -0.012   4.469   7.892  0.6303 -0.2432  1.3840
 5251TIP3   OH237387   0.618   0.001   1.827 -0.2671  0.3005  0.2447
 5251TIP3    H137388   0.688   0.046   1.875  0.1712  0.2546 -0.3453
 5251TIP3    H237389   0.552   0.069   1.812  0.8190  1.0264 -1.4852
 5252TIP3   OH237390   2.056   4.293   0.356  0.1472 -0.4219 -0.1336
 5252TIP3    H137391   2.149   4.293   0.335  0.4112  0.1655  0.9454
 5252TIP3    H237392   2.014   4.252   0.280  1.2292 -0.2864 -0.8279
 5253TIP3   OH237393   1.495   5.710   0.660  0.3553 -0.2857 -0.4669
 5253TIP3    H137394   1.404   5.712   0.630 -0.0537 -0.1280  0.7195
 5253TIP3    H237395   1.536   5.640   0.608 -1.0042 -1.8672  0.4901
 5254TIP3   OH237396   5.969   4.040   7.297 -0.1648 -0.3148  0.4299
 5254TIP3    H137397   5.935   4.121   7.335  0.7428  1.0463 -1.4822
 5254TIP3    H237398   5.916   4.026   7.219 -0.9850 -2.2006  1.2581
 5255TIP3   OH237399   1.100   0.669   0.626 -0.0918  0.3334 -0.1306
 5255TIP3    H137400   1.032   0.601   0.633  1.1784 -0.8805  1.3494
 5255TIP3    H237401   1.136   0.675   0.714  0.0018  2.8390 -0.2793
 5256TIP3   OH237402   0.540   4.045   1.500 -0.3697 -0.2397  0.1678
 5256TIP3    H137403   0.611   4.110   1.498  0.0482 -0.6994 -0.3730
 5256TIP3    H237404   0.506   4.049   1.589  0.2535  0.0815  0.3992
 5257TIP3   OH237405   2.565   3.526   0.299  0.1535  0.5552  1.0755
 5257TIP3    H137406   2.635   3.529   0.364  1.0531  2.1638  0.0850
 5257TIP3    H237407   2.567   3.612   0.257 -0.0328 -0.5701 -1.4151
 5258TIP3   OH237408   6.146   0.006   0.950 -0.4715  0.1030  0.4334
 5258TIP3    H137409   6.135  -0.037   0.865 -1.0687 -0.0041  0.5649
 5258TIP3    H237410   6.086   0.080   0.948 -2.5799 -1.4820  1.8151
 5259TIP3   OH237411   6.655   3.653   8.072 -0.3307 -0.1165 -0.1168
 5259TIP3    H137412   6.679   3.666   7.980 -0.6769 -0.3820 -0.2466
 5259TIP3    H237413   6.562   3.675   8.076 -0.4587 -0.6729  0.0509
 5260TIP3   OH237414   3.715   1.293   6.973 -0.2340 -0.1212  0.1335
 5260TIP3    H137415   3.673   1.313   7.057  1.4594  0.1476  0.9463
 5260TIP3    H237416   3.642   1.276   6.913 -1.4904 -1.9471  2.0330
 5261TIP3   OH237417   2.735   5.114   0.048  0.0912  0.2721 -0.1352
 5261TIP3    H137418   2.727   5.103   0.142  1.3668 -1.0600 -0.1391
 5261TIP3    H237419   2.645   5.107   0.015 -0.7095  3.2059  1.1349
 5262TIP3   OH237420   4.739   2.328   0.808 -0.3654  0.3518  0.8373
 5262TIP3    H137421   4.762   2.313   0.900  0.8331  1.6023  0.7891
 5262TIP3    H237422   4.663   2.386   0.811 -0.9189 -0.3796  1.0305
 5263TIP3   OH237423   0.956   5.783   0.468 -0.0160 -0.2704 -0.6490
 5263TIP3    H137424   0.869   5.775   0.429 -1.2877 -0.1379  1.9333
 5263TIP3    H237425   0.988   5.867   0.436 -2.4988  1.5456  1.2089
 5264TIP3   OH237426   6.541   6.382   0.691  0.0480 -0.2651  0.4637
 5264TIP3    H137427   6.549   6.474   0.664  0.9610 -0.7552 -1.0945
 5264TIP3    H237428   6.453   6.357   0.666  0.3593 -0.2615 -0.6984
 5265TIP3   OH237429   4.943   6.334   8.524 -0.3689 -0.1761 -0.2160
 5265TIP3    H137430   5.017   6.275   8.536  1.1959  2.0854  2.5642
 5265TIP3    H237431   4.880   6.309   8.591 -0.8386 -0.2093 -0.6550
 5266TIP3   OH237432   1.726   0.466   1.936 -0.5258  0.0823 -0.0351
 5266TIP3    H137433   1.637   0.438   1.913 -0.7195  0.7393 -0.0949
 5266TIP3    H237434   1.725   0.560   1.924  0.4828 -0.0176 -1.0188
 5267TIP3   OH237435   5.435   0.314   1.492 -0.0174 -0.7980 -0.0169
 5267TIP3    H137436   5.522   0.312   1.453  0.8158 -1.9934  1.8005
 5267TIP3    H237437   5.375   0.310   1.417  1.4401  0.5727 -1.3276
 5268TIP3   OH237438   1.944   3.125   8.717 -1.0044  0.1329 -0.1442
 5268TIP3    H137439   1.976   3.211   8.691 -2.8301  0.3362 -1.9462
 5268TIP3    H237440   1.890   3.096   8.644 -2.1216 -1.6536  1.2958
 5269TIP3   OH237441   4.929   4.459   0.967  0.4935  0.0898  0.3174
 5269TIP3    H137442   4.848   4.489   0.924  1.2341  1.0664 -0.4341
 5269TIP3    H237443   4.953   4.379   0.920  0.3708  0.2072  0.0533
 5270TIP3   OH237444   1.046   0.728   2.495 -0.3199  0.4613 -0.1633
 5270TIP3    H137445   1.104   0.659   2.527  1.0075  1.3070 -0.6797
 5270TIP3    H237446   1.042   0.792   2.566  2.6546  2.3554 -1.4919
 5271TIP3   OH237447   3.681   0.910   6.692 -0.4263 -0.0425  0.0427
 5271TIP3    H137448   3.670   1.004   6.678 -1.2484 -0.2945 -1.1214
 5271TIP3    H237449   3.650   0.895   6.781  2.3653  1.1924  1.3424
 5272TIP3   OH237450   0.123   0.810   1.028 -0.3144 -0.3362 -0.2592
 5272TIP3    H137451   0.165   0.751   0.966 -1.1760 -1.1952 -0.0350
 5272TIP3    H237452   0.054   0.853   0.978  0.1209  0.2764 -0.3443
 5273TIP3   OH237453   3.467   1.641   6.313 -0.2726 -0.1033  0.6320
 5273TIP3    H137454   3.511   1.726   6.315  3.5413 -1.9057  2.4055
 5273TIP3    H237455   3.502   1.598   6.235  0.7773 -1.3732  1.7689
 5274TIP3   OH237456   1.255   6.323   8.871  0.4844 -0.2942 -1.2605
 5274TIP3    H137457   1.173   6.374   8.867  1.4781  1.3007 -2.5152
 5274TIP3    H237458   1.228   6.233   8.857 -1.3901 -0.2634  1.3077
 5275TIP3   OH237459   6.600   0.992   0.021 -0.3809 -0.0372  0.3330
 5275TIP3    H137460   6.534   1.006   0.089 -0.6531  1.5541 -0.2130
 5275TIP3    H237461   6.558   1.022  -0.060  0.7272  0.2744 -0.1507
 5276TIP3   OH237462   3.416   4.699   0.622 -0.3606 -0.0695  0.2673
 5276TIP3    H137463   3.377   4.633   0.565  0.8187 -0.3925 -0.1827
 5276TIP3    H237464   3.391   4.673   0.711  0.5850 -1.4679  0.1421
 5277TIP3   OH237465   3.205   3.786   1.345  0.4025 -0.1635 -0.2253
 5277TIP3    H137466   3.296   3.760   1.335  1.3713  2.4226  1.0430
 5277TIP3    H237467   3.167   3.774   1.257  1.8437 -1.5764 -0.6926
 5278TIP3   OH237468   3.276   4.160   7.556  0.0585  0.2554 -0.4203
 5278TIP3    H137469   3.313   4.229   7.500  1.9532 -0.4876 -0.1680
 5278TIP3    H237470   3.343   4.146   7.623 -1.1624 -0.4880  0.6770
 5279TIP3   OH237471   6.806   5.256   0.585  0.1994  0.7477  0.4242
 5279TIP3    H137472   6.781   5.165   0.601 -0.2176  0.7415 -0.2633
 5279TIP3    H237473   6.735   5.308   0.623  0.9972  0.8298  1.8683
 5280TIP3   OH237474   2.791   5.230   7.225  0.4917  0.4442 -0.2201
 5280TIP3    H137475   2.845   5.160   7.188  0.3787  1.0462 -1.5808
 5280TIP3    H237476   2.776   5.203   7.316 -0.6816 -2.0063 -1.0398
 5281TIP3   OH237477   5.850   1.747   8.638  0.3591  0.4331  0.1412
 5281TIP3    H137478   5.881   1.809   8.704  1.6158 -0.0050  0.0073
 5281TIP3    H237479   5.926   1.691   8.621  0.3042  0.9584 -2.1775
 5282TIP3   OH237480   4.505   1.869   1.482  0.4446  0.1750  0.5091
 5282TIP3    H137481   4.448   1.804   1.522  0.6738 -1.8849 -2.2436
 5282TIP3    H237482   4.594   1.841   1.505  0.6519 -1.7908 -2.2314
 5283TIP3   OH237483   2.369   2.913   1.081 -0.0085 -0.5656  0.2446
 5283TIP3    H137484   2.363   3.007   1.065 -3.7774 -1.2099 -4.0458
 5283TIP3    H237485   2.363   2.904   1.176 -1.9564  3.4592  0.6987
 5284TIP3   OH237486   1.682   4.503   1.410  0.5636  0.0442  0.0825
 5284TIP3    H137487   1.695   4.484   1.317 -0.6261  1.5390 -0.4362
 5284TIP3    H237488   1.739   4.441   1.456  2.0051 -0.0102 -1.6683
 5285TIP3   OH237489   1.556   2.586   8.283 -0.1837  0.4318  0.0081
 5285TIP3    H137490   1.606   2.658   8.245 -0.6664  0.9819  0.3970
 5285TIP3    H237491   1.477   2.627   8.317  0.5498  0.0896  2.2650
 5286TIP3   OH237492   1.481   5.990   1.409  0.2580  0.1790 -0.6102
 5286TIP3    H137493   1.577   5.993   1.419  0.2095  1.3383 -0.3198
 5286TIP3    H237494   1.463   6.051   1.337 -0.2435 -0.3322 -0.9277
 5287TIP3   OH237495   6.036   5.175   1.588  0.1646  0.1263  0.3239
 5287TIP3    H137496   5.979   5.198   1.660 -0.5855  0.6247 -0.4085
 5287TIP3    H237497   6.109   5.237   1.594  0.1180  0.1497  0.6592
 5288TIP3   OH237498   1.117   5.836   8.731  0.0725 -0.2532  0.1757
 5288TIP3    H137499   1.156   5.756   8.695  0.9888  0.5620 -0.7133
 5288TIP3    H237500   1.077   5.879   8.655  0.4175  0.5872  0.4587
 5289TIP3   OH237501   4.815   1.154   7.906  0.1628 -0.3798  0.1519
 5289TIP3    H137502   4.845   1.066   7.932 -0.7045 -0.9145 -0.5945
 5289TIP3    H237503   4.788   1.195   7.988  1.3943 -0.4699  0.6301
 5290TIP3   OH237504   3.076   3.473   0.101  0.5471  0.1187 -0.1438
 5290TIP3    H137505   3.092   3.552   0.152 -0.2077 -0.4156  0.9538
 5290TIP3    H237506   3.061   3.405   0.166  1.3748 -0.9855 -1.0683
 5291TIP3   OH237507   1.228   0.150   0.555  0.4674 -0.2169  0.0478
 5291TIP3    H137508   1.301   0.178   0.610  1.1031 -1.2851 -0.2228
 5291TIP3    H237509   1.251   0.062   0.527 -0.3824 -0.1365 -0.9972
 5292TIP3   OH237510   1.944   0.072   0.173  0.2038 -0.0590  0.3377
 5292TIP3    H137511   1.948   0.018   0.094 -3.5840  0.1836 -0.2288
 5292TIP3    H237512   1.899   0.017   0.237  1.6587  0.3792  1.7976
 5293TIP3   OH237513   4.504   2.086   6.574 -0.0672 -0.3928 -0.5602
 5293TIP3    H137514   4.484   2.003   6.531  3.0195 -0.7108 -1.6206
 5293TIP3    H237515   4.597   2.101   6.556 -0.0489  2.3756  1.2020
 5294TIP3   OH237516   4.444   5.718   7.686 -0.1032  0.3965  0.0302
 5294TIP3    H137517   4.536   5.730   7.707  0.2908  1.7634 -2.1508
 5294TIP3    H237518   4.436   5.626   7.663  1.3565  0.7683 -2.2593
 5295TIP3   OH237519   4.921   3.202   8.618 -0.8098  0.5488  0.2701
 5295TIP3    H137520   4.997   3.257   8.639 -0.3215  0.6124 -1.4819
 5295TIP3    H237521   4.944   3.115   8.652  0.1853  0.5027 -0.4742
 5296TIP3   OH237522   0.989   3.465   6.922  0.1514  0.0664 -0.3094
 5296TIP3    H137523   1.075   3.494   6.953  0.7193 -1.4383 -0.3822
 5296TIP3    H237524   1.005   3.376   6.889 -1.3724 -0.1047 -0.6306
 5297TIP3   OH237525   3.730   6.092   1.700  0.4089  0.2320  0.1857
 5297TIP3    H137526   3.772   6.027   1.644 -0.5733 -1.6749  1.5658
 5297TIP3    H237527   3.638   6.089   1.676  0.2852  0.8005  0.5717
 5298TIP3   OH237528   6.461   0.532   1.912 -0.1624 -0.6400 -0.3165
 5298TIP3    H137529   6.545   0.489   1.897  0.7897  0.4865  1.4526
 5298TIP3    H237530   6.474   0.622   1.884  0.8846  0.8548  4.1487
 5299TIP3   OH237531   6.033   1.385   7.235  0.3181 -0.3793  0.1547
 5299TIP3    H137532   6.085   1.416   7.161  2.0297 -0.8603  1.1185
 5299TIP3    H237533   5.955   1.441   7.234 -0.2408 -1.0899 -2.6340
 5300TIP3   OH237534   6.159   1.062   1.905  0.1793 -0.1590 -0.4226
 5300TIP3    H137535   6.139   1.129   1.840 -2.0986 -1.0535 -0.7608
 5300TIP3    H237536   6.104   0.987   1.879  1.7234 -1.7337  0.6200
 5301TIP3   OH237537   4.621   1.820   8.761  0.0007 -0.1876  0.0210
 5301TIP3    H137538   4.647   1.730   8.742  1.2432  0.0574  0.4825
 5301TIP3    H237539   4.554   1.812   8.828 -0.2954 -0.7850 -0.3365
 5302TIP3   OH237540   1.681   5.154   7.354  0.4055 -0.5614  0.4602
 5302TIP3    H137541   1.617   5.181   7.420  1.5903  0.7551  1.1384
 5302TIP3    H237542   1.758   5.129   7.405  0.1801 -3.0252 -0.2888
 5303TIP3   OH237543   1.436   0.585   0.293 -0.4662 -0.1335 -0.1384
 5303TIP3    H137544   1.407   0.554   0.207 -0.8383  1.4882 -0.6338
 5303TIP3    H237545   1.363   0.639   0.325  0.6660  1.3366  0.0542
 5304TIP3   OH237546   1.310   5.460   7.508 -0.8667  0.3692  0.3202
 5304TIP3    H137547   1.363   5.491   7.581  0.4552 -0.3608 -0.2978
 5304TIP3    H237548   1.313   5.530   7.443 -0.6929  0.3455  0.3035
 5305TIP3   OH237549   0.047   1.842   1.745  0.6208  0.3685 -0.0905
 5305TIP3    H137550   0.092   1.761   1.722  2.6620  1.4008  0.1354
 5305TIP3    H237551   0.112   1.911   1.733 -1.6487  2.2959 -2.3470
 5306TIP3   OH237552   3.040   6.783   7.362  0.1305 -0.0792 -0.0964
 5306TIP3    H137553   3.049   6.720   7.289  2.4591  0.7093 -0.5703
 5306TIP3    H237554   2.995   6.858   7.323  0.8126  0.0909 -0.5626
 5307TIP3   OH237555   6.574   5.393   8.319 -0.1970  0.3636  0.2486
 5307TIP3    H137556   6.593   5.467   8.261  0.7931  0.0234  0.1224
 5307TIP3    H237557   6.655   5.379   8.368  0.5284 -2.1541 -1.4399
 5308TIP3   OH237558   5.737   5.976   7.248  0.5542 -0.0635 -0.0467
 5308TIP3    H137559   5.804   5.933   7.195  1.4317  0.4144  0.6415
 5308TIP3    H237560   5.693   6.036   7.188  1.1643  0.0715 -0.3642
 5309TIP3   OH237561   6.454   1.491   1.202 -0.0098  0.3264 -0.5749
 5309TIP3    H137562   6.465   1.396   1.214  1.0137  0.5564  0.5526
 5309TIP3    H237563   6.382   1.499   1.140  0.0947 -1.1981 -0.9417
 5310TIP3   OH237564   4.778   1.497   7.212 -0.1762  0.8008  0.3734
 5310TIP3    H137565   4.759   1.405   7.230 -0.7725  1.1919  1.9069
 5310TIP3    H237566   4.792   1.501   7.118  1.7800 -1.1802  0.5110
 5311TIP3   OH237567   4.987   0.535   6.858 -0.3308 -0.2071 -0.3925
 5311TIP3    H137568   4.982   0.630   6.853 -0.8084 -0.2495 -0.8503
 5311TIP3    H237569   5.081   0.515   6.862 -0.2574  0.3496  1.3624
 5312TIP3   OH237570   3.284   6.067   8.276 -0.5184  0.0399  0.0821
 5312TIP3    H137571   3.379   6.056   8.276 -0.7168 -2.3038  1.1972
 5312TIP3    H237572   3.269   6.148   8.325  0.8809  0.4574 -0.1336
 5313TIP3   OH237573   0.917   1.629   0.778 -0.2781 -0.3101  0.0845
 5313TIP3    H137574   0.832   1.671   0.790  0.4030  1.4737 -0.9205
 5313TIP3    H237575   0.977   1.683   0.830  0.6749  0.1864 -1.4693
 5314TIP3   OH237576   3.961   5.091   0.221  0.4622  0.7790  0.3505
 5314TIP3    H137577   4.025   5.034   0.264  1.2550  1.5297  0.2116
 5314TIP3    H237578   3.876   5.060   0.252  0.7726 -1.3306 -0.7496
 5315TIP3   OH237579   4.740   5.109   0.146 -0.4046  0.2651 -0.4432
 5315TIP3    H137580   4.785   5.073   0.069 -0.1555 -0.9460  0.2413
 5315TIP3    H237581   4.648   5.114   0.120 -0.5277 -1.3385 -0.4343
 5316TIP3   OH237582   1.998   0.357   7.393  0.3309  0.0157  0.4052
 5316TIP3    H137583   1.917   0.339   7.442  0.7825 -0.1197  1.1189
 5316TIP3    H237584   2.020   0.273   7.353  1.5009 -0.6525  2.3275
 5317TIP3   OH237585   6.694   3.920   7.483  0.1335 -0.0299  0.1363
 5317TIP3    H137586   6.684   3.825   7.482  0.0176 -0.0239 -1.4800
 5317TIP3    H237587   6.757   3.937   7.554 -0.1222 -1.2619  0.6790
 5318TIP3   OH237588   1.396   1.043   2.038  0.4206 -0.3465 -0.5849
 5318TIP3    H137589   1.336   1.096   2.091 -0.1278 -1.0925 -0.4498
 5318TIP3    H237590   1.443   1.107   1.984  1.6382  0.5408  1.3898
 5319TIP3   OH237591   2.733   5.252   8.583  0.4045  0.2592  0.1584
 5319TIP3    H137592   2.638   5.246   8.588  0.4456  0.3969  1.1580
 5319TIP3    H237593   2.749   5.316   8.513 -0.2438  0.9140  0.6018
 5320TIP3   OH237594   1.140   5.488   8.865 -0.6291  0.5210 -0.5398
 5320TIP3    H137595   1.122   5.541   8.787  2.6717  0.9549 -1.1547
 5320TIP3    H237596   1.195   5.543   8.920  1.8930 -1.6834 -0.6303
 5321TIP3   OH237597   1.296   3.513   0.370 -0.0125  0.2192  0.0920
 5321TIP3    H137598   1.282   3.607   0.362  1.2087  0.3644 -0.5124
 5321TIP3    H237599   1.225   3.474   0.319  0.8094  0.8838 -1.6451
 5322TIP3   OH237600   1.234   5.131   6.424  0.8564 -0.2011 -0.3962
 5322TIP3    H137601   1.319   5.131   6.380  0.6661  0.7991 -0.7737
 5322TIP3    H237602   1.253   5.097   6.512  1.5105 -0.6729 -0.7138
 5323TIP3   OH237603   0.691   1.030   0.257  0.4998 -0.2602 -0.1219
 5323TIP3    H137604   0.728   0.943   0.247  2.5746  0.5710 -0.1981
 5323TIP3    H237605   0.666   1.056   0.168  2.1237  0.1189 -0.4988
 5324TIP3   OH237606   0.552   2.336   1.339 -0.4867 -0.5898 -0.1903
 5324TIP3    H137607   0.592   2.388   1.269  0.8805 -1.8456 -0.3891
 5324TIP3    H237608   0.471   2.382   1.360  0.7116  1.7078 -0.2465
 5325TIP3   OH237609   3.629   3.302   0.114 -0.0714 -0.0233 -0.2767
 5325TIP3    H137610   3.603   3.376   0.170  0.6877  1.0946 -1.3397
 5325TIP3    H237611   3.547   3.261   0.089 -0.5734  0.9703 -0.3235
 5326TIP3   OH237612   3.507   3.226   2.062 -0.0544  0.1098 -0.6088
 5326TIP3    H137613   3.582   3.174   2.033 -0.3482 -0.7308  0.0922
 5326TIP3    H237614   3.543   3.285   2.128  0.0174 -0.2526 -0.3170
 5327TIP3   OH237615   1.207   3.561   0.835 -0.1295 -0.1299  0.1575
 5327TIP3    H137616   1.243   3.520   0.913  0.6060 -0.4160 -0.3194
 5327TIP3    H237617   1.139   3.501   0.805  0.0094 -0.3244  0.2319
 5328TIP3   OH237618   2.278   2.902   8.796 -0.2418 -0.4591  0.0407
 5328TIP3    H137619   2.216   2.967   8.830  0.4817  0.2833 -0.0433
 5328TIP3    H237620   2.352   2.953   8.764  0.1350 -1.3001 -0.4668
 5329TIP3   OH237621   5.971   3.660   7.592 -0.2888  0.4588  0.2334
 5329TIP3    H137622   5.892   3.651   7.539  0.4956 -0.3926 -0.8411
 5329TIP3    H237623   6.040   3.619   7.540  0.8176  0.9392  1.2611
 5330TIP3   OH237624   2.521   2.779   7.279 -0.1119  0.0416  0.2654
 5330TIP3    H137625   2.454   2.754   7.215 -0.4755  2.1068 -0.2517
 5330TIP3    H237626   2.602   2.784   7.227 -0.1938  0.6411  0.1871
 5331TIP3   OH237627   0.760   4.044   0.273  0.2095 -0.4288 -0.1725
 5331TIP3    H137628   0.668   4.067   0.288 -0.4369 -1.9104 -1.5068
 5331TIP3    H237629   0.789   4.005   0.355 -1.1348 -2.1456 -0.4539
 5332TIP3   OH237630   4.127   0.130   8.433 -0.2938  0.3482  0.8322
 5332TIP3    H137631   4.124   0.070   8.508  0.8445 -1.6217 -0.6109
 5332TIP3    H237632   4.204   0.185   8.449  0.2460 -0.4105  0.8622
 5333TIP3   OH237633   2.701   5.781   8.805  0.1734 -0.2628 -0.7741
 5333TIP3    H137634   2.661   5.733   8.733 -2.0580  1.4077 -0.7587
 5333TIP3    H237635   2.673   5.735   8.883  1.4652 -1.2723 -0.8683
 5334TIP3   OH237636   2.433   4.475   8.625 -0.6430  0.4385 -0.0195
 5334TIP3    H137637   2.407   4.390   8.590 -0.0828 -0.8311  2.4391
 5334TIP3    H237638   2.354   4.528   8.620 -0.8423  0.0553 -2.1988
 5335TIP3   OH237639   3.022   5.636   1.771  0.4221 -0.1741  0.1492
 5335TIP3    H137640   3.086   5.601   1.833  0.5280 -1.5026 -0.6691
 5335TIP3    H237641   3.018   5.571   1.701 -1.6671 -0.0362  0.0657
 5336TIP3   OH237642   5.489   6.224   0.384  0.2170  0.2941 -0.2895
 5336TIP3    H137643   5.512   6.134   0.407  1.6088  1.3996  3.3843
 5336TIP3    H237644   5.393   6.226   0.389 -0.0804 -1.4696 -3.1148
 5337TIP3   OH237645   1.039   5.647   7.646 -0.2478  0.0782 -0.3319
 5337TIP3    H137646   1.073   5.735   7.627 -1.7833  0.8204  0.1765
 5337TIP3    H237647   1.105   5.607   7.703 -0.1362  1.3883  0.4943
 5338TIP3   OH237648   4.329   1.669   1.580 -0.0749  0.3770 -0.2499
 5338TIP3    H137649   4.386   1.604   1.540 -0.9805 -1.1188  0.7844
 5338TIP3    H237650   4.270   1.618   1.636 -0.7859  2.0980  0.6440
 5339TIP3   OH237651   4.952   1.608   1.680  0.5359  0.3773  0.4260
 5339TIP3    H137652   4.969   1.686   1.627  0.0394 -0.6192 -1.3125
 5339TIP3    H237653   4.860   1.588   1.664  0.2474  0.2798  2.0616
 5340TIP3   OH237654   4.330   0.318   1.713  0.4568  0.0624  0.3608
 5340TIP3    H137655   4.236   0.317   1.729  0.7086  1.3431  2.2821
 5340TIP3    H237656   4.350   0.410   1.693  0.8585 -0.6961 -3.6444
 5341TIP3   OH237657   4.403   4.351   0.574  0.2294 -0.1997 -0.0366
 5341TIP3    H137658   4.321   4.309   0.548  0.4932 -1.7084  1.4025
 5341TIP3    H237659   4.469   4.310   0.519 -0.0016  1.6537 -1.8411
 5342TIP3   OH237660   6.630   2.285   1.300  0.0629  0.1769 -0.4392
 5342TIP3    H137661   6.605   2.360   1.354 -0.9975 -0.0442 -0.6005
 5342TIP3    H237662   6.690   2.234   1.354 -0.5112  0.2777  0.3006
 5343TIP3   OH237663   3.143   6.186   1.054 -0.1877 -0.3071 -0.1515
 5343TIP3    H137664   3.171   6.133   0.979 -0.1538 -2.1636  1.1088
 5343TIP3    H237665   3.223   6.201   1.104 -0.3003  0.4244 -0.1877
 5344TIP3   OH237666   4.595   4.938   7.178  0.2768 -0.4960 -0.4678
 5344TIP3    H137667   4.597   5.011   7.116  0.1516 -0.5439 -0.5291
 5344TIP3    H237668   4.678   4.944   7.225 -0.0551  0.1477  0.0579
 5345TIP3   OH237669   1.451   5.921   8.558 -0.0874  0.3595 -0.1089
 5345TIP3    H137670   1.477   6.005   8.595 -0.6554  1.4167 -2.0062
 5345TIP3    H237671   1.507   5.857   8.602  1.0077  1.8181  0.7048
 5346TIP3   OH237672   6.714   1.854   7.529 -0.2313  0.0849 -0.2945
 5346TIP3    H137673   6.661   1.917   7.578 -0.6887 -0.8739  0.5000
 5346TIP3    H237674   6.802   1.866   7.563 -1.0214 -2.8843  3.5164
 5347TIP3   OH237675   5.989   0.981   8.420 -0.5525  0.2985 -0.2393
 5347TIP3    H137676   5.962   0.896   8.387  0.2792  0.4814 -1.4329
 5347TIP3    H237677   5.921   1.041   8.391 -0.5733  0.2232 -0.3446
 5348TIP3   OH237678   0.023   6.086   1.280  0.1178  0.0023  0.1848
 5348TIP3    H137679   0.084   6.147   1.322 -0.2502 -0.1890  1.0094
 5348TIP3    H237680   0.037   6.101   1.186 -0.1390  1.5377  0.3546
 5349TIP3   OH237681   5.045   6.212   0.404 -0.2670 -0.6946 -0.2550
 5349TIP3    H137682   5.072   6.277   0.339  1.8806 -0.6500  0.6031
 5349TIP3    H237683   5.119   6.151   0.410 -1.6607 -2.4624 -0.0301
 5350TIP3   OH237684   2.404   5.312   1.816 -0.0073 -0.1380 -0.0373
 5350TIP3    H137685   2.354   5.342   1.741  1.1370  0.9061 -0.4246
 5350TIP3    H237686   2.486   5.362   1.812  1.7475 -2.7998 -0.2985
 5351TIP3   OH237687   1.183   5.920   7.254 -0.7613  0.1034  0.6199
 5351TIP3    H137688   1.256   5.884   7.305 -0.7545  1.1642  1.3940
 5351TIP3    H237689   1.181   5.866   7.174 -0.8493 -1.6872  1.7646
 5352TIP3   OH237690   1.539   1.167   1.853 -0.2791 -0.1115 -0.1228
 5352TIP3    H137691   1.595   1.224   1.906 -1.1413 -0.4244  1.1948
 5352TIP3    H237692   1.465   1.222   1.828 -1.1068 -0.5958  1.1398
 5353TIP3   OH237693   3.890   6.762   1.691 -0.3973  0.3032  0.2741
 5353TIP3    H137694   3.924   6.768   1.602 -2.7501  0.0532 -0.7249
 5353TIP3    H237695   3.880   6.667   1.706 -0.4747  0.3630  0.6082
 5354TIP3   OH237696   5.849   4.823   1.345  0.1771 -0.0999 -0.3843
 5354TIP3    H137697   5.887   4.755   1.290  1.8822  0.4770  0.0187
 5354TIP3    H237698   5.814   4.887   1.283  2.0088  0.5106 -0.8691
 5355TIP3   OH237699   1.083   1.471   7.942  0.2429 -1.0707 -0.1151
 5355TIP3    H137700   1.090   1.468   7.847  1.3578 -0.1447 -0.0950
 5355TIP3    H237701   1.164   1.431   7.973  0.4201 -0.3146  0.4191
 5356TIP3   OH237702   2.462   0.629   0.972  0.9683  0.9392 -0.4482
 5356TIP3    H137703   2.455   0.692   1.044  0.7179  0.6094 -0.1838
 5356TIP3    H237704   2.388   0.650   0.915 -0.0165 -0.0879  0.4132
 5357TIP3   OH237705   0.816   5.522   8.747 -0.1420 -0.0175 -0.2526
 5357TIP3    H137706   0.770   5.586   8.691  0.1714 -0.9573 -1.6547
 5357TIP3    H237707   0.814   5.561   8.834 -2.3794  0.6414 -0.5173
 5358TIP3   OH237708   4.375   4.471   6.732 -0.4889 -0.6556  0.1008
 5358TIP3    H137709   4.331   4.451   6.649 -0.8721  0.0507  0.1239
 5358TIP3    H237710   4.469   4.468   6.711 -0.5227  2.6659 -1.2222
 5359TIP3   OH237711   2.668   5.238   7.451 -0.1409  0.2870 -0.0223
 5359TIP3    H137712   2.709   5.254   7.537  0.5266  1.3749 -0.5190
 5359TIP3    H237713   2.644   5.326   7.420 -0.3735 -0.0991 -0.9489
 5360TIP3   OH237714   5.910   5.928   7.655 -0.5662  0.1472 -0.1391
 5360TIP3    H137715   5.958   5.978   7.589 -0.4093  0.5076  0.2532
 5360TIP3    H237716   5.961   5.938   7.735  0.5845 -2.2297 -0.4580
 5361TIP3   OH237717   5.392   1.955   1.904 -0.6034  0.2152 -0.7272
 5361TIP3    H137718   5.318   1.924   1.956  0.7097 -0.4796  0.8157
 5361TIP3    H237719   5.404   2.046   1.929 -1.1645  0.4505 -1.2853
 5362TIP3   OH237720   5.036   1.116   6.598  0.3395 -0.2183 -0.6561
 5362TIP3    H137721   4.996   1.029   6.601  0.7249 -0.3782  1.4259
 5362TIP3    H237722   5.115   1.104   6.544 -0.3456 -0.7932 -1.5647
 5363TIP3   OH237723   5.014   5.275   8.261 -0.0171  1.0499 -0.2878
 5363TIP3    H137724   5.097   5.246   8.300 -1.1298 -1.9441  0.1588
 5363TIP3    H237725   5.013   5.234   8.174  0.5578  4.2061 -1.9423
 5364TIP3   OH237726   1.589   1.825   0.581  0.3562  0.3394  0.0352
 5364TIP3    H137727   1.651   1.789   0.518 -1.1288  0.5917 -1.6509
 5364TIP3    H237728   1.522   1.758   0.591  1.5536 -0.5798  3.0080
 5365TIP3   OH237729   2.571   2.624   1.073  0.0386 -0.3388  0.0411
 5365TIP3    H137730   2.490   2.624   1.123  0.1741 -0.7784  0.2651
 5365TIP3    H237731   2.640   2.627   1.139  0.2329  2.8586 -0.1484
 5366TIP3   OH237732   3.209   3.555   2.337 -0.4260  0.2195  0.4083
 5366TIP3    H137733   3.192   3.624   2.272 -1.1370 -1.7160 -1.5879
 5366TIP3    H237734   3.123   3.517   2.355  0.1347 -1.3299  0.0076
 5367TIP3   OH237735   5.761   2.041   7.103 -0.6967  0.3017  0.0974
 5367TIP3    H137736   5.745   1.990   7.183  0.7840 -0.3380  0.0152
 5367TIP3    H237737   5.683   2.095   7.094 -0.5302  1.0655  2.4683
 5368TIP3   OH237738   5.508   6.455   8.069 -0.1300  0.0999 -0.5283
 5368TIP3    H137739   5.532   6.534   8.116  1.4387 -1.0810  0.7891
 5368TIP3    H237740   5.496   6.389   8.137  3.9628 -2.1629 -1.6353
 5369TIP3   OH237741   0.845   5.916   8.770 -0.2895  0.0815  0.4639
 5369TIP3    H137742   0.935   5.891   8.790 -0.3975  0.0042  0.8460
 5369TIP3    H237743   0.794   5.887   8.845 -0.5413  0.6868  0.5327
 5370TIP3   OH237744   4.922   3.704   0.809  0.3035 -0.7011  0.2400
 5370TIP3    H137745   4.938   3.698   0.715  0.2194 -2.1537  0.2809
 5370TIP3    H237746   4.843   3.652   0.823  1.0297 -1.5914  1.2551
 5371TIP3   OH237747   3.062   1.477   0.203  0.1608  0.0450 -0.0250
 5371TIP3    H137748   3.100   1.563   0.186  0.6326 -0.2927 -0.7085
 5371TIP3    H237749   2.969   1.495   0.217  0.3904  0.7602  0.6785
 5372TIP3   OH237750   0.593   0.230   1.582 -0.2773 -0.6673  0.9485
 5372TIP3    H137751   0.613   0.165   1.514  1.4871  0.2579  0.5272
 5372TIP3    H237752   0.552   0.302   1.535  0.1891 -0.3730  0.9888
 5373TIP3   OH237753   0.596   1.836   0.121  0.3650  0.3381  0.1299
 5373TIP3    H137754   0.645   1.912   0.151 -0.1891  0.7245  0.0703
 5373TIP3    H237755   0.514   1.839   0.169  0.6707 -0.7042  0.7655
 5374TIP3   OH237756   4.919   1.911   7.947  0.3005 -0.4579  0.0598
 5374TIP3    H137757   4.923   1.828   7.900  0.0952 -0.0249 -0.7414
 5374TIP3    H237758   5.008   1.925   7.980  0.6908 -0.3170 -1.0092
 5375TIP3   OH237759   1.772   3.263   1.979  0.6579  0.4957 -0.7508
 5375TIP3    H137760   1.727   3.182   2.004  0.2539  0.9623  0.0774
 5375TIP3    H237761   1.846   3.234   1.926  0.4032 -0.3994 -0.6376
 5376TIP3   OH237762   1.214   1.840   7.331 -0.2399  0.0502  0.1325
 5376TIP3    H137763   1.168   1.923   7.345 -1.2688 -0.4115 -0.4412
 5376TIP3    H237764   1.221   1.802   7.419  3.1985  2.1817  0.9982
 5377TIP3   OH237765   4.134   5.102   8.585 -0.4257 -0.1095  0.7048
 5377TIP3    H137766   4.053   5.121   8.633 -0.5784  3.9801 -0.7979
 5377TIP3    H237767   4.105   5.080   8.497  0.0292 -0.1450  0.5614
 5378TIP3   OH237768   1.884   2.687   8.715  0.2243  0.2896  0.5957
 5378TIP3    H137769   1.851   2.750   8.650 -1.3209 -2.1934 -1.1704
 5378TIP3    H237770   1.935   2.625   8.664 -1.9182 -2.3721  1.4713
 5379TIP3   OH237771   3.520   2.302   0.182  0.3419 -0.2993  0.2603
 5379TIP3    H137772   3.574   2.367   0.138  0.2568 -0.1248  0.4113
 5379TIP3    H237773   3.566   2.283   0.264  0.7599 -0.9947 -0.1248
 5380TIP3   OH237774   0.069   1.463   2.102 -0.1565  0.3802 -0.7174
 5380TIP3    H137775   0.028   1.547   2.081 -0.6559 -0.4198 -3.3135
 5380TIP3    H237776   0.071   1.416   2.019 -1.6514 -2.9792  0.9625
 5381TIP3   OH237777   3.744   5.673   0.124  0.5401 -0.0219  0.1492
 5381TIP3    H137778   3.831   5.642   0.150  0.5380  0.5208  0.8265
 5381TIP3    H237779   3.761   5.741   0.060  0.5439 -1.4019 -1.3983
 5382TIP3   OH237780   6.456   5.616   1.243  0.4464  0.0723 -0.2990
 5382TIP3    H137781   6.497   5.656   1.320  0.1329 -1.5331  0.7562
 5382TIP3    H237782   6.529   5.591   1.187  0.8221 -0.7402  0.5244
 5383TIP3   OH237783   4.811   4.688   6.918  0.1809 -0.4674 -0.0114
 5383TIP3    H137784   4.732   4.701   6.970  1.2904  1.1329  1.3694
 5383TIP3    H237785   4.856   4.772   6.922  2.2002 -1.4858 -0.3380
 5384TIP3   OH237786   3.733   6.639   0.416  0.0620 -0.0046  0.0491
 5384TIP3    H137787   3.664   6.670   0.475  1.1918 -1.6908  2.4418
 5384TIP3    H237788   3.691   6.571   0.364 -0.8948  1.3235 -0.9664
 5385TIP3   OH237789   1.050   4.633   1.533  0.4097  0.4267 -0.0192
 5385TIP3    H137790   1.034   4.638   1.438 -1.0535  2.9043  0.2781
 5385TIP3    H237791   1.010   4.550   1.559 -1.1800  0.7389 -1.2807
 5386TIP3   OH237792   2.567   5.897   7.004  0.2980 -0.1082  0.0351
 5386TIP3    H137793   2.582   5.802   7.005 -0.0551 -0.1736 -0.5774
 5386TIP3    H237794   2.624   5.931   7.073 -0.8980 -0.9591  1.4906
 5387TIP3   OH237795   4.715   2.917   7.372 -0.1125 -0.0464 -0.2578
 5387TIP3    H137796   4.679   2.993   7.325  0.1115 -0.5084 -1.2151
 5387TIP3    H237797   4.763   2.955   7.445  0.1015  0.7637 -0.7981
 5388TIP3   OH237798   3.222   0.373   0.832 -0.0461  0.4590  0.0205
 5388TIP3    H137799   3.303   0.410   0.796  0.0016  1.2634  0.9010
 5388TIP3    H237800   3.152   0.411   0.778 -0.0116  2.0609  1.0413
 5389TIP3   OH237801   2.136   0.383   8.225  0.1198 -0.0667 -0.6637
 5389TIP3    H137802   2.144   0.310   8.164 -0.7463 -0.1184 -0.7336
 5389TIP3    H237803   2.043   0.385   8.246 -0.3310  2.4240 -2.4422
 5390TIP3   OH237804   2.734   3.850   7.938  0.1778  0.2166 -0.3762
 5390TIP3    H137805   2.761   3.808   7.856  0.3447  0.3722 -0.4034
 5390TIP3    H237806   2.794   3.924   7.947  1.0884 -0.6120  0.6186
 5391TIP3   OH237807   3.657   1.918   8.453  0.1454 -0.4314 -0.3783
 5391TIP3    H137808   3.613   1.883   8.375  1.7154 -1.1323 -0.9850
 5391TIP3    H237809   3.615   1.872   8.526 -0.0896 -1.1340 -0.9402
 5392TIP3   OH237810   5.217   5.926   0.994  0.1915 -0.1279  0.0461
 5392TIP3    H137811   5.302   5.946   0.953 -0.2768  0.6125 -0.5769
 5392TIP3    H237812   5.197   5.838   0.964  0.1758  0.1514 -0.7813
 5393TIP3   OH237813   2.798   3.025   1.200 -0.5734  0.5222 -0.0215
 5393TIP3    H137814   2.813   2.975   1.280  0.9852  1.1052  0.0726
 5393TIP3    H237815   2.851   2.982   1.134 -1.5695  0.2674 -0.6741
 5394TIP3   OH237816   5.916   4.817   0.295  0.3380  0.6654  0.3212
 5394TIP3    H137817   5.874   4.775   0.370  1.9910  0.2624  1.0553
 5394TIP3    H237818   5.945   4.744   0.240  1.6781  0.8432  0.7474
 5395TIP3   OH237819   6.440   1.125   8.747 -0.0250 -0.7611 -0.3815
 5395TIP3    H137820   6.361   1.177   8.765  0.0145 -0.5595 -0.7688
 5395TIP3    H237821   6.409   1.035   8.744 -0.1033 -0.7589  0.2553
 5396TIP3   OH237822   1.825   2.834   8.499 -0.7615  0.8413  0.5616
 5396TIP3    H137823   1.867   2.823   8.414  0.0545  0.8940  0.9507
 5396TIP3    H237824   1.810   2.928   8.507 -4.4598  0.5860 -1.2049
 5397TIP3   OH237825   5.711   6.589   1.582 -0.2372 -0.1025 -0.4645
 5397TIP3    H137826   5.748   6.502   1.565  4.3100  1.6510 -0.7814
 5397TIP3    H237827   5.754   6.619   1.661 -1.7315  1.9277 -0.3414
 5398TIP3   OH237828   2.673   1.712   8.630  0.3102 -0.5785  0.0565
 5398TIP3    H137829   2.726   1.661   8.692 -0.5750 -0.2290  1.1471
 5398TIP3    H237830   2.587   1.719   8.673 -0.1292  0.2530 -0.9196
 5399TIP3   OH237831   4.209   1.645   0.595 -0.2101 -0.3326 -0.8385
 5399TIP3    H137832   4.220   1.692   0.512  0.7793  0.5087 -0.2605
 5399TIP3    H237833   4.118   1.618   0.595 -0.2939 -0.1259 -2.0901
 5400TIP3   OH237834   3.762   6.401   1.494 -0.4149  0.0861 -0.5862
 5400TIP3    H137835   3.807   6.425   1.574 -0.8267 -0.6970 -0.1116
 5400TIP3    H237836   3.810   6.446   1.425  0.4311  0.1176  0.0127
 5401TIP3   OH237837   3.712   3.684   8.460  0.0615  0.0784 -0.3630
 5401TIP3    H137838   3.801   3.720   8.456  0.6753 -1.2856  0.5597
 5401TIP3    H237839   3.666   3.740   8.522  0.3963  0.5262 -0.5146
 5402TIP3   OH237840   0.767   0.271   8.476 -0.4684 -0.0501 -0.3257
 5402TIP3    H137841   0.840   0.288   8.536 -1.4786 -1.1643  1.2835
 5402TIP3    H237842   0.762   0.350   8.423  0.4589  1.0258  1.0928
 5403TIP3   OH237843   6.433   3.012   8.600 -0.0212 -0.5027  0.0604
 5403TIP3    H137844   6.434   3.096   8.645 -1.6547 -0.5444  0.2310
 5403TIP3    H237845   6.515   3.010   8.550  1.6276 -0.2535  2.5999
 5404TIP3   OH237846   1.266   5.247   2.489 -0.3952  0.0939 -0.3327
 5404TIP3    H137847   1.186   5.266   2.440 -0.1822 -1.0425 -1.1712
 5404TIP3    H237848   1.261   5.154   2.509  1.1080 -0.2115 -1.1859
 5405TIP3   OH237849   0.346   6.805   1.412 -0.1772  0.0620  0.6026
 5405TIP3    H137850   0.275   6.864   1.386 -0.6718 -0.1347  1.4849
 5405TIP3    H237851   0.425   6.860   1.409 -0.2379  0.1054 -1.0517
 5406TIP3   OH237852   0.191   0.781   6.812  0.3674  0.3000  0.5675
 5406TIP3    H137853   0.129   0.826   6.869 -0.7667 -0.4282 -0.0471
 5406TIP3    H237854   0.225   0.849   6.754  0.1638  0.7163  0.9353
 5407TIP3   OH237855   3.860   5.249   8.337 -0.4981 -0.4116  0.0328
 5407TIP3    H137856   3.933   5.202   8.296 -0.0406 -0.5701  0.9834
 5407TIP3    H237857   3.897   5.334   8.361 -1.5961  0.9254 -2.6091
 5408TIP3   OH237858   0.649   2.663   1.843  0.5132 -0.4345 -0.5445
 5408TIP3    H137859   0.607   2.715   1.774  0.2840  0.9630  0.6016
 5408TIP3    H237860   0.740   2.695   1.844  0.0717  0.9412  1.0032
 5409TIP3   OH237861   4.399   6.534   0.343 -0.3371  0.2752 -0.1273
 5409TIP3    H137862   4.351   6.465   0.389  1.8850 -0.6673  0.9508
 5409TIP3    H237863   4.369   6.528   0.253 -1.1178 -1.2794  0.1940
 5410TIP3   OH237864   0.274   0.390   2.293 -0.2466  0.1513 -0.3608
 5410TIP3    H137865   0.305   0.339   2.217 -0.5085  0.4563 -0.6748
 5410TIP3    H237866   0.297   0.480   2.271 -0.6109  0.2776 -0.2194
 5411TIP3   OH237867   6.709   4.184   7.810 -0.6142 -0.3361 -0.6246
 5411TIP3    H137868   6.755   4.267   7.823  0.9911 -1.5235  2.0424
 5411TIP3    H237869   6.617   4.205   7.824 -0.2533  1.0302 -0.1159
 5412TIP3   OH237870   0.074   3.373   7.777 -0.2696  0.0230  0.0603
 5412TIP3    H137871   0.024   3.298   7.744  0.2835 -0.5294  0.4367
 5412TIP3    H237872   0.091   3.351   7.869  1.6102 -0.3618 -0.3231
 5413TIP3   OH237873   3.096   4.157   0.286 -0.3750  0.4682 -0.0086
 5413TIP3    H137874   3.173   4.184   0.335  0.0250 -0.6478 -0.0100
 5413TIP3    H237875   3.046   4.103   0.347 -0.8886  0.7373 -0.1856
 5414TIP3   OH237876   4.109   5.346   1.763 -1.4667 -0.7703 -0.9022
 5414TIP3    H137877   4.082   5.281   1.827 -0.0892  0.7044  1.3302
 5414TIP3    H237878   4.182   5.305   1.716 -1.2528 -1.2074 -0.1966
 5415TIP3   OH237879   4.719   6.144   0.015 -0.5394  0.5798 -0.0981
 5415TIP3    H137880   4.740   6.118   0.105 -0.8285 -0.2711 -0.2586
 5415TIP3    H237881   4.802   6.137  -0.032 -1.0342 -2.9350 -0.7713
 5416TIP3   OH237882   0.637   2.946   8.121 -0.7972 -0.1852 -0.5940
 5416TIP3    H137883   0.688   2.910   8.193  0.5365  0.4572 -1.1850
 5416TIP3    H237884   0.574   3.005   8.163 -0.6196 -0.4954  0.1054
 5417TIP3   OH237885   0.599   2.082   2.014 -0.2458 -0.0694  0.1896
 5417TIP3    H137886   0.630   2.171   1.993  0.5796 -0.3599  0.1316
 5417TIP3    H237887   0.573   2.087   2.105 -0.2020  0.2338  0.1882
 5418TIP3   OH237888   6.290   1.316   6.778 -0.2113  0.2575  0.3125
 5418TIP3    H137889   6.365   1.259   6.764 -0.9214 -1.1110  1.8126
 5418TIP3    H237890   6.314   1.398   6.735  1.0858 -0.9429 -1.4069
 5419TIP3   OH237891   6.210   4.789   6.406  0.3540 -0.6445 -0.3129
 5419TIP3    H137892   6.211   4.865   6.349  0.0367 -1.9548 -2.1679
 5419TIP3    H237893   6.185   4.823   6.492 -1.6885  1.0578 -1.4938
 5420TIP3   OH237894   3.244   6.791   2.323  0.5937  0.3639 -0.2392
 5420TIP3    H137895   3.277   6.881   2.322  2.7683 -0.3766  0.1563
 5420TIP3    H237896   3.169   6.794   2.383  0.9879  1.7985  0.2205
 5421TIP3   OH237897   1.945   1.172   0.642 -0.1283 -0.1817  0.1298
 5421TIP3    H137898   1.955   1.136   0.554 -1.3411 -1.3647  0.4442
 5421TIP3    H237899   1.868   1.228   0.636  0.5042  0.7129  0.1660
 5422TIP3   OH237900   0.318   2.118   0.233  0.4138  0.2252  0.2952
 5422TIP3    H137901   0.339   2.104   0.141  2.3844 -2.1410  1.0012
 5422TIP3    H237902   0.328   2.032   0.273 -4.8952  0.0419  2.0460
 5423TIP3   OH237903   5.992   4.416   8.189 -0.2013 -0.6660  0.3075
 5423TIP3    H137904   5.901   4.438   8.211  0.5419  1.8348  1.2278
 5423TIP3    H237905   6.039   4.499   8.196  2.3852 -2.0862  0.9585
 5424TIP3   OH237906   6.161   0.427   1.251 -0.2339  0.1401  0.0075
 5424TIP3    H137907   6.247   0.393   1.275 -0.3165  0.4580  0.8127
 5424TIP3    H237908   6.115   0.353   1.213  0.3379 -0.0728 -0.2841
 5425TIP3   OH237909   1.663   5.738   1.705  0.3308  0.1392 -0.0956
 5425TIP3    H137910   1.594   5.791   1.664 -0.9730 -1.6630 -0.3675
 5425TIP3    H237911   1.628   5.718   1.792  0.3593 -1.0616 -0.3546
 5426TIP3   OH237912   4.185   3.372   7.037 -0.1238 -0.6101 -0.5005
 5426TIP3    H137913   4.104   3.378   6.986 -0.8029 -1.1836  0.4504
 5426TIP3    H237914   4.156   3.341   7.123  0.9442  0.4738  0.2983
 5427TIP3   OH237915   2.769   1.330   1.396  0.2585  0.0922 -0.4446
 5427TIP3    H137916   2.739   1.373   1.316 -0.8553 -1.4049 -0.8631
 5427TIP3    H237917   2.863   1.348   1.399  0.1947  0.7296 -1.7277
 5428TIP3   OH237918   6.260   4.452   2.061 -0.6188 -0.0784  0.0755
 5428TIP3    H137919   6.280   4.360   2.077 -0.2091  0.2486  1.6034
 5428TIP3    H237920   6.300   4.499   2.134 -1.8268  1.2044 -0.0363
 5429TIP3   OH237921   0.293   2.956   1.578 -0.2264  0.7003  0.5067
 5429TIP3    H137922   0.250   2.871   1.575 -1.1688  1.1838 -0.0890
 5429TIP3    H237923   0.322   2.970   1.488  1.1825  0.3964  0.8889
 5430TIP3   OH237924   5.426   3.257   0.255  0.3811  0.0366  0.6614
 5430TIP3    H137925   5.455   3.172   0.222  0.5535  0.6950 -0.9751
 5430TIP3    H237926   5.495   3.317   0.227 -0.7515  1.0359 -0.0747
 5431TIP3   OH237927   6.085   5.331   0.467  0.4098 -0.0741 -0.3846
 5431TIP3    H137928   6.129   5.272   0.529 -0.4013 -0.9845 -0.6380
 5431TIP3    H237929   6.068   5.276   0.390 -0.6272  0.4058 -0.5161
 5432TIP3   OH237930   6.775   4.587   7.117  0.4393  0.0370 -0.3691
 5432TIP3    H137931   6.858   4.619   7.152 -0.8197  2.0117  1.0110
 5432TIP3    H237932   6.778   4.612   7.024  1.0685  0.7956 -0.1623
 5433TIP3   OH237933   2.207   1.476   1.176 -0.2893  0.2104  0.3478
 5433TIP3    H137934   2.192   1.479   1.270  0.6121  0.7097  0.4881
 5433TIP3    H237935   2.263   1.552   1.158  1.7118 -1.2784 -0.1521
 5434TIP3   OH237936   2.838   1.948   7.187 -0.8120 -0.6605 -0.2618
 5434TIP3    H137937   2.865   1.970   7.097 -0.6946 -1.0367 -0.3184
 5434TIP3    H237938   2.838   2.032   7.233  3.0684 -0.8840  0.4716
 5435TIP3   OH237939   6.262   4.354   7.194  0.5323  0.4091  0.4687
 5435TIP3    H137940   6.355   4.376   7.202  0.1982  2.2954 -0.5249
 5435TIP3    H237941   6.227   4.415   7.130 -1.8327  1.0629  2.2121
 5436TIP3   OH237942   2.749   3.345   0.840 -0.0220 -0.0369  0.2446
 5436TIP3    H137943   2.715   3.309   0.922 -0.1708 -0.2115  0.1063
 5436TIP3    H237944   2.843   3.353   0.855  0.2732 -1.9858 -0.2690
 5437TIP3   OH237945   5.001   2.465   8.207  0.1784 -0.1674  0.4625
 5437TIP3    H137946   4.939   2.455   8.134 -0.1223 -0.1173  0.7078
 5437TIP3    H237947   5.074   2.514   8.169  0.4371 -0.9086 -0.0385
 5438TIP3   OH237948   6.035   6.521   0.990  0.1419  0.5547  0.6071
 5438TIP3    H137949   6.045   6.430   0.962 -2.2575  0.4594 -0.1620
 5438TIP3    H237950   6.088   6.528   1.069  0.3875 -1.5203  0.6788
 5439TIP3   OH237951   2.720   2.545   2.246 -0.2164 -0.6459  0.2517
 5439TIP3    H137952   2.649   2.581   2.193  1.2049  1.3669 -0.4229
 5439TIP3    H237953   2.722   2.452   2.223 -2.0806 -0.5890 -0.3141
 5440TIP3   OH237954   5.078   1.777   8.400 -0.0968  0.4898 -0.3500
 5440TIP3    H137955   5.115   1.751   8.316  0.0104 -0.8498  0.0924
 5440TIP3    H237956   5.154   1.787   8.458 -0.2573 -0.0014 -0.0467
 5441TIP3   OH237957   5.633   0.719   8.488  0.5296  0.5831 -0.3164
 5441TIP3    H137958   5.645   0.769   8.569  1.7262 -0.2492  0.0325
 5441TIP3    H237959   5.702   0.750   8.430 -0.0991  0.9116 -0.9071
 5442TIP3   OH237960   1.938   4.712   7.153  0.1049 -0.7420 -0.3049
 5442TIP3    H137961   1.858   4.750   7.188  0.3903 -0.2766 -0.1442
 5442TIP3    H237962   1.919   4.696   7.060  0.5605  1.5191 -0.8468
 5443TIP3   OH237963   6.301   0.767   7.669  0.3987 -0.0906  0.0645
 5443TIP3    H137964   6.332   0.727   7.750 -0.4749 -0.6625  0.1247
 5443TIP3    H237965   6.253   0.844   7.697  0.0369 -0.3267  0.1003
 5444TIP3   OH237966   1.699   2.780   1.549 -0.5478  0.1206 -0.2374
 5444TIP3    H137967   1.620   2.727   1.532 -0.8085  0.1750  0.7292
 5444TIP3    H237968   1.670   2.845   1.613  0.5108 -0.4794  0.8916
 5445TIP3   OH237969   0.755   0.644   8.638  0.0304  0.0421  0.1915
 5445TIP3    H137970   0.833   0.649   8.584 -0.8882  1.9777 -1.0913
 5445TIP3    H237971   0.788   0.639   8.728  1.6090  0.2313 -0.3484
 5446TIP3   OH237972   0.090   0.454   8.562 -0.0928 -0.0481 -0.3534
 5446TIP3    H137973   0.008   0.427   8.521  0.1248 -1.6739  0.1696
 5446TIP3    H237974   0.158   0.431   8.499  0.0828 -0.5907  0.0161
 5447TIP3   OH237975   0.802   5.241   6.924  0.3039  0.1847 -0.7156
 5447TIP3    H137976   0.880   5.297   6.918 -0.1987  0.9214 -0.6151
 5447TIP3    H237977   0.752   5.262   6.845 -0.8851  1.4497  0.3123
 5448TIP3   OH237978   0.552   6.211   0.066  0.2199 -0.5330 -0.0639
 5448TIP3    H137979   0.563   6.306   0.076 -0.3338 -0.6964  3.1651
 5448TIP3    H237980   0.641   6.178   0.051  0.7347  0.3527  0.9050
 5449TIP3   OH237981   5.032   6.635   7.966  0.0982 -0.0280  1.1008
 5449TIP3    H137982   5.116   6.671   7.938  0.1344 -0.4793  0.6059
 5449TIP3    H237983   5.009   6.684   8.045 -0.6797  2.2756 -0.4633
 5450TIP3   OH237984   0.713   4.356   2.524 -0.7894 -0.5447 -0.4498
 5450TIP3    H137985   0.647   4.305   2.476 -1.5058 -2.5599  2.4331
 5450TIP3    H237986   0.754   4.293   2.582  2.4370  1.0818 -0.7813
 5451TIP3   OH237987   1.021   4.562   7.740  0.4135 -0.1691 -0.0652
 5451TIP3    H137988   1.033   4.650   7.775 -0.1411  0.3508 -1.1113
 5451TIP3    H237989   1.080   4.507   7.790  3.1145  1.3181 -1.4178
 5452TIP3   OH237990   3.576   0.758   6.358 -0.1736 -0.1651  0.3516
 5452TIP3    H137991   3.598   0.688   6.297 -1.6248 -0.0607 -0.3250
 5452TIP3    H237992   3.607   0.838   6.315  0.1465 -0.2327  0.4501
 5453TIP3   OH237993   3.514   5.373   7.643 -0.4321 -0.0679  0.4769
 5453TIP3    H137994   3.489   5.453   7.689  2.7618  0.7239  1.0698
 5453TIP3    H237995   3.544   5.314   7.712 -0.5943 -0.9044 -0.1567
 5454TIP3   OH237996   3.301   0.511   7.355  0.4805  0.4383  0.3615
 5454TIP3    H137997   3.217   0.491   7.313  1.2548 -0.4590 -0.8404
 5454TIP3    H237998   3.302   0.457   7.433  0.9297 -1.4542 -0.8854
 5455TIP3   OH237999   5.813   5.608   7.054  0.4276  0.2253  0.1052
 5455TIP3    H138000   5.809   5.601   6.958 -0.4678  0.4626  0.1183
 5455TIP3    H238001   5.867   5.533   7.080  0.4802  0.0137 -0.5711
 5456TIP3   OH238002   1.882   1.518   1.358  0.3711  0.3259 -0.2533
 5456TIP3    H138003   1.960   1.569   1.377  0.0437  1.0915 -0.8925
 5456TIP3    H238004   1.912   1.427   1.358  0.8599  0.4371  1.4512
 5457TIP3   OH238005   5.962   0.380   0.646 -0.1972 -0.6473 -0.2871
 5457TIP3    H138006   5.901   0.343   0.711  0.3704 -1.0355  0.0397
 5457TIP3    H238007   5.913   0.377   0.564 -0.9884 -0.0055  0.1391
 5458TIP3   OH238008   2.585   4.957   8.468 -0.2944 -0.0858 -0.2787
 5458TIP3    H138009   2.641   4.914   8.404 -1.9903  0.1839 -2.0099
 5458TIP3    H238010   2.618   5.047   8.472  0.6025 -0.4162  0.2246
 5459TIP3   OH238011   1.433   1.813   7.127 -0.0617 -0.5240 -0.3313
 5459TIP3    H138012   1.367   1.812   7.196 -0.3382  2.6323 -0.3749
 5459TIP3    H238013   1.399   1.876   7.063  2.5407  0.5894 -0.7458
 5460TIP3   OH238014   2.169   3.120   1.287  0.0809 -0.0514 -0.0348
 5460TIP3    H138015   2.230   3.193   1.282 -0.0880  0.0845 -0.1200
 5460TIP3    H238016   2.184   3.082   1.374  1.6626 -1.2294 -0.7729
 5461TIP3   OH238017   1.996   1.630   2.271 -0.4110  0.4905 -0.4867
 5461TIP3    H138018   1.972   1.683   2.347 -3.4701 -2.7048  1.0359
 5461TIP3    H238019   2.005   1.541   2.305  1.7248 -0.5295 -3.3428
 5462TIP3   OH238020   3.966   5.881   1.861  0.0543  0.6254  0.2877
 5462TIP3    H138021   3.889   5.930   1.833 -0.5069 -0.1930  0.3571
 5462TIP3    H238022   3.943   5.846   1.947  0.7478  0.9019  0.5950
 5463TIP3   OH238023   0.408   0.150   1.780  0.1128 -0.4013 -0.8302
 5463TIP3    H138024   0.342   0.212   1.810  0.0782 -0.4902 -0.7164
 5463TIP3    H238025   0.451   0.192   1.706 -0.2829 -0.4745 -1.1024
 5464TIP3   OH238026   0.900   1.776   8.557  0.0971  0.3845 -0.8509
 5464TIP3    H138027   0.919   1.841   8.625 -0.8695 -0.2110  0.0168
 5464TIP3    H238028   0.937   1.695   8.591  0.5761  0.3049 -1.5539
 5465TIP3   OH238029   6.690   5.541   8.870 -0.1600  0.3189 -0.1151
 5465TIP3    H138030   6.653   5.545   8.782 -2.1407  1.3213  0.6954
 5465TIP3    H238031   6.752   5.614   8.874  0.0627  0.1646 -0.7116
 5466TIP3   OH238032   1.081   3.222   6.803  0.3526 -0.4479 -0.2441
 5466TIP3    H138033   1.036   3.200   6.721 -0.0608 -1.6759  0.2865
 5466TIP3    H238034   1.094   3.138   6.847  0.4053  0.2039  1.0421
 5467TIP3   OH238035   6.584   2.570   8.826  0.2666  0.3366  0.2317
 5467TIP3    H138036   6.582   2.510   8.900  1.0601 -0.0611 -0.0602
 5467TIP3    H238037   6.661   2.624   8.840  0.5285  0.1362 -0.3900
 5468TIP3   OH238038   6.166   0.650   0.786  0.0800  0.1519  0.1107
 5468TIP3    H138039   6.133   0.569   0.824  2.5625 -0.9091  0.2115
 5468TIP3    H238040   6.100   0.676   0.722 -0.0208 -2.9474 -1.1958
 5469TIP3   OH238041   3.717   0.735   2.077 -0.1432  0.3387  0.3493
 5469TIP3    H138042   3.634   0.714   2.033 -1.3776  2.6183  1.3956
 5469TIP3    H238043   3.698   0.721   2.170 -0.0224  2.6777  0.7740
 5470TIP3   OH238044   0.923   6.701   7.972  0.0852  0.2712  0.0472
 5470TIP3    H138045   0.855   6.702   7.905  0.7494  0.7305 -0.6325
 5470TIP3    H238046   0.960   6.789   7.970 -0.7327  0.7130  1.9243
 5471TIP3   OH238047   3.889   1.231   1.228 -0.2129  0.1659 -0.1987
 5471TIP3    H138048   3.870   1.242   1.135  1.4448 -1.7592 -0.8310
 5471TIP3    H238049   3.929   1.315   1.253  1.1264  0.0584 -1.7585
 5472TIP3   OH238050   0.318   2.644   6.783 -0.1768 -0.2778 -0.4538
 5472TIP3    H138051   0.243   2.669   6.729  0.7261  2.1735 -0.7078
 5472TIP3    H238052   0.358   2.727   6.807  1.8294 -1.4886  0.6007
 5473TIP3   OH238053   5.126   1.888   6.912 -0.3179  0.0269 -0.1669
 5473TIP3    H138054   5.147   1.972   6.954  0.3055 -0.3896  0.3876
 5473TIP3    H238055   5.133   1.905   6.818  1.5465  0.1905 -0.0375
 5474TIP3   OH238056   3.295   3.974   8.438 -0.3379 -0.4157 -0.2190
 5474TIP3    H138057   3.260   4.026   8.511 -0.7260 -1.0988  0.0990
 5474TIP3    H238058   3.233   3.901   8.430 -0.1414 -0.4944 -1.0561
 5475TIP3   OH238059   1.912   4.738   6.851 -0.4849  0.4475  0.3658
 5475TIP3    H138060   2.005   4.734   6.828 -0.2316 -0.5873  1.4816
 5475TIP3    H238061   1.895   4.832   6.861  0.4763  0.6438  0.3146
 5476TIP3   OH238062   0.290   0.262   7.442 -0.0761 -0.5150 -0.3024
 5476TIP3    H138063   0.244   0.301   7.367  0.0160 -1.8675 -1.1035
 5476TIP3    H238064   0.244   0.295   7.519 -0.9698 -0.0807 -1.0042
 5477TIP3   OH238065   4.060   5.284   8.099 -0.4961 -0.0134 -0.0014
 5477TIP3    H138066   4.124   5.234   8.048 -0.0575 -0.8929  1.3594
 5477TIP3    H238067   4.104   5.303   8.181 -2.2893 -1.5704  1.4248
 5478TIP3   OH238068   6.822   5.053   1.449  0.3506 -0.1985 -0.0006
 5478TIP3    H138069   6.900   5.091   1.488 -0.9052 -0.0638  2.5272
 5478TIP3    H238070   6.843   4.960   1.438  1.6208  0.2179 -1.5083
 5479TIP3   OH238071   5.508   3.304   8.811 -0.4286 -0.0758 -0.0144
 5479TIP3    H138072   5.480   3.254   8.734  0.2567 -0.4780 -0.0068
 5479TIP3    H238073   5.548   3.383   8.774 -2.4327  1.0041 -0.0126
 5480TIP3   OH238074   2.100   2.195   7.917  0.5091  0.5444 -0.3516
 5480TIP3    H138075   2.091   2.269   7.857  2.2674  1.3516  0.3172
 5480TIP3    H238076   2.013   2.186   7.956  0.2101  2.1747 -0.5573
 5481TIP3   OH238077   3.065   5.788   0.639 -0.6419 -0.4815  0.1790
 5481TIP3    H138078   3.118   5.794   0.559 -0.3555  0.0171  0.4056
 5481TIP3    H238079   2.986   5.838   0.620  1.0174  2.9387  1.4795
 5482TIP3   OH238080   0.614   0.193   1.135 -0.1988  0.3426  0.4338
 5482TIP3    H138081   0.556   0.215   1.062 -0.5726 -0.0560  0.6048
 5482TIP3    H238082   0.692   0.159   1.094 -0.3532  0.2516  0.2146
 5483TIP3   OH238083   0.998   3.068   8.069  0.8707 -0.1636 -0.2097
 5483TIP3    H138084   0.943   3.090   7.993  0.2240 -1.5245 -0.1496
 5483TIP3    H238085   0.959   3.117   8.141  1.5026  1.1651 -0.7153
 5484TIP3   OH238086   6.697   1.644   1.371  0.1873  0.0219 -0.1600
 5484TIP3    H138087   6.748   1.575   1.329  0.6249  0.4545 -0.3537
 5484TIP3    H238088   6.611   1.640   1.328  0.1432 -0.5258 -0.0288
 5485TIP3   OH238089   6.664   4.718   7.333  0.0693  0.0032  0.0823
 5485TIP3    H138090   6.714   4.657   7.387  1.1107  0.7217 -0.0396
 5485TIP3    H238091   6.660   4.676   7.247 -1.6023 -1.1454  0.6665
 5486TIP3   OH238092   2.295   5.186   0.972 -0.1928  0.4697  0.1266
 5486TIP3    H138093   2.247   5.123   0.918  1.0010 -0.5538  0.2296
 5486TIP3    H238094   2.364   5.220   0.915  1.0171 -0.5462  0.9314
 5487TIP3   OH238095   2.791   0.307   6.861  0.1470  0.6244 -0.2614
 5487TIP3    H138096   2.797   0.212   6.864  0.4248  0.6481 -0.0695
 5487TIP3    H238097   2.871   0.338   6.903  1.2902  0.9385 -2.5038
 5488TIP3   OH238098   6.323   4.984   8.784  0.4101  0.1796 -0.2328
 5488TIP3    H138099   6.332   5.078   8.768 -0.2128  0.4921  1.1242
 5488TIP3    H238100   6.229   4.970   8.795  0.5518 -0.4916  0.1995
 5489TIP3   OH238101   2.867   6.629   8.145  0.5356  0.0093  0.4521
 5489TIP3    H138102   2.957   6.648   8.119  1.2014  1.2818  3.2962
 5489TIP3    H238103   2.842   6.703   8.201 -2.4806 -0.0593 -0.6054
 5490TIP3   OH238104   6.745   4.591   8.026 -0.4736  0.2021  0.1408
 5490TIP3    H138105   6.773   4.553   8.109  1.3588  1.5586  0.1914
 5490TIP3    H238106   6.695   4.669   8.050 -0.6700  0.1279 -0.0233
 5491TIP3   OH238107   0.912   0.943   1.021 -0.3402 -0.2413  0.1367
 5491TIP3    H138108   1.003   0.945   0.993 -0.3330 -1.0806  0.0833
 5491TIP3    H238109   0.874   1.024   0.985 -0.0488 -0.7188 -1.3028
 5492TIP3   OH238110   4.821   4.922   1.120 -0.6479 -0.3021 -0.1328
 5492TIP3    H138111   4.870   4.841   1.105  1.5168  1.1147 -1.1253
 5492TIP3    H238112   4.799   4.919   1.213  1.3927 -1.0183  0.3920
 5493TIP3   OH238113   2.530   4.397   8.904  0.0945 -0.0738  0.1179
 5493TIP3    H138114   2.542   4.433   8.992 -0.0087  1.0155 -0.2924
 5493TIP3    H238115   2.437   4.411   8.885  0.1542 -0.1429 -0.2320
 5494TIP3   OH238116   3.547   6.185   0.036 -0.6269  0.2426  0.4471
 5494TIP3    H138117   3.460   6.206   0.002 -0.4794  2.5051  1.3128
 5494TIP3    H238118   3.531   6.142   0.119 -0.9023 -1.1632 -0.2964
 5495TIP3   OH238119   6.203   2.874   0.797  0.2794 -1.0526 -0.7070
 5495TIP3    H138120   6.198   2.877   0.893  0.1223  1.6278 -0.7285
 5495TIP3    H238121   6.118   2.838   0.770 -0.2070 -0.5945  0.1541
 5496TIP3   OH238122   1.991   0.101   2.176  0.3118  0.1992 -0.0983
 5496TIP3    H138123   1.972   0.010   2.201  1.8141 -0.3183 -0.7221
 5496TIP3    H238124   1.912   0.129   2.128 -0.0004 -0.9227 -0.2726
 5497TIP3   OH238125   3.786   4.387   0.234 -0.4683 -0.4031 -0.1011
 5497TIP3    H138126   3.695   4.416   0.228 -0.8231 -1.1877  1.2016
 5497TIP3    H238127   3.822   4.408   0.148 -0.9205  2.9782  0.3766
 5498TIP3   OH238128   1.015   6.302   7.648  0.5783 -0.2430  0.4451
 5498TIP3    H138129   0.921   6.289   7.664  0.7712 -1.7388  0.5135
 5498TIP3    H238130   1.029   6.396   7.661 -1.4479  0.6212 -2.5855
 5499TIP3   OH238131   6.605   4.804   7.770 -0.1820 -0.0478 -0.5663
 5499TIP3    H138132   6.668   4.864   7.809 -1.1248  0.9866 -0.5995
 5499TIP3    H238133   6.607   4.824   7.676 -0.2546 -0.3053 -0.6235
 5500TIP3   OH238134   2.742   5.528   7.399  0.0564  0.0132 -0.0675
 5500TIP3    H138135   2.758   5.568   7.485  0.9910 -0.4565 -0.0149
 5500TIP3    H238136   2.827   5.491   7.374 -0.5226 -0.9649 -0.6213
 5501TIP3   OH238137   5.690   4.349   8.113 -0.7755 -0.5946  0.2167
 5501TIP3    H138138   5.762   4.312   8.061  0.5551  0.6895  1.0608
 5501TIP3    H238139   5.666   4.429   8.067 -0.2913  0.0113  0.9998
 5502TIP3   OH238140   0.782   4.920   0.586 -0.1909 -0.8975 -0.6315
 5502TIP3    H138141   0.739   4.835   0.588 -1.1883 -0.3958 -0.0333
 5502TIP3    H238142   0.712   4.982   0.566  0.3886 -0.1413 -0.3647
 5503TIP3   OH238143   4.504   4.065   0.214  0.1199 -0.2483  0.0508
 5503TIP3    H138144   4.454   3.987   0.238 -0.6328  0.6556  1.5659
 5503TIP3    H238145   4.592   4.048   0.246 -0.3128 -0.0290  1.4067
 5504TIP3   OH238146   1.780   1.694   0.429  0.0457  0.0044 -0.2708
 5504TIP3    H138147   1.807   1.698   0.337  0.0318 -0.2218 -0.2849
 5504TIP3    H238148   1.862   1.689   0.478  0.0604  0.3630 -0.2578
 5505TIP3   OH238149   4.597   5.200   8.720  0.1779 -0.4749  0.3561
 5505TIP3    H138150   4.571   5.221   8.809 -1.3960 -0.9277  0.0281
 5505TIP3    H238151   4.661   5.129   8.730 -0.1192 -0.6425  1.1237
 5506TIP3   OH238152   4.961   2.293   0.173  0.2550 -0.0619  0.0142
 5506TIP3    H138153   4.872   2.265   0.154  0.6818 -0.4127 -1.6117
 5506TIP3    H238154   5.004   2.215   0.209 -0.3778  0.4233  1.9176
 5507TIP3   OH238155   3.882   4.357   1.583  0.2655  0.2802 -0.6438
 5507TIP3    H138156   3.804   4.391   1.539 -0.1160  0.3274  0.0586
 5507TIP3    H238157   3.875   4.262   1.572 -1.1529  0.0720  1.4068
 5508TIP3   OH238158   5.542   6.092   7.085 -0.1751  0.2468  0.4471
 5508TIP3    H138159   5.459   6.130   7.054  0.8275  2.1944 -0.0208
 5508TIP3    H238160   5.534   5.999   7.066 -1.6852  0.5999 -0.8935
 5509TIP3   OH238161   6.712   6.182   2.506 -0.0875 -0.8243  0.3116
 5509TIP3    H138162   6.719   6.275   2.482 -0.3119 -0.9894 -0.4329
 5509TIP3    H238163   6.656   6.182   2.584 -0.4045 -0.3600  0.0940
 5510TIP3   OH238164   0.618   5.094   0.353 -0.7795 -0.1877 -0.3990
 5510TIP3    H138165   0.552   5.099   0.422  1.5529 -1.5828  2.1289
 5510TIP3    H238166   0.621   5.001   0.329  1.2758 -0.4465  0.6747
 5511TIP3   OH238167   5.137   6.639   8.825  0.8550 -0.6956  0.1494
 5511TIP3    H138168   5.121   6.670   8.736  1.0313 -0.5235  0.1784
 5511TIP3    H238169   5.177   6.713   8.870 -1.8295  0.2739  1.1953
 5512TIP3   OH238170   1.383   6.799   1.431 -0.2672  0.1548  0.2688
 5512TIP3    H138171   1.363   6.707   1.450  0.6118  0.0687  0.8017
 5512TIP3    H238172   1.358   6.846   1.511  1.3735  0.0758  0.8591
 5513TIP3   OH238173   0.720   5.281   0.541  0.4543 -0.2321 -0.0924
 5513TIP3    H138174   0.693   5.193   0.516 -0.0976 -0.3033  0.7180
 5513TIP3    H238175   0.736   5.276   0.635  1.5642  0.2537 -0.2413
 5514TIP3   OH238176   4.135   2.597   1.352 -0.5952  0.3013  0.0311
 5514TIP3    H138177   4.175   2.513   1.330 -2.5144 -0.9120  0.8233
 5514TIP3    H238178   4.140   2.601   1.447 -2.8355 -0.2365  0.2278
 5515TIP3   OH238179   6.637   3.624   2.048 -0.2243  0.2883  0.8920
 5515TIP3    H138180   6.555   3.647   2.091 -0.8181  2.0407 -1.0241
 5515TIP3    H238181   6.704   3.676   2.093 -0.9399  2.6685 -0.6142
 5516TIP3   OH238182   0.493   5.447   0.619 -0.3318 -0.6664  0.4265
 5516TIP3    H138183   0.500   5.513   0.550  0.0915 -0.5083  0.6212
 5516TIP3    H238184   0.579   5.405   0.622 -0.4928 -0.9960  0.5397
 5517TIP3   OH238185   5.646   1.759   7.911  0.6449  0.7948 -0.5612
 5517TIP3    H138186   5.690   1.694   7.857 -0.3891  0.7301 -1.3299
 5517TIP3    H238187   5.681   1.843   7.881 -0.7365  0.8477 -2.1371
 5518TIP3   OH238188   2.151   2.839   7.036  0.6669  0.6942 -0.2468
 5518TIP3    H138189   2.141   2.851   7.130 -0.4019  0.5791 -0.3322
 5518TIP3    H238190   2.090   2.902   6.997 -0.6067 -0.8260 -0.8082
 5519TIP3   OH238191   0.741   4.605   8.814  0.1565  0.3231 -0.1503
 5519TIP3    H138192   0.752   4.625   8.721  1.0751 -0.8271 -0.3137
 5519TIP3    H238193   0.670   4.662   8.842 -0.4541  0.3626 -1.6674
 5520TIP3   OH238194   4.791   1.199   0.740  0.2824  0.0606  0.4009
 5520TIP3    H138195   4.703   1.167   0.720  0.2422  0.1661  0.4109
 5520TIP3    H238196   4.828   1.132   0.798  0.5166 -0.4114 -0.2826
 5521TIP3   OH238197   3.671   2.622   0.039 -0.0386  0.3170 -0.5374
 5521TIP3    H138198   3.612   2.697   0.038 -0.3336  0.0881 -1.2262
 5521TIP3    H238199   3.679   2.598   0.131 -0.5928  0.6822 -0.3908
 5522TIP3   OH238200   4.072   4.005   8.450  0.0908 -0.6568  0.2498
 5522TIP3    H138201   4.123   4.060   8.510 -1.4733  2.6861 -1.1944
 5522TIP3    H238202   4.122   4.006   8.368  0.7526 -2.7012  0.5871
 5523TIP3   OH238203   1.466   1.763   8.028  0.0672  0.0867 -0.0850
 5523TIP3    H138204   1.560   1.753   8.017  0.2260  1.0892  0.2501
 5523TIP3    H238205   1.438   1.813   7.952  0.0061  0.7978  0.3930
 5524TIP3   OH238206   6.678   3.805   0.601 -0.4748  0.0191 -0.0679
 5524TIP3    H138207   6.696   3.889   0.643  0.8136 -0.4673  0.4261
 5524TIP3    H238208   6.760   3.782   0.558 -1.2160 -0.3741 -1.3037
 5525TIP3   OH238209   6.021   2.879   8.796  0.2146 -0.2013 -0.3563
 5525TIP3    H138210   6.053   2.910   8.711 -0.3754  0.9866 -0.1622
 5525TIP3    H238211   5.929   2.858   8.780 -0.2177  1.1566  0.2508
 5526TIP3   OH238212   6.325   2.764   8.482 -0.0894  0.4271 -0.3148
 5526TIP3    H138213   6.363   2.844   8.518 -0.0976  0.1917  0.2343
 5526TIP3    H238214   6.309   2.709   8.559 -0.0595 -0.1107 -0.6870
 5527TIP3   OH238215   0.329   3.206   0.462  0.0063  1.1342 -0.1159
 5527TIP3    H138216   0.330   3.174   0.552 -0.5158  1.0487 -0.1388
 5527TIP3    H238217   0.351   3.129   0.410 -0.9254  0.8808 -0.1472
 5528TIP3   OH238218   2.307   2.030   8.060 -0.5372 -0.4953 -0.0062
 5528TIP3    H138219   2.397   2.049   8.033  0.1428 -0.2404  2.2102
 5528TIP3    H238220   2.252   2.080   8.000  0.9286  1.6069  0.2985
 5529TIP3   OH238221   2.961   3.700   7.170 -0.5491 -0.3653  0.0477
 5529TIP3    H138222   3.020   3.737   7.236 -0.9184  0.5767 -0.1333
 5529TIP3    H238223   2.947   3.772   7.108 -3.1784 -0.0004  0.9463
 5530TIP3   OH238224   4.364   4.576   8.262 -0.1587  0.3105 -0.0649
 5530TIP3    H138225   4.400   4.638   8.198  1.1463 -0.1103  0.2267
 5530TIP3    H238226   4.374   4.619   8.346  1.4920 -0.5610  0.2310
 5531TIP3   OH238227   3.938   4.205   8.217 -0.0352  0.3263 -0.6276
 5531TIP3    H138228   3.922   4.112   8.233  0.0592  0.5363  0.8185
 5531TIP3    H238229   4.021   4.223   8.261 -0.7445  1.3985  0.3362
 5532TIP3   OH238230   4.726   2.070   7.348 -0.0804  0.6148  0.0727
 5532TIP3    H138231   4.821   2.072   7.360  0.1504 -1.4784 -0.8848
 5532TIP3    H238232   4.694   2.016   7.421 -0.2121 -0.7823 -0.9862
 5533TIP3   OH238233   6.239   1.265   7.744  0.3056 -0.4584 -0.0967
 5533TIP3    H138234   6.193   1.334   7.696  0.1301 -0.2377  0.3786
 5533TIP3    H238235   6.218   1.283   7.836  0.1779 -1.2046  0.0212
 5534TIP3   OH238236   5.902   5.264   1.792  0.1804  0.1228 -0.3863
 5534TIP3    H138237   5.927   5.236   1.880  1.0789  0.3575 -0.5610
 5534TIP3    H238238   5.814   5.227   1.779 -0.2203  0.6262  0.8399
 5535TIP3   OH238239   3.326   0.887   7.909 -0.6998 -0.3143 -0.0912
 5535TIP3    H138240   3.333   0.799   7.947 -0.6615 -0.4720 -0.4522
 5535TIP3    H238241   3.266   0.934   7.967  0.1445 -0.2301  0.7255
 5536TIP3   OH238242   2.148   2.193   0.009  0.2062 -0.5320  0.0592
 5536TIP3    H138243   2.081   2.256   0.036 -0.1696  0.3635 -2.6699
 5536TIP3    H238244   2.221   2.248  -0.021  1.0487 -1.4628  0.3466
 5537TIP3   OH238245   4.046   6.366   0.902  0.2324 -0.1493  0.8761
 5537TIP3    H138246   3.953   6.343   0.896  0.1154  0.0793  1.7222
 5537TIP3    H238247   4.073   6.378   0.811 -0.5720 -0.1891  0.6209
 5538TIP3   OH238248   6.175   0.204   8.618 -0.2796  0.6395  0.7107
 5538TIP3    H138249   6.106   0.268   8.602 -0.2082 -0.0061 -2.9913
 5538TIP3    H238250   6.147   0.126   8.571  2.7461  0.2496 -0.6697
 5539TIP3   OH238251   2.873   5.411   6.690  0.0901 -0.1219  0.4935
 5539TIP3    H138252   2.909   5.323   6.699 -0.2945 -0.2130  1.1834
 5539TIP3    H238253   2.825   5.409   6.607  1.4091 -0.0819 -0.3080
 5540TIP3   OH238254   1.872   3.576   8.308 -0.3880 -0.2068 -0.2685
 5540TIP3    H138255   1.792   3.627   8.316 -2.0616 -2.5286 -0.8956
 5540TIP3    H238256   1.849   3.491   8.346  1.7740 -0.9537 -0.5316
 5541TIP3   OH238257   3.968   3.767   8.525 -0.1009  0.1551  0.0518
 5541TIP3    H138258   4.049   3.721   8.545  0.4705  0.2663 -1.7989
 5541TIP3    H238259   3.997   3.852   8.491 -1.0592  0.8459  0.8993
 5542TIP3   OH238260   4.052   4.201   2.100 -0.1317 -0.0179 -0.0919
 5542TIP3    H138261   4.054   4.294   2.123 -2.8003  0.1041 -0.0041
 5542TIP3    H238262   4.142   4.180   2.077  0.4854  2.6947 -0.5119
 5543TIP3   OH238263   2.475   5.330   1.448  0.8834 -0.0265  0.3974
 5543TIP3    H138264   2.423   5.365   1.521  1.0818 -0.3112  0.6787
 5543TIP3    H238265   2.443   5.377   1.371  1.5204  1.1821  0.8384
 5544TIP3   OH238266   4.918   6.161   1.638  0.3168  0.5328 -1.0404
 5544TIP3    H138267   4.955   6.113   1.565 -2.2493 -0.6621 -1.6496
 5544TIP3    H238268   4.853   6.219   1.599  0.7932  1.9147  0.0726
 5545TIP3   OH238269   0.105   6.361   1.325 -0.0122  0.2782 -0.5270
 5545TIP3    H138270   0.165   6.353   1.399  1.6439  1.2591 -1.6987
 5545TIP3    H238271   0.060   6.444   1.338 -0.5906 -0.1013 -0.0416
 5546TIP3   OH238272   3.842   5.393   1.582 -0.3911 -0.3223 -0.4263
 5546TIP3    H138273   3.781   5.360   1.647  0.2423 -1.7609 -0.5216
 5546TIP3    H238274   3.928   5.383   1.622 -0.1453  0.9505 -0.5969
 5547TIP3   OH238275   0.896   5.161   2.063  0.1550 -0.0926  0.3406
 5547TIP3    H138276   0.940   5.089   2.107  0.0203 -0.6913 -0.4857
 5547TIP3    H238277   0.964   5.228   2.052  0.8175 -0.9069 -0.7036
 5548TIP3   OH238278   5.050   6.148   1.393 -0.5896 -0.1739 -0.2259
 5548TIP3    H138279   5.136   6.123   1.427 -1.4261  0.4654  2.6106
 5548TIP3    H238280   5.039   6.094   1.315  2.0433 -0.8240 -0.2512
 5549TIP3   OH238281   1.445   5.504   8.675  0.1234 -0.7449  0.5264
 5549TIP3    H138282   1.471   5.417   8.705  0.6100 -0.9020 -0.2967
 5549TIP3    H238283   1.483   5.511   8.587 -0.7856 -0.1050  0.1637
 5550TIP3   OH238284   2.446   5.060   1.704  0.4251 -0.5162  0.2906
 5550TIP3    H138285   2.413   5.073   1.615  2.4614  0.3365 -0.3915
 5550TIP3    H238286   2.428   5.143   1.749 -0.7471 -1.0010  0.7662
 5551TIP3   OH238287   2.114   6.328   8.710 -0.0472 -0.1710  0.3584
 5551TIP3    H138288   2.193   6.288   8.747 -1.2916 -2.1074  1.0880
 5551TIP3    H238289   2.046   6.314   8.776 -1.1283  1.0401 -0.4353
 5552TIP3   OH238290   1.210   6.313   7.387  0.0759 -0.0670 -0.6011
 5552TIP3    H138291   1.189   6.402   7.360 -0.5148  0.0839  0.2932
 5552TIP3    H238292   1.163   6.302   7.470  0.3429 -1.1225 -0.5780
 5553TIP3   OH238293   0.921   2.213   2.182 -0.1695  0.1729 -0.0230
 5553TIP3    H138294   0.893   2.266   2.107 -0.6345 -0.2344 -0.1433
 5553TIP3    H238295   0.851   2.226   2.247  0.5687  1.0736  0.6131
 5554TIP3   OH238296   1.493   4.296   8.330 -0.7249  0.6535 -0.8175
 5554TIP3    H138297   1.443   4.347   8.393  0.1020  0.5531 -0.0626
 5554TIP3    H238298   1.553   4.359   8.290 -0.3525  0.4586 -0.5655
 5555TIP3   OH238299   2.145   2.420   6.997 -0.5615  0.9057  0.0806
 5555TIP3    H138300   2.132   2.393   7.088 -1.8054 -0.4568 -0.4544
 5555TIP3    H238301   2.056   2.434   6.964 -0.4741 -2.4459 -1.9865
 5556TIP3   OH238302   1.801   2.219   8.574 -0.4089 -0.0371  0.4021
 5556TIP3    H138303   1.894   2.221   8.554 -0.5021 -0.9042 -0.1442
 5556TIP3    H238304   1.772   2.310   8.562 -0.3394 -0.3278 -2.9336
 5557TIP3   OH238305   5.990   6.608   7.515  0.4574 -0.1680 -0.1503
 5557TIP3    H138306   5.938   6.529   7.503 -1.9706  1.1729  0.9088
 5557TIP3    H238307   6.039   6.593   7.596 -1.0186 -0.1401  0.7935
 5558TIP3   OH238308   3.485   5.707   6.132  0.0392  0.7582 -0.0459
 5558TIP3    H138309   3.547   5.772   6.100  2.1522 -1.6735 -1.2690
 5558TIP3    H238310   3.415   5.706   6.066 -0.2138  1.9972  0.1839
 5559TIP3   OH238311   0.688   5.196   0.798  0.2561 -0.0423 -0.2898
 5559TIP3    H138312   0.771   5.221   0.839  0.3565  0.8192 -1.0167
 5559TIP3    H238313   0.644   5.145   0.866  0.2969  1.5876  1.0206
 5560TIP3   OH238314   3.917   5.160   8.729  0.2702 -0.2917 -0.3421
 5560TIP3    H138315   3.839   5.190   8.776  0.3245  0.5103 -0.7499
 5560TIP3    H238316   3.926   5.068   8.754 -1.6188 -0.8035 -1.3792
 5561TIP3   OH238317   4.829   0.346   7.082  0.4025  0.4255 -0.1457
 5561TIP3    H138318   4.864   0.378   7.166  2.0767  0.3433 -0.7770
 5561TIP3    H238319   4.785   0.422   7.045 -0.5187  0.4153  0.8728
 5562TIP3   OH238320   2.991   5.502   1.083 -0.2833 -0.5235 -0.0678
 5562TIP3    H138321   3.003   5.493   1.178 -1.7850 -2.1666  0.0138
 5562TIP3    H238322   2.975   5.595   1.069 -0.8079 -0.3760  1.3891
 5563TIP3   OH238323   4.917   6.475   0.328  0.1732 -0.4993 -0.0493
 5563TIP3    H138324   4.838   6.445   0.283  0.0107 -0.8912  0.4915
 5563TIP3    H238325   4.986   6.417   0.297  0.9892  1.7701 -3.0162
 5564TIP3   OH238326   4.739   0.957   0.379 -0.2823 -0.2733  0.3263
 5564TIP3    H138327   4.821   1.002   0.399 -0.1867 -0.6095  0.7139
 5564TIP3    H238328   4.694   1.015   0.318  0.7586 -0.6258 -0.8051
 5565TIP3   OH238329   4.683   5.563   7.865  0.1501  0.2984 -0.2095
 5565TIP3    H138330   4.747   5.495   7.848 -0.6721 -0.4038 -0.5505
 5565TIP3    H238331   4.735   5.643   7.874  0.9697 -0.0562 -1.6235
 5566TIP3   OH238332   2.861   4.980   0.968 -0.1814  0.2117  0.1139
 5566TIP3    H138333   2.914   4.955   0.892 -1.7261  0.9141 -1.2458
 5566TIP3    H238334   2.872   5.075   0.974  1.2448 -0.0132  1.8386
 5567TIP3   OH238335   1.482   0.132   1.090 -0.1780  0.6821 -0.3905
 5567TIP3    H138336   1.554   0.183   1.127 -1.0380  1.3522  0.3835
 5567TIP3    H238337   1.404   0.165   1.133 -0.8283 -0.8935 -0.3047
 5568TIP3   OH238338   0.677   5.839   0.038 -0.7790 -0.0207  0.4300
 5568TIP3    H138339   0.682   5.747   0.063  1.4391  0.2790  1.3494
 5568TIP3    H238340   0.625   5.880   0.107  0.9332 -0.0901  1.8346
 5569TIP3   OH238341   6.234   2.784   1.675  0.3527  0.1851 -0.6579
 5569TIP3    H138342   6.205   2.835   1.750 -0.4333 -0.8333 -0.2520
 5569TIP3    H238343   6.181   2.816   1.602  1.5529  1.6137 -0.9453
 5570TIP3   OH238344   6.084   5.865   8.174  0.2156  0.4559  0.3861
 5570TIP3    H138345   6.026   5.791   8.160  0.4778  0.4392 -0.7259
 5570TIP3    H238346   6.172   5.828   8.172  0.3325  0.7311  0.2354
 5571TIP3   OH238347   4.400   0.737   1.179 -0.0416 -0.1374 -0.1343
 5571TIP3    H138348   4.400   0.662   1.239 -0.4739  0.2169  0.3083
 5571TIP3    H238349   4.492   0.744   1.151 -0.1360 -1.3489 -0.8404
 5572TIP3   OH238350   1.035   5.687   0.923  0.0666  0.2009 -0.5306
 5572TIP3    H138351   0.940   5.688   0.913 -0.0416  1.7628  0.4106
 5572TIP3    H238352   1.061   5.779   0.919  1.2285  0.0569  1.8402
 5573TIP3   OH238353   6.547   4.839   0.856 -0.1285 -0.1084 -0.6087
 5573TIP3    H138354   6.518   4.807   0.770  1.2687 -0.9668 -0.7887
 5573TIP3    H238355   6.570   4.760   0.905  1.2256  0.4687 -0.2518
 5574TIP3   OH238356   1.367   1.895   8.614  0.3158  0.3800  0.6121
 5574TIP3    H138357   1.344   1.817   8.665  3.3290 -0.0597  1.4956
 5574TIP3    H238358   1.326   1.882   8.529 -1.8493 -0.6212  1.7438
 5575TIP3   OH238359   0.751   3.606   1.032  0.0704  0.2938 -0.0209
 5575TIP3    H138360   0.792   3.551   1.099 -0.8717 -0.6339 -0.1809
 5575TIP3    H238361   0.744   3.692   1.073  0.9719  0.1483  0.4740
 5576TIP3   OH238362   0.570   1.077   0.786  0.5685  0.9078  0.0557
 5576TIP3    H138363   0.564   1.030   0.703 -1.1777  1.6229 -0.2814
 5576TIP3    H238364   0.659   1.112   0.788  0.8241  0.3749 -1.2390
 5577TIP3   OH238365   5.842   2.418   1.678 -0.1718 -0.0866 -0.2490
 5577TIP3    H138366   5.748   2.408   1.686 -0.5336  2.0467 -1.2441
 5577TIP3    H238367   5.854   2.493   1.619  2.1411 -0.7862 -0.7899
 5578TIP3   OH238368   4.329   0.977   6.585  0.7105 -0.8144 -0.2791
 5578TIP3    H138369   4.246   0.991   6.630  1.4329 -1.7933  1.4629
 5578TIP3    H238370   4.345   1.059   6.538 -0.5667 -0.1048  0.4576
 5579TIP3   OH238371   5.165   1.998   8.038  0.4480  0.4380 -0.1502
 5579TIP3    H138372   5.193   2.078   7.993  2.8238 -0.7125 -0.8708
 5579TIP3    H238373   5.237   1.977   8.098 -0.2693 -1.0024  0.2605
 5580TIP3   OH238374   3.367   3.673   1.030  0.1240  0.1433  0.0989
 5580TIP3    H138375   3.455   3.639   1.050 -0.2221 -1.6487 -1.2122
 5580TIP3    H238376   3.382   3.765   1.007  1.6026 -0.0165  0.3214
 5581TIP3   OH238377   3.722   2.393   6.315  0.1761 -0.8946  0.0045
 5581TIP3    H138378   3.654   2.452   6.347  0.2438 -1.2507  0.8168
 5581TIP3    H238379   3.773   2.447   6.254 -1.6023 -0.9778 -1.6474
 5582TIP3   OH238380   3.061   0.210   0.016 -0.2195 -0.3321  0.2597
 5582TIP3    H138381   3.016   0.250  -0.058  0.9239 -0.3301 -0.4588
 5582TIP3    H238382   3.154   0.220  -0.003  0.1384  0.6382  2.2137
 5583TIP3   OH238383   1.873   3.325   6.512 -0.6467  0.5758  0.3697
 5583TIP3    H138384   1.895   3.281   6.594  1.4285 -1.4657 -1.1311
 5583TIP3    H238385   1.777   3.325   6.510 -0.7502  0.1476  2.4810
 5584TIP3   OH238386   5.986   6.535   2.048  0.0680  0.3213  0.2626
 5584TIP3    H138387   6.034   6.497   2.121  0.4636 -3.0602 -1.5612
 5584TIP3    H238388   5.913   6.475   2.033 -1.4144  2.2284 -0.6763
 5585TIP3   OH238389   5.301   6.261   6.592 -0.1160  0.2337 -0.5770
 5585TIP3    H138390   5.342   6.255   6.506  0.7113  0.4339 -0.2007
 5585TIP3    H238391   5.350   6.200   6.647 -0.8238 -0.1090 -0.3077
 5586TIP3   OH238392   0.222   1.836   8.365 -0.7397  0.3112 -0.3513
 5586TIP3    H138393   0.239   1.870   8.277 -2.0845  2.1883  0.0460
 5586TIP3    H238394   0.127   1.821   8.367 -0.6862  0.0237  0.6977
 5587TIP3   OH238395   2.037   2.429   7.809  0.4193 -0.7917  0.1383
 5587TIP3    H138396   1.951   2.428   7.766  1.2084  0.3148 -1.5447
 5587TIP3    H238397   2.020   2.464   7.897 -1.1042 -2.3663  0.5399
 5588TIP3   OH238398   1.806   5.458   2.623  0.4061  0.1467  0.3491
 5588TIP3    H138399   1.899   5.471   2.606  0.7471 -1.5464  0.7428
 5588TIP3    H238400   1.762   5.502   2.550  1.5807 -0.4978 -0.7935
 5589TIP3   OH238401   1.673   6.248   8.370  0.0679 -0.1762 -0.1432
 5589TIP3    H138402   1.758   6.290   8.389  0.4657 -0.1564 -1.8038
 5589TIP3    H238403   1.617   6.276   8.442  1.0675  1.0449  0.2206
 5590TIP3   OH238404   1.049   2.301   1.081  0.6021 -0.1870  0.2131
 5590TIP3    H138405   0.987   2.371   1.059  0.9052  0.2791  0.8174
 5590TIP3    H238406   0.997   2.236   1.126  0.2265 -0.5676 -0.7462
 5591TIP3   OH238407   3.997   6.090   8.328 -0.0604  0.0082 -0.1868
 5591TIP3    H138408   4.008   6.161   8.264 -1.0566  0.6374  0.3127
 5591TIP3    H238409   4.053   6.020   8.295  0.3322  0.7317 -1.1315
 5592TIP3   OH238410   1.872   2.100   0.428  0.4884  0.2501 -0.1001
 5592TIP3    H138411   1.802   2.162   0.449  0.0932  0.5010 -2.0205
 5592TIP3    H238412   1.847   2.062   0.344  1.5510 -1.3332  0.2453
 5593TIP3   OH238413   0.915   1.682   2.003  0.0482 -0.1182  0.2788
 5593TIP3    H138414   0.865   1.619   1.950  1.4217  0.4453 -1.8161
 5593TIP3    H238415   0.893   1.767   1.965 -0.6003  0.5596  2.0976
 5594TIP3   OH238416   6.136   6.335   6.827  0.4193 -0.2041  0.2413
 5594TIP3    H138417   6.153   6.257   6.774  0.6214 -0.6606  0.9634
 5594TIP3    H238418   6.167   6.311   6.915  1.2696  0.9749  0.2863
 5595TIP3   OH238419   0.998   2.782   0.877  0.6279  0.0571  0.1411
 5595TIP3    H138420   1.034   2.870   0.870  2.6232 -0.8434 -2.3340
 5595TIP3    H238421   1.075   2.725   0.885 -0.2092 -1.7848 -3.0897
 5596TIP3   OH238422   3.478   3.734   1.357  0.6195  0.4523  0.1456
 5596TIP3    H138423   3.534   3.671   1.311 -1.6449 -1.3072 -0.4030
 5596TIP3    H238424   3.475   3.702   1.447  1.5386  1.3489  0.5150
 5597TIP3   OH238425   6.812   2.451   0.862 -0.1616  0.1812 -0.2609
 5597TIP3    H138426   6.862   2.372   0.841  1.8023  1.1883  0.3062
 5597TIP3    H238427   6.760   2.428   0.939 -0.0862 -0.7297 -0.4765
 5598TIP3   OH238428   3.275   1.411   8.047  0.2675  0.1676 -0.1525
 5598TIP3    H138429   3.274   1.350   8.120  0.4501 -0.5240 -0.7178
 5598TIP3    H238430   3.342   1.376   7.987 -1.3648 -0.5107 -1.6673
 5599TIP3   OH238431   2.080   4.294   1.541  0.5518 -0.0949 -0.5649
 5599TIP3    H138432   2.060   4.335   1.456  1.3657 -1.1450 -1.2879
 5599TIP3    H238433   2.113   4.365   1.595 -0.0575  0.6094 -1.0989
 5600TIP3   OH238434   3.815   6.650   8.300  0.1765 -0.3277 -0.1961
 5600TIP3    H138435   3.820   6.628   8.393 -1.2007  1.0372  0.2444
 5600TIP3    H238436   3.725   6.630   8.275 -0.3303  2.0200 -0.4493
 5601TIP3   OH238437   1.672   3.750   1.247  0.4278 -0.3347  0.1435
 5601TIP3    H138438   1.715   3.834   1.234 -0.1617 -0.1942 -1.0912
 5601TIP3    H238439   1.584   3.763   1.210 -0.1182 -1.1021  1.1173
 5602TIP3   OH238440   0.683   0.752   8.243 -0.7070  0.6051  0.0365
 5602TIP3    H138441   0.672   0.711   8.157 -2.0627  0.5067  0.2345
 5602TIP3    H238442   0.708   0.680   8.301  0.5648  0.7325 -0.3242
 5603TIP3   OH238443   2.551   2.728   2.462 -0.9221 -0.5889 -0.6668
 5603TIP3    H138444   2.621   2.706   2.523 -1.0485  0.0198 -0.2984
 5603TIP3    H238445   2.488   2.777   2.514 -0.3254  1.2596 -1.5959
 5604TIP3   OH238446   3.450   5.151   0.066  0.4222 -0.4963 -0.3485
 5604TIP3    H138447   3.369   5.195   0.091  1.4544  0.9901  0.5433
 5604TIP3    H238448   3.427   5.058   0.063 -1.1953 -0.1485  0.3256
 5605TIP3   OH238449   1.207   5.775   1.683  0.0438  1.1973 -0.1213
 5605TIP3    H138450   1.111   5.769   1.682  0.1375 -2.4458  0.6696
 5605TIP3    H238451   1.233   5.734   1.765  2.3229 -1.9032 -2.1817
 5606TIP3   OH238452   5.002   6.171   7.998 -0.6201  0.1398  0.4454
 5606TIP3    H138453   4.914   6.139   7.978 -0.4307  0.7862 -1.7048
 5606TIP3    H238454   4.993   6.266   7.997  0.1622  0.2220 -0.2726
 5607TIP3   OH238455   1.775   0.238   7.500  0.0335  0.4009 -0.4120
 5607TIP3    H138456   1.813   0.151   7.488 -1.5417 -0.3574 -0.1372
 5607TIP3    H238457   1.705   0.243   7.434 -0.0343  1.3704 -0.2807
 5608TIP3   OH238458   1.612   3.477   1.853  0.8313  0.0218  0.0053
 5608TIP3    H138459   1.693   3.508   1.813  1.4206 -2.6186 -1.0294
 5608TIP3    H238460   1.633   3.390   1.886 -1.6536 -0.9252 -0.6610
 5609TIP3   OH238461   6.162   5.901   1.281  0.1128  0.3449 -0.0877
 5609TIP3    H138462   6.207   5.833   1.331 -1.0109 -0.1971  0.2244
 5609TIP3    H238463   6.106   5.853   1.221 -0.6889  0.9890  0.1308
 5610TIP3   OH238464   5.225   1.644   6.838 -0.0202  0.6298 -0.2766
 5610TIP3    H138465   5.193   1.733   6.850  1.5657  1.2968 -0.6443
 5610TIP3    H238466   5.169   1.607   6.770 -2.0836  0.5556  1.3552
 5611TIP3   OH238467   0.186   2.440   7.663  0.3666 -1.1296  0.5830
 5611TIP3    H138468   0.264   2.385   7.654 -1.2555 -3.3836 -0.7134
 5611TIP3    H238469   0.141   2.406   7.740  0.4793 -0.0186  1.1616
 5612TIP3   OH238470   5.824   4.362   8.581  1.0037 -0.3612 -0.1735
 5612TIP3    H138471   5.919   4.349   8.579  1.2106  0.5638  1.6951
 5612TIP3    H238472   5.788   4.280   8.547  2.4108 -2.3787  2.7794
 5613TIP3   OH238473   2.250   1.151   7.541 -0.1817 -0.0205  0.2758
 5613TIP3    H138474   2.228   1.104   7.622 -0.2413 -0.2213  0.1433
 5613TIP3    H238475   2.198   1.232   7.546 -0.4616 -0.1999  0.2679
 5614TIP3   OH238476   6.651   0.502   8.095  0.0567  0.3911 -0.1784
 5614TIP3    H138477   6.612   0.418   8.070  1.5420 -0.5697  0.6064
 5614TIP3    H238478   6.618   0.517   8.184 -0.6725  0.9549 -0.5321
 5615TIP3   OH238479   2.883   0.165   7.604 -0.0366  0.1577  0.3509
 5615TIP3    H138480   2.970   0.124   7.603  0.4534  1.1579 -0.2836
 5615TIP3    H238481   2.854   0.158   7.695  0.1071 -1.3779  0.3054
 5616TIP3   OH238482   6.091   2.232   6.844  0.0847 -0.2701  0.7437
 5616TIP3    H138483   6.124   2.174   6.776 -0.6170  1.2455 -0.9878
 5616TIP3    H238484   5.996   2.225   6.837 -0.0071  0.8433  0.6627
 5617TIP3   OH238485   6.417   3.666   8.689 -0.7588 -0.2329 -0.4855
 5617TIP3    H138486   6.365   3.627   8.618 -0.6872 -0.4924 -0.3947
 5617TIP3    H238487   6.458   3.591   8.732  0.2026  0.0086 -0.9525
 5618TIP3   OH238488   0.874   2.919   0.398  0.6253 -0.5513 -0.1983
 5618TIP3    H138489   0.833   2.905   0.312  0.3142 -0.6612 -0.0355
 5618TIP3    H238490   0.910   2.834   0.421  0.7053 -0.5227 -0.2156
 5619TIP3   OH238491   3.972   0.071   0.881 -0.3612 -0.5470  0.1070
 5619TIP3    H138492   3.968  -0.013   0.927 -0.8799 -2.0809 -2.5246
 5619TIP3    H238493   4.065   0.089   0.871 -0.2416 -0.9641  0.4405
 5620TIP3   OH238494   2.352   0.782   7.714 -0.2290 -0.2842  0.7932
 5620TIP3    H138495   2.368   0.824   7.629  0.7743 -1.2688  0.4750
 5620TIP3    H238496   2.310   0.850   7.767  0.4542  0.7973 -0.0192
 5621TIP3   OH238497   3.012   5.555   1.347  0.4695 -0.4323  0.0061
 5621TIP3    H138498   2.972   5.492   1.406  0.7938  0.4750  1.2392
 5621TIP3    H238499   3.053   5.619   1.405  1.9330 -0.2119 -1.2028
 5622TIP3   OH238500   4.807   3.798   1.062  0.0334 -0.0032  0.3580
 5622TIP3    H138501   4.823   3.733   1.130  2.2207 -0.9151 -0.9101
 5622TIP3    H238502   4.843   3.759   0.983  1.2014  2.6246 -0.5153
 5623TIP3   OH238503   0.006   2.290   1.806 -0.2065 -0.6553  0.3812
 5623TIP3    H138504  -0.078   2.267   1.767 -1.1279  0.3123  1.6911
 5623TIP3    H238505  -0.016   2.351   1.876  1.7588  1.1841 -0.4921
 5624TIP3   OH238506   5.035   2.606   0.671  0.5745  0.6797 -0.0895
 5624TIP3    H138507   5.058   2.636   0.759  0.4047  1.2223 -0.2264
 5624TIP3    H238508   4.940   2.602   0.670  0.5987 -1.9551  0.6023
 5625TIP3   OH238509   2.715   2.538   0.876 -0.5115  0.1173 -0.1245
 5625TIP3    H138510   2.641   2.569   0.929  0.1207  0.1641  0.7635
 5625TIP3    H238511   2.778   2.610   0.879 -0.7480  0.4177 -1.5647
 5626TIP3   OH238512   0.035   2.111   8.375  0.7912  0.0316  0.2681
 5626TIP3    H138513  -0.046   2.134   8.331  1.0537 -1.8304 -1.3725
 5626TIP3    H238514   0.104   2.151   8.321  1.0475 -0.9521 -0.1679
 5627TIP3   OH238515   2.765   5.757   6.678  0.2381  0.5349 -0.3537
 5627TIP3    H138516   2.830   5.819   6.711  0.2466  0.9401 -1.1140
 5627TIP3    H238517   2.755   5.780   6.586 -0.7320  0.2479 -0.3294
 5628TIP3   OH238518   5.080   3.518   7.810 -0.8194  0.4760  0.1208
 5628TIP3    H138519   5.128   3.569   7.876 -1.1839 -0.7619  1.3856
 5628TIP3    H238520   5.019   3.465   7.861 -1.1098 -0.5244 -1.2278
 5629TIP3   OH238521   1.645   0.595   1.603  0.5905  0.4137 -0.5334
 5629TIP3    H138522   1.714   0.640   1.651  0.7960  1.2477 -1.5763
 5629TIP3    H238523   1.571   0.592   1.664  1.2781  0.2330  0.3040
 5630TIP3   OH238524   2.113   2.257   8.548  0.1535 -0.5654 -0.3954
 5630TIP3    H138525   2.119   2.313   8.625 -1.7867 -0.0391 -0.5836
 5630TIP3    H238526   2.174   2.296   8.486  2.3140 -1.4312  1.0770
 5631TIP3   OH238527   6.504   2.038   8.331 -0.0162 -0.0155 -0.0783
 5631TIP3    H138528   6.464   2.089   8.401  1.3089  1.1984 -0.1440
 5631TIP3    H238529   6.555   2.102   8.281  0.6645 -1.1937 -0.9519
 5632TIP3   OH238530   1.086   3.662   1.144 -0.0730 -0.3011  0.4780
 5632TIP3    H138531   1.068   3.754   1.126  0.6169  0.0929  1.7093
 5632TIP3    H238532   1.182   3.656   1.141 -0.1415 -1.3184 -1.0944
 5633TIP3   OH238533   1.052   4.160   1.348  0.2912 -0.5207 -0.0635
 5633TIP3    H138534   1.124   4.212   1.385 -0.0087  1.3602 -1.9766
 5633TIP3    H238535   1.077   4.146   1.257 -0.2576 -2.7355  0.0744
 5634TIP3   OH238536   2.170   4.830   1.731  0.3874  0.2214 -0.1389
 5634TIP3    H138537   2.180   4.795   1.820  1.4591  0.2683 -0.2271
 5634TIP3    H238538   2.208   4.763   1.675 -1.5973 -0.4766 -0.7149
 5635TIP3   OH238539   6.737   2.860   7.280 -0.2644  0.3268 -0.1091
 5635TIP3    H138540   6.796   2.868   7.205  1.4710 -0.0543  1.1441
 5635TIP3    H238541   6.785   2.900   7.353 -0.6024 -1.8744  1.4366
 5636TIP3   OH238542   6.024   6.133   1.610  0.1223 -0.4177  0.3499
 5636TIP3    H138543   6.052   6.048   1.644 -0.4726 -0.7215  0.0825
 5636TIP3    H238544   6.105   6.176   1.583  0.3133 -1.4422 -0.7650
 5637TIP3   OH238545   2.482   3.324   1.933 -0.2835 -0.3758 -0.0221
 5637TIP3    H138546   2.546   3.348   1.865  0.6639 -2.0340  0.2142
 5637TIP3    H238547   2.529   3.335   2.015 -0.3459 -1.3936  0.1692
 5638TIP3   OH238548   0.905   5.271   8.156  0.1840  0.8099 -0.1568
 5638TIP3    H138549   0.875   5.334   8.091  0.8025  0.1388 -1.1165
 5638TIP3    H238550   0.834   5.266   8.220 -0.6266  1.1573 -1.0110
 5639TIP3   OH238551   4.298   5.643   0.975 -0.1137 -0.2748 -0.5846
 5639TIP3    H138552   4.315   5.636   1.069  1.2369 -1.5081 -0.8887
 5639TIP3    H238553   4.294   5.737   0.958  0.7765 -0.0178  0.5101
 5640TIP3   OH238554   4.096   5.403   7.725 -0.6718 -0.4300  0.6655
 5640TIP3    H138555   4.115   5.425   7.816 -1.5910 -0.2472  0.8199
 5640TIP3    H238556   4.177   5.363   7.692  0.3069  1.1873  1.0103
 5641TIP3   OH238557   0.097   4.768   0.539  0.1203  0.1017  0.0776
 5641TIP3    H138558   0.051   4.852   0.539  1.3181  0.7736  0.3419
 5641TIP3    H238559   0.080   4.732   0.451 -1.3462  0.0617  0.3531
 5642TIP3   OH238560   1.195   1.666   0.533 -0.2728 -0.2725  0.8171
 5642TIP3    H138561   1.128   1.598   0.538  2.6931 -3.6611 -1.0002
 5642TIP3    H238562   1.237   1.666   0.619  1.0999 -2.4562  0.2103
 5643TIP3   OH238563   6.094   4.454   7.391  0.6608  0.4110  0.5059
 5643TIP3    H138564   6.023   4.504   7.349 -0.8717 -2.9142 -1.2780
 5643TIP3    H238565   6.136   4.407   7.318  0.4321 -2.6674  2.2028
 5644TIP3   OH238566   3.993   1.362   6.963  0.1066 -0.3374 -0.0493
 5644TIP3    H138567   4.013   1.427   7.029  0.0261 -0.7217  0.3565
 5644TIP3    H238568   3.897   1.358   6.960  0.0944  0.1426 -0.6535
 5645TIP3   OH238569   2.617   6.043   8.493  0.3014  0.1569 -0.1276
 5645TIP3    H138570   2.663   5.960   8.506 -0.0887 -0.3653 -1.8212
 5645TIP3    H238571   2.663   6.086   8.421 -0.8568  0.3488 -0.7857
 5646TIP3   OH238572   6.173   5.107   7.564 -0.6793  0.2071 -0.0614
 5646TIP3    H138573   6.097   5.162   7.583 -0.6422  1.1555 -2.3046
 5646TIP3    H238574   6.235   5.127   7.634 -1.8996  0.5768  0.9498
 5647TIP3   OH238575   6.706   4.947   7.173  0.1001  0.2479  0.0990
 5647TIP3    H138576   6.748   4.867   7.202 -0.9883 -0.6653 -0.7755
 5647TIP3    H238577   6.766   5.017   7.200 -0.2355 -0.5849  3.4191
 5648TIP3   OH238578   4.330   1.755   8.842 -0.3051 -0.1028 -0.2208
 5648TIP3    H138579   4.324   1.833   8.898 -0.1096  1.1138 -1.8418
 5648TIP3    H238580   4.372   1.689   8.898  1.4873  1.5860  0.5347
 5649TIP3   OH238581   3.242   3.016   1.604 -0.3957 -0.5549 -0.1491
 5649TIP3    H138582   3.304   3.042   1.537 -0.7114  0.3498 -0.0989
 5649TIP3    H238583   3.290   3.025   1.686 -1.1543  2.1511  0.0913
 5650TIP3   OH238584   3.727   1.874   7.220 -0.2555  0.4439  0.1555
 5650TIP3    H138585   3.723   1.923   7.138  0.4394  0.9107  0.3852
 5650TIP3    H238586   3.741   1.941   7.287 -1.1221  0.0989  0.6995
 5651TIP3   OH238587   0.567   1.997   0.977  0.0089  1.0861  0.5107
 5651TIP3    H138588   0.485   1.949   0.969  0.3442  0.0001  2.7995
 5651TIP3    H238589   0.556   2.074   0.921 -0.1218 -2.0457 -4.3299
 5652TIP3   OH238590   1.916   6.786   7.945 -0.1510 -0.2360  0.3309
 5652TIP3    H138591   1.834   6.747   7.974 -0.4898  0.6661  0.6470
 5652TIP3    H238592   1.958   6.816   8.025  0.0126  0.1963  0.0883
 5653TIP3   OH238593   5.398   6.269   7.875  0.3897  0.6321  0.1381
 5653TIP3    H138594   5.375   6.328   7.804  0.3248  0.8386  0.3315
 5653TIP3    H238595   5.419   6.326   7.949  1.4328  0.4465 -0.0028
 5654TIP3   OH238596   1.112   1.763   7.571  0.4247 -0.0906  0.1928
 5654TIP3    H138597   1.140   1.774   7.661 -1.4544 -2.9757  1.2847
 5654TIP3    H238598   1.043   1.828   7.559 -0.6711 -0.9548  1.5612
 5655TIP3   OH238599   0.840   1.725   7.524 -0.4652 -0.2600 -0.5210
 5655TIP3    H138600   0.894   1.730   7.603  0.1543  3.2351 -0.9826
 5655TIP3    H238601   0.777   1.797   7.534 -1.8779 -1.1793 -2.2138
 5656TIP3   OH238602   2.535   1.226   7.489 -0.4486 -0.4385  0.0979
 5656TIP3    H138603   2.443   1.201   7.482 -0.4948 -0.5739  1.0371
 5656TIP3    H238604   2.558   1.258   7.402 -1.0924 -1.3854 -0.4399
 5657TIP3   OH238605   3.644   4.186   0.977 -0.3262  0.2106  0.4862
 5657TIP3    H138606   3.652   4.158   0.886  2.0735  0.5854  0.5011
 5657TIP3    H238607   3.690   4.119   1.027  0.3587  1.1393  1.1511
 5658TIP3   OH238608   1.085   3.383   2.801  0.4733 -0.2096  0.1356
 5658TIP3    H138609   1.086   3.297   2.844  2.1780 -0.3425 -0.0900
 5658TIP3    H238610   0.998   3.417   2.817  0.1956 -1.4195  1.3768
 5659TIP3   OH238611   3.845   5.794   7.436 -0.0907 -0.3659 -0.1847
 5659TIP3    H138612   3.825   5.755   7.521 -2.9276 -1.1209 -1.0801
 5659TIP3    H238613   3.868   5.884   7.456 -1.4300 -0.3171  1.3756
 5660TIP3   OH238614   6.749   6.168   7.754 -0.0843  0.2659 -0.3114
 5660TIP3    H138615   6.660   6.185   7.721 -0.3934  0.2526  0.4753
 5660TIP3    H238616   6.743   6.082   7.796  0.3685  0.1518 -0.4761
 5661TIP3   OH238617   1.653   4.864   8.256 -0.0233 -0.0730 -0.1082
 5661TIP3    H138618   1.738   4.848   8.214  0.3179 -1.1202  0.9260
 5661TIP3    H238619   1.635   4.784   8.305 -0.8005  0.8066  1.0837
 5662TIP3   OH238620   0.907   0.694   1.947 -0.1769 -0.6044 -0.4294
 5662TIP3    H138621   0.927   0.692   2.041  0.0116  1.9287 -0.3741
 5662TIP3    H238622   0.992   0.696   1.904 -0.1933  2.1530 -0.4654
 5663TIP3   OH238623   2.032   1.063   8.374  0.3478 -0.4612  0.5324
 5663TIP3    H138624   2.122   1.031   8.380  0.4539 -0.3703 -0.5255
 5663TIP3    H238625   1.978   0.986   8.391  0.6092 -0.9501 -0.7962
 5664TIP3   OH238626   2.002   3.734   7.795  0.6829 -0.4826  0.1703
 5664TIP3    H138627   1.993   3.817   7.843  0.1368  0.5686 -1.6756
 5664TIP3    H238628   1.981   3.667   7.861 -2.2287  0.9757  0.9347
 5665TIP3   OH238629   4.858   2.427   7.978  0.3474  0.1710  0.3248
 5665TIP3    H138630   4.874   2.381   7.896 -1.9034  0.8721 -0.5796
 5665TIP3    H238631   4.823   2.512   7.952 -1.0613  0.1582  1.9913
 5666TIP3   OH238632   5.447   2.699   2.229 -0.1076 -0.0121  0.3424
 5666TIP3    H138633   5.446   2.674   2.137  0.5185  3.2631 -0.6512
 5666TIP3    H238634   5.532   2.671   2.261  0.6206  0.8744 -0.7478
 5667TIP3   OH238635   6.578   5.968   7.450 -0.5719 -0.9239  0.0192
 5667TIP3    H138636   6.547   5.957   7.360  3.6591  2.5764 -2.2385
 5667TIP3    H238637   6.640   5.896   7.463  1.9564  0.7721 -1.7116
 5668TIP3   OH238638   0.452   4.524   7.370  0.8659 -0.0544  0.1144
 5668TIP3    H138639   0.445   4.602   7.316  1.9041 -0.0918 -0.0959
 5668TIP3    H238640   0.362   4.494   7.382  0.5988  0.1496 -1.3076
 5669TIP3   OH238641   1.514   1.109   0.525  0.0721  0.4496 -0.2946
 5669TIP3    H138642   1.509   1.068   0.439  1.6122  1.7176 -1.0290
 5669TIP3    H238643   1.468   1.192   0.516 -1.9776 -0.4788  0.8596
 5670TIP3   OH238644   3.418   1.329   8.293  0.0135 -0.0014 -0.2232
 5670TIP3    H138645   3.338   1.351   8.342  1.8031  0.4424  2.7222
 5670TIP3    H238646   3.438   1.239   8.319  1.3251  0.4392  0.3304
 5671TIP3   OH238647   3.079   1.015   0.462  0.0805 -0.0041 -0.2995
 5671TIP3    H138648   3.039   0.989   0.379  0.7947 -2.3889  0.0093
 5671TIP3    H238649   3.004   1.025   0.522 -0.3979 -4.8775  0.3951
 5672TIP3   OH238650   1.730   5.858   7.538 -0.3872 -0.1968 -0.2190
 5672TIP3    H138651   1.755   5.776   7.496  2.0793 -0.5932  1.7952
 5672TIP3    H238652   1.783   5.925   7.494 -1.9723  0.3017 -1.4665
 5673TIP3   OH238653   0.087   2.284   0.090 -0.1570  0.3102  0.6765
 5673TIP3    H138654   0.019   2.347   0.118  1.3244  1.3802  2.0734
 5673TIP3    H238655   0.122   2.250   0.172 -0.0308 -1.4082 -0.0581
 5674TIP3   OH238656   0.748   2.380   1.523 -0.3675  0.0157  0.0616
 5674TIP3    H138657   0.816   2.347   1.464 -1.1816 -0.3752 -0.6964
 5674TIP3    H238658   0.666   2.360   1.477 -0.9943  0.3708  1.0041
 5675TIP3   OH238659   1.646   0.404   0.295  1.3223  0.3159 -0.4249
 5675TIP3    H138660   1.569   0.459   0.303  0.9540 -0.1897 -0.4280
 5675TIP3    H238661   1.652   0.358   0.379  1.2751 -0.0799 -0.6326
 5676TIP3   OH238662   3.066   0.906   7.720 -0.2729  0.2255  0.0227
 5676TIP3    H138663   3.145   0.858   7.743 -1.0381 -1.2535 -0.3161
 5676TIP3    H238664   3.045   0.958   7.798  0.7348  0.2553  0.2873
 5677TIP3   OH238665   5.726   2.231   1.238  0.8574 -0.0131 -0.2259
 5677TIP3    H138666   5.751   2.183   1.317  1.5309  0.9275  0.1528
 5677TIP3    H238667   5.633   2.253   1.252  0.6432 -0.8728 -0.2478
 5678TIP3   OH238668   3.922   3.822   1.722 -0.3525 -0.8435  0.1392
 5678TIP3    H138669   3.966   3.845   1.804 -2.7636 -2.5512  2.0565
 5678TIP3    H238670   3.830   3.810   1.747 -1.1640 -1.5231 -2.8227
 5679TIP3   OH238671   3.636   3.357   0.521 -0.2257  0.5023 -0.1866
 5679TIP3    H138672   3.649   3.432   0.462 -2.5732  1.2310  0.1146
 5679TIP3    H238673   3.658   3.392   0.608  1.0971  0.0712 -0.3272
 5680TIP3   OH238674   4.030   0.403   7.351 -0.9436  0.7252  0.4355
 5680TIP3    H138675   4.063   0.351   7.424  0.0334  1.0459  0.2355
 5680TIP3    H238676   4.109   0.439   7.309 -1.4570  0.2647 -0.9859
 5681TIP3   OH238677   0.490   4.178   2.316 -0.6175 -0.1547  0.1377
 5681TIP3    H138678   0.404   4.139   2.301 -1.2774  1.4647 -0.4820
 5681TIP3    H238679   0.514   4.149   2.404 -1.5028 -1.1259  0.0842
 5682TIP3   OH238680   2.674   2.150   8.225 -0.2332 -0.1174  0.3306
 5682TIP3    H138681   2.683   2.059   8.254  2.3248  0.0553  0.3458
 5682TIP3    H238682   2.672   2.144   8.129 -1.7067 -0.2439  0.3418
 5683TIP3   OH238683   2.102   5.967   1.154 -0.5292 -0.3178  0.8901
 5683TIP3    H138684   2.020   5.999   1.193 -2.7209 -1.8017 -2.0881
 5683TIP3    H238685   2.087   5.873   1.141  1.8585 -0.7165  0.6093
 5684TIP3   OH238686   3.351   4.881   7.913  0.1386  0.5824 -0.3308
 5684TIP3    H138687   3.289   4.893   7.842  0.9491 -3.0914 -1.8536
 5684TIP3    H238688   3.301   4.837   7.982  0.4582 -0.2133 -0.5969
 5685TIP3   OH238689   0.290   5.244   0.568 -0.2820 -0.1461 -0.2689
 5685TIP3    H138690   0.211   5.265   0.618 -0.3865  0.0186 -0.5025
 5685TIP3    H238691   0.353   5.312   0.591 -0.9769  1.1123 -1.8634
 5686TIP3   OH238692   4.024   4.739   0.510 -0.1639  0.1144 -0.1833
 5686TIP3    H138693   4.056   4.682   0.580  1.4526  0.8717 -0.2612
 5686TIP3    H238694   3.988   4.679   0.445  2.0119 -0.9065 -0.5321
 5687TIP3   OH238695   4.072   6.119   1.820  0.1524 -0.5423 -0.4810
 5687TIP3    H138696   4.051   6.026   1.833  1.3360 -0.4920  3.1019
 5687TIP3    H238697   3.998   6.166   1.859  1.4293 -0.1587  1.6428
 5688TIP3   OH238698   3.318   3.486   8.416  0.0392 -0.1333  0.2102
 5688TIP3    H138699   3.328   3.453   8.505 -1.9448 -4.4318 -0.8517
 5688TIP3    H238700   3.394   3.451   8.369 -0.8447 -1.2271 -0.4624
 5689TIP3   OH238701   6.112   4.914   1.036  0.0839  0.1181  0.1208
 5689TIP3    H138702   6.079   4.967   1.108  0.0880  1.3560 -0.7511
 5689TIP3    H238703   6.206   4.932   1.033  0.4754 -1.5582  1.0982
 5690TIP3   OH238704   1.276   3.582   7.749 -0.7294  0.0908  0.5636
 5690TIP3    H138705   1.203   3.641   7.733 -1.6950 -1.4090 -1.0255
 5690TIP3    H238706   1.332   3.592   7.672 -1.1338 -1.3061  0.0458
 5691TIP3   OH238707   5.997   2.180   7.780 -0.1603 -0.0790 -0.3737
 5691TIP3    H138708   5.905   2.177   7.754 -0.0894 -0.6764 -0.5941
 5691TIP3    H238709   5.996   2.166   7.874 -0.3631  1.1151 -0.1918
 5692TIP3   OH238710   1.797   6.251   1.271 -0.4268 -0.5483  0.6411
 5692TIP3    H138711   1.863   6.235   1.339  2.4285 -1.2261 -2.0570
 5692TIP3    H238712   1.802   6.345   1.255  1.6675 -0.8599 -1.0402
 5693TIP3   OH238713   4.065   1.949   1.275  0.2651 -0.5071 -0.0607
 5693TIP3    H138714   4.126   1.985   1.211  0.4806 -0.1232  0.3526
 5693TIP3    H238715   4.102   1.863   1.298 -0.5169 -1.2389 -1.4207
 5694TIP3   OH238716   6.085   4.250   8.425 -0.0418 -0.3436  0.5921
 5694TIP3    H138717   6.051   4.247   8.336  3.1934 -1.0753 -0.7741
 5694TIP3    H238718   6.109   4.160   8.444  1.8606  0.2002  1.0253
 5695TIP3   OH238719   3.223   6.557   7.446 -0.3334  0.0773 -0.2748
 5695TIP3    H138720   3.155   6.504   7.487  1.5142  1.0552  4.8297
 5695TIP3    H238721   3.195   6.648   7.460  0.5291  0.4893 -1.0648
 5696TIP3   OH238722   2.182   3.906   0.763  0.1625  0.2775  0.2736
 5696TIP3    H138723   2.186   4.001   0.771  0.5351  0.3523 -0.6434
 5696TIP3    H238724   2.101   3.889   0.716 -0.0462  0.1247  0.6909
 5697TIP3   OH238725   2.055   5.964   7.093 -0.3536  0.8087 -0.1803
 5697TIP3    H138726   2.112   5.932   7.023 -0.1809  1.1013 -0.1740
 5697TIP3    H238727   2.007   5.886   7.122 -1.9627  1.0065 -2.0140
 5698TIP3   OH238728   4.291   1.315   0.115  0.2941 -1.0236 -0.4240
 5698TIP3    H138729   4.199   1.342   0.107  0.9218  0.9887 -1.4062
 5698TIP3    H238730   4.328   1.374   0.179  1.7429  0.6962 -2.7091
 5699TIP3   OH238731   3.798   3.846   1.125 -0.5874  0.1362 -0.3226
 5699TIP3    H138732   3.853   3.856   1.202  0.1464  0.8252 -0.9130
 5699TIP3    H238733   3.759   3.759   1.133 -0.0533 -0.0286  0.5200
 5700TIP3   OH238734   0.020   0.658   8.322  0.5313 -0.1247  0.0412
 5700TIP3    H138735   0.039   0.712   8.399 -1.5972  0.8017 -0.0186
 5700TIP3    H238736   0.030   0.718   8.248 -1.2572  0.0742 -0.0745
 5701TIP3   OH238737   6.807   0.066   8.562  0.3626 -0.0002  0.6615
 5701TIP3    H138738   6.766   0.105   8.485 -0.0462  1.5295  1.6135
 5701TIP3    H238739   6.879   0.013   8.526 -0.1481  0.2296 -0.7852
 5702TIP3   OH238740   2.240   1.390   8.837  0.1167 -0.3231  0.5376
 5702TIP3    H138741   2.222   1.328   8.907  0.8750 -0.6774  0.4239
 5702TIP3    H238742   2.333   1.377   8.815  0.4301  1.1560  0.8326
 5703TIP3   OH238743   2.017   0.807   2.191  0.2333 -0.4200 -0.4957
 5703TIP3    H138744   1.942   0.861   2.165 -1.0021 -2.0504 -0.4833
 5703TIP3    H238745   2.036   0.833   2.281 -0.8016 -0.4809 -0.2448
 5704TIP3   OH238746   6.280   1.508   0.067 -0.5161  0.1082 -0.8600
 5704TIP3    H138747   6.347   1.470   0.124 -1.4726  0.5532  0.6161
 5704TIP3    H238748   6.274   1.599   0.095  0.5144  0.9893 -3.1847
 5705TIP3   OH238749   4.219   1.237   1.929  0.0001  0.0712 -1.2613
 5705TIP3    H138750   4.264   1.153   1.928  0.7922  0.4088  0.9154
 5705TIP3    H238751   4.132   1.218   1.893 -0.2872 -1.9714  0.3548
 5706TIP3   OH238752   3.500   1.804   7.480 -0.2598 -0.0708 -0.3961
 5706TIP3    H138753   3.481   1.879   7.537  0.0863 -0.3069  0.0355
 5706TIP3    H238754   3.457   1.825   7.398 -0.6562  0.3404 -0.0897
 5707TIP3   OH238755   6.562   2.727   2.637 -0.0833  0.2130  0.1793
 5707TIP3    H138756   6.647   2.726   2.592  0.8684 -0.7640  1.9163
 5707TIP3    H238757   6.552   2.638   2.671 -2.3050  0.0095 -0.8209
 5708TIP3   OH238758   1.155   4.624   8.653  0.2650 -0.0326  0.0317
 5708TIP3    H138759   1.073   4.659   8.687 -0.1148 -0.0263 -0.8596
 5708TIP3    H238760   1.150   4.530   8.669  1.6127  0.3011  3.1213
 5709TIP3   OH238761   6.595   6.347   8.070 -0.2113  0.0979  0.2068
 5709TIP3    H138762   6.618   6.439   8.086 -2.7516  0.3802  3.1214
 5709TIP3    H238763   6.615   6.302   8.152  0.5989 -1.9314 -1.0332
 5710TIP3   OH238764   1.475   5.568   7.700 -0.1108 -0.5451  0.0332
 5710TIP3    H138765   1.542   5.581   7.768  0.7340 -0.6532 -0.7587
 5710TIP3    H238766   1.392   5.579   7.746  0.4570  1.5949  0.6749
 5711TIP3   OH238767   6.324   5.725   7.864  0.5762  0.1630  0.4878
 5711TIP3    H138768   6.318   5.670   7.785 -3.1755 -1.8851  1.9265
 5711TIP3    H238769   6.281   5.807   7.839  2.4092  0.8939 -0.4519
 5712TIP3   OH238770   4.343   5.348   0.664  0.6438 -0.0244 -0.0318
 5712TIP3    H138771   4.367   5.409   0.733  0.1279  1.6791 -1.2953
 5712TIP3    H238772   4.282   5.287   0.706 -0.8672  1.8934  0.6902
 5713TIP3   OH238773   2.881   4.968   8.759 -0.4943 -0.5968 -0.1078
 5713TIP3    H138774   2.926   5.012   8.687  0.0028  0.2416  0.6957
 5713TIP3    H238775   2.797   5.013   8.766  0.4362  1.0236  1.4099
 5714TIP3   OH238776   4.250   1.882   0.745 -0.9903  0.5037 -0.4389
 5714TIP3    H138777   4.334   1.852   0.781 -1.3065 -0.5573 -0.5367
 5714TIP3    H238778   4.215   1.805   0.700 -1.8914  1.0149 -0.6306
 5715TIP3   OH238779   0.651   5.921   0.646  0.3727 -0.1458  0.1292
 5715TIP3    H138780   0.567   5.931   0.602  0.7436 -1.2511 -0.8773
 5715TIP3    H238781   0.688   6.010   0.647 -0.3670  0.1751 -0.3204
 5716TIP3   OH238782   1.617   2.647   1.087 -0.4136 -0.1750  0.7402
 5716TIP3    H138783   1.672   2.576   1.054 -1.2847 -0.5245 -0.0218
 5716TIP3    H238784   1.563   2.605   1.155 -1.6607 -0.5331 -0.4242
 5717TIP3   OH238785   1.896   1.568   7.618 -0.4086  0.0786  0.2456
 5717TIP3    H138786   1.840   1.637   7.581 -1.5047  1.1487  3.4611
 5717TIP3    H238787   1.841   1.529   7.687  1.7918 -0.8791  1.5447
 5718TIP3   OH238788   0.236   1.936   0.737 -0.2786 -0.0065  0.4087
 5718TIP3    H138789   0.162   1.955   0.679  0.3827 -0.7557 -0.7010
 5718TIP3    H238790   0.301   2.003   0.716  0.6032 -1.2185 -0.9154
 5719TIP3   OH238791   5.678   4.159   0.731 -0.1059  0.0924 -0.4598
 5719TIP3    H138792   5.698   4.174   0.823 -0.2376 -0.5155 -0.3350
 5719TIP3    H238793   5.631   4.076   0.729 -0.3006  0.2139 -1.0503
 5720TIP3   OH238794   2.148   0.618   7.672 -0.2414 -0.0153 -0.4465
 5720TIP3    H138795   2.239   0.638   7.689  0.2967 -1.0934 -1.8324
 5720TIP3    H238796   2.133   0.533   7.714 -0.1101 -0.6233 -1.5702
 5721TIP3   OH238797   4.468   2.740   0.339 -0.5429 -0.1300  0.4784
 5721TIP3    H138798   4.445   2.731   0.246 -1.5724 -0.8099  0.7718
 5721TIP3    H238799   4.394   2.701   0.385  1.0132 -2.0576  1.5212
 5722TIP3   OH238800   1.640   2.351   2.238  0.2009  0.2507  0.0493
 5722TIP3    H138801   1.732   2.331   2.252  0.3783 -0.0027 -1.3747
 5722TIP3    H238802   1.601   2.343   2.325  1.5145  0.3944  0.6798
 5723TIP3   OH238803   1.134   3.483   2.555 -0.1681 -0.4737 -0.7786
 5723TIP3    H138804   1.133   3.459   2.648  1.0914  0.8437 -0.3697
 5723TIP3    H238805   1.053   3.531   2.542 -1.7622 -3.0742 -1.1299
 5724TIP3   OH238806   2.692   0.845   8.236 -0.0772 -0.5292 -0.7479
 5724TIP3    H138807   2.652   0.916   8.286  0.9304  0.3602 -1.1606
 5724TIP3    H238808   2.645   0.844   8.153 -1.5958 -1.8545  0.0663
 5725TIP3   OH238809   1.445   6.677   8.358  0.2226  0.3189  0.0898
 5725TIP3    H138810   1.398   6.596   8.337 -1.4970  1.5249 -1.0631
 5725TIP3    H238811   1.492   6.699   8.277  1.4229  0.0190  0.6911
 5726TIP3   OH238812   2.050   2.439   6.649  0.1763  0.0378 -0.3083
 5726TIP3    H138813   1.983   2.465   6.711 -1.1897 -1.0213 -1.2697
 5726TIP3    H238814   2.097   2.368   6.692  0.9599  1.0181  0.5100
 5727TIP3   OH238815   0.968   2.990   1.565  0.4186 -0.2682 -0.6864
 5727TIP3    H138816   0.992   2.995   1.658  2.4351 -0.4490 -1.1382
 5727TIP3    H238817   1.052   2.986   1.520 -0.5068  0.6893 -2.5922
 5728TIP3   OH238818   3.857   4.383   6.918  0.1649 -0.1006  0.0485
 5728TIP3    H138819   3.802   4.316   6.959  0.2455 -1.1405 -1.4810
 5728TIP3    H238820   3.831   4.384   6.826  0.9406  1.1973 -0.1928
 5729TIP3   OH238821   4.593   4.650   1.405  0.0978 -0.1686  1.0179
 5729TIP3    H138822   4.513   4.653   1.353  0.9071  0.7112 -0.2395
 5729TIP3    H238823   4.631   4.738   1.395  1.0810 -0.4895  1.8144
 5730TIP3   OH238824   4.283   5.205   2.270  0.2044 -0.2139 -0.8802
 5730TIP3    H138825   4.207   5.152   2.293  0.7804  0.4292  3.2579
 5730TIP3    H238826   4.251   5.295   2.275  1.1934  0.0871  1.3859
 5731TIP3   OH238827   3.122   4.384   0.920 -0.5053  0.4257  0.2796
 5731TIP3    H138828   3.116   4.473   0.885  0.3961  0.3401 -0.1103
 5731TIP3    H238829   3.148   4.395   1.011  1.5003  0.5272 -0.2628
 5732TIP3   OH238830   6.455   0.473   6.426 -0.3762 -0.2769  0.1912
 5732TIP3    H138831   6.363   0.497   6.417  0.1917  1.5281 -1.6240
 5732TIP3    H238832   6.463   0.388   6.383 -1.0461  0.0261 -0.5593
 5733TIP3   OH238833   0.886   0.382   0.157 -0.5473 -0.0590 -0.5397
 5733TIP3    H138834   0.849   0.390   0.245  1.0995 -1.2923  0.3385
 5733TIP3    H238835   0.815   0.343   0.105 -1.2039 -0.3200  0.5098
 5734TIP3   OH238836   2.553   4.511   1.335 -0.6760 -0.0261 -0.2990
 5734TIP3    H138837   2.582   4.517   1.426 -0.4178  0.9843 -0.4314
 5734TIP3    H238838   2.574   4.422   1.308  0.8585  0.1903  0.1011
 5735TIP3   OH238839   1.866   6.222   0.213  0.2390 -0.0373 -0.2887
 5735TIP3    H138840   1.872   6.314   0.185  0.8215 -0.1525 -0.5605
 5735TIP3    H238841   1.792   6.220   0.273 -0.7943  0.2976 -1.5232
 5736TIP3   OH238842   6.473   2.828   2.148 -0.0407 -0.2838  0.4860
 5736TIP3    H138843   6.530   2.773   2.094  1.2665  1.3430  0.1277
 5736TIP3    H238844   6.524   2.845   2.227 -1.4142 -1.5471  1.7065
 5737TIP3   OH238845   2.097   2.109   1.323 -0.6412  0.5402  0.3743
 5737TIP3    H138846   2.187   2.083   1.337 -0.8109  0.3313  1.1536
 5737TIP3    H238847   2.058   2.039   1.270 -0.1372  1.0449 -0.6970
 5738TIP3   OH238848   4.643   3.232   7.721  0.7629  0.0818 -0.1714
 5738TIP3    H138849   4.685   3.158   7.678 -2.9490 -0.5826 -3.2476
 5738TIP3    H238850   4.645   3.210   7.815 -0.7452 -4.3858 -0.9548
 5739TIP3   OH238851   2.475   3.597   7.516  0.0436  0.1169 -0.0798
 5739TIP3    H138852   2.390   3.575   7.554  0.4927 -0.9096  0.3328
 5739TIP3    H238853   2.498   3.521   7.462 -0.3839  1.3427 -2.1204
 5740TIP3   OH238854   2.423   6.207   0.746  0.0933 -0.4034  0.1067
 5740TIP3    H138855   2.450   6.277   0.805 -0.4434  0.6856 -0.9121
 5740TIP3    H238856   2.351   6.163   0.791 -0.0151  0.1339  0.4583
 5741TIP3   OH238857   4.124   4.910   0.328  0.0971  0.0014  0.2940
 5741TIP3    H138858   4.098   4.858   0.252 -0.7880 -1.0901  1.2953
 5741TIP3    H238859   4.104   4.854   0.403 -1.7929  2.1052  1.5034
 5742TIP3   OH238860   6.307   2.598   8.731  0.0351 -0.7724  0.1163
 5742TIP3    H138861   6.258   2.614   8.812  0.7487  0.2117  0.3808
 5742TIP3    H238862   6.396   2.581   8.760  0.7205  1.4228 -0.5019
 5743TIP3   OH238863   0.027   5.440   1.289  0.4130  0.0629 -0.3418
 5743TIP3    H138864   0.084   5.369   1.257  0.6229  0.3172 -0.5370
 5743TIP3    H238865   0.033   5.434   1.384  0.8200  0.1269 -0.3613
 5744TIP3   OH238866   1.749   1.098   8.039 -0.2935  0.1221 -0.0496
 5744TIP3    H138867   1.657   1.087   8.019 -1.7020  1.4410  4.4940
 5744TIP3    H238868   1.766   1.037   8.110  2.2928  0.1395 -0.5580
 5745TIP3   OH238869   4.128   5.497   0.813  0.1808  0.9514  0.2130
 5745TIP3    H138870   4.188   5.535   0.878  2.2087 -0.5150 -0.6756
 5745TIP3    H238871   4.157   5.533   0.730 -1.0199  1.1912 -0.1108
 5746TIP3   OH238872   3.083   1.991   1.204 -0.9831  1.0538  0.0551
 5746TIP3    H138873   3.023   1.930   1.248 -0.4165  0.8521  0.5572
 5746TIP3    H238874   3.039   2.076   1.211 -0.0110  1.4292  2.8484
 5747TIP3   OH238875   4.788   0.656   1.972 -0.5344 -0.2373 -0.9016
 5747TIP3    H138876   4.728   0.592   2.009  0.2708 -0.9656 -0.8191
 5747TIP3    H238877   4.821   0.705   2.048 -2.7133  1.7461 -1.1157
 5748TIP3   OH238878   3.537   0.712   8.008  0.2592 -0.1884 -0.2526
 5748TIP3    H138879   3.456   0.668   7.982 -1.6129  2.3260  0.9415
 5748TIP3    H238880   3.594   0.701   7.932 -1.8133 -0.6061 -1.8676
 5749TIP3   OH238881   2.053   1.936   8.910  0.2814 -0.3134  0.1336
 5749TIP3    H138882   2.034   1.937   8.816  0.9417  2.1126 -0.0546
 5749TIP3    H238883   2.094   2.022   8.927 -0.3417 -0.4480  2.7484
 5750TIP3   OH238884   2.764   2.618   8.383  0.0566  0.0730 -0.0231
 5750TIP3    H138885   2.680   2.640   8.423 -0.1758 -2.0236  0.7474
 5750TIP3    H238886   2.764   2.667   8.300 -1.5567  0.7392  0.3241
 5751TIP3   OH238887   2.764   3.496   8.590  0.0158  0.4762  0.0784
 5751TIP3    H138888   2.847   3.483   8.544  0.3280 -2.8953  1.2922
 5751TIP3    H238889   2.789   3.502   8.682 -1.0393 -1.3983  0.5429
 5752TIP3   OH238890   0.098   2.674   0.126  0.2113 -0.4864  0.1655
 5752TIP3    H138891   0.067   2.681   0.036  0.6996 -0.1487  0.0193
 5752TIP3    H238892   0.189   2.703   0.123 -0.7145  3.2224  1.3545
 5753TIP3   OH238893   2.615   2.409   8.654 -0.2179 -0.2028 -0.2110
 5753TIP3    H138894   2.650   2.495   8.678 -1.1400 -0.2117  1.2743
 5753TIP3    H238895   2.672   2.379   8.583  1.6310  0.5663  0.8743
 5754TIP3   OH238896   5.488   4.056   1.047 -0.2060  0.0436 -0.2535
 5754TIP3    H138897   5.429   4.038   1.119  0.1198  0.2669  0.0756
 5754TIP3    H238898   5.516   3.970   1.016  1.3504 -0.0872  1.3103
 5755TIP3   OH238899   4.006   1.436   2.040 -0.2742 -0.2628 -0.0302
 5755TIP3    H138900   3.933   1.386   2.003  0.7850 -1.3674 -0.6946
 5755TIP3    H238901   3.996   1.524   2.003 -0.8374 -0.6058 -0.7205
 5756TIP3   OH238902   3.322   6.571   1.741 -0.2400 -0.4508  0.1348
 5756TIP3    H138903   3.382   6.556   1.668 -0.7237 -0.1422 -0.3368
 5756TIP3    H238904   3.372   6.547   1.819  1.3492  2.1349  0.0061
 5757TIP3   OH238905   0.267   2.121   1.410  0.0178  0.6375  0.5238
 5757TIP3    H138906   0.185   2.124   1.460 -2.2039 -0.0086 -2.7976
 5757TIP3    H238907   0.241   2.136   1.320  3.7142  1.0300 -0.6222
 5758TIP3   OH238908   0.035   2.255   0.372 -0.1042 -0.2087  0.0604
 5758TIP3    H138909   0.043   2.350   0.374  2.1551 -0.3565  0.9506
 5758TIP3    H238910  -0.044   2.239   0.320  0.0958  2.1086 -1.1045
 5759TIP3   OH238911   6.096   4.821   7.952  0.9301 -0.2014 -0.3047
 5759TIP3    H138912   6.106   4.727   7.964  0.1884  0.0086  2.8177
 5759TIP3    H238913   6.173   4.859   7.994 -0.1414  0.6259  0.9831
 5760TIP3   OH238914   5.130   3.113   1.935 -0.1243  0.2356 -0.1163
 5760TIP3    H138915   5.197   3.078   1.876  0.1416 -0.0342  0.3327
 5760TIP3    H238916   5.173   3.186   1.980  0.4687 -0.9614  1.3930
 5761TIP3   OH238917   3.142   0.803   7.326  0.1482 -0.2572 -0.3793
 5761TIP3    H138918   3.095   0.856   7.391  2.0289 -0.1521  0.9711
 5761TIP3    H238919   3.113   0.838   7.242 -2.6605 -0.6592  0.3265
 5762TIP3   OH238920   4.446   1.487   7.396 -0.5622  0.1698 -0.1106
 5762TIP3    H138921   4.474   1.445   7.315 -1.2134 -0.0475 -0.2364
 5762TIP3    H238922   4.357   1.455   7.409 -0.8241  0.9750  0.1616
 5763TIP3   OH238923   2.534   4.491   7.043 -0.1388  0.9124  0.2193
 5763TIP3    H138924   2.627   4.478   7.023 -0.1966 -0.4622  0.7042
 5763TIP3    H238925   2.491   4.416   7.002 -0.8473  0.7399  1.2499
 5764TIP3   OH238926   4.714   4.555   7.764  0.6243  0.0676  0.0322
 5764TIP3    H138927   4.664   4.618   7.712  0.1817  0.5668  1.0363
 5764TIP3    H238928   4.652   4.486   7.785  0.9998 -0.5047 -0.7111
 5765TIP3   OH238929   4.446   5.013   2.361 -0.1525 -0.2243  0.1744
 5765TIP3    H138930   4.388   4.938   2.372 -0.2502 -0.7181 -2.9563
 5765TIP3    H238931   4.388   5.085   2.337  0.3809 -0.5268 -2.1792
 5766TIP3   OH238932   2.074   5.368   6.753 -0.4572 -0.3601  0.6652
 5766TIP3    H138933   2.139   5.425   6.711  0.2642 -2.3078 -0.9763
 5766TIP3    H238934   2.092   5.377   6.847 -0.3019  1.9819  0.4668
 5767TIP3   OH238935   6.536   3.291   8.567 -0.0665 -0.4916 -0.0125
 5767TIP3    H138936   6.584   3.374   8.559 -0.0997 -0.5150 -0.4935
 5767TIP3    H238937   6.515   3.268   8.476 -0.3567 -0.8506  0.1495
 5768TIP3   OH238938   2.413   4.759   0.774 -0.5111 -0.4853 -0.4487
 5768TIP3    H138939   2.460   4.809   0.842 -0.7400  0.2708 -0.8394
 5768TIP3    H238940   2.469   4.766   0.697 -0.1142 -1.5826 -0.2718
 5769TIP3   OH238941   1.892   5.303   0.034  0.3384 -0.1674  0.4640
 5769TIP3    H138942   1.832   5.377   0.022  0.9625  0.4056  0.8356
 5769TIP3    H238943   1.836   5.232   0.067 -0.1761  0.2816  0.5676
 5770TIP3   OH238944   4.845   3.150   1.159 -0.0349  0.2587 -0.4297
 5770TIP3    H138945   4.775   3.179   1.101 -0.4684 -0.9101 -0.5062
 5770TIP3    H238946   4.847   3.216   1.229 -2.0568 -0.3554  0.2684
 5771TIP3   OH238947   5.894   2.121   8.663  0.1559  0.0189 -0.1773
 5771TIP3    H138948   5.836   2.176   8.611  1.1469  1.2046 -0.0878
 5771TIP3    H238949   5.922   2.178   8.736 -0.5400 -1.3233  1.1990
 5772TIP3   OH238950   3.958   3.487   1.858 -0.2704 -0.7248  0.4636
 5772TIP3    H138951   3.916   3.424   1.800 -0.0604 -1.0594  0.6708
 5772TIP3    H238952   3.889   3.550   1.879 -0.8768 -1.6613  1.3670
 5773TIP3   OH238953   1.968   0.110   8.576 -0.1461 -0.9595  0.4694
 5773TIP3    H138954   2.039   0.060   8.536 -0.6993 -1.1379 -0.3107
 5773TIP3    H238955   1.950   0.065   8.658  2.4517  0.6419  2.0547
 5774TIP3   OH238956   5.187   3.580   8.437  0.0140 -0.1671 -0.5452
 5774TIP3    H138957   5.211   3.653   8.494 -0.4066 -0.0034 -0.5772
 5774TIP3    H238958   5.118   3.535   8.485 -0.5230  0.1212 -1.0470
 5775TIP3   OH238959   2.905   3.013   7.026 -0.4803 -0.6190 -0.7846
 5775TIP3    H138960   2.900   3.108   7.039 -1.2638 -0.7698  0.2286
 5775TIP3    H238961   2.901   3.001   6.932 -1.1867  0.3271 -0.8944
 5776TIP3   OH238962   2.789   2.038   1.429  0.0185 -0.5437 -0.3249
 5776TIP3    H138963   2.717   2.052   1.490 -0.3372 -0.9982 -0.6291
 5776TIP3    H238964   2.868   2.058   1.479 -0.3931  3.4655 -0.9335
 5777TIP3   OH238965   5.476   5.888   1.280  0.7370 -0.0694  0.0760
 5777TIP3    H138966   5.496   5.962   1.222  1.0670  1.5880  2.2000
 5777TIP3    H238967   5.453   5.817   1.220 -0.0785  1.8665 -2.0601
 5778TIP3   OH238968   2.579   4.815   1.263  0.1728 -0.0952 -0.6991
 5778TIP3    H138969   2.536   4.897   1.286  1.5540  0.8707 -1.4286
 5778TIP3    H238970   2.516   4.747   1.287 -0.6035  1.1145  0.8507
 5779TIP3   OH238971   6.230   1.806   0.753 -0.2375 -0.4373 -0.2893
 5779TIP3    H138972   6.196   1.791   0.841 -1.6403  1.2478 -0.5020
 5779TIP3    H238973   6.280   1.887   0.759 -1.3346  0.3373 -1.2776
 5780TIP3   OH238974   2.535   5.111   1.125  0.1984 -0.0375  0.4121
 5780TIP3    H138975   2.595   5.185   1.117  0.1637 -0.0563 -0.0580
 5780TIP3    H238976   2.457   5.138   1.075  0.8250 -1.0487 -1.1680
 5781TIP3   OH238977   3.156   5.146   8.299  0.1545  0.0147  0.1649
 5781TIP3    H138978   3.104   5.226   8.288 -1.3293 -0.8361  0.5952
 5781TIP3    H238979   3.231   5.172   8.352 -0.2757  1.1210  0.2551
 5782TIP3   OH238980   4.145   3.321   0.963 -0.0465  0.5921 -0.3013
 5782TIP3    H138981   4.181   3.394   0.913  1.4395  1.2414  1.5760
 5782TIP3    H238982   4.096   3.362   1.035 -0.0538 -0.2624  0.2050
 5783TIP3   OH238983   4.598   4.718   8.393 -0.0197  0.5616 -0.1188
 5783TIP3    H138984   4.590   4.627   8.366  1.3564  0.8079 -1.5124
 5783TIP3    H238985   4.566   4.768   8.318  3.5099  1.2643 -1.3616
 5784TIP3   OH238986   4.660   3.892   7.329  1.0350  0.0704  0.1972
 5784TIP3    H138987   4.597   3.840   7.379  0.8480 -0.9233 -1.0392
 5784TIP3    H238988   4.605   3.954   7.280  0.9152 -1.3229 -1.4966
 5785TIP3   OH238989   3.931   2.708   0.906  1.1660 -0.6814 -0.4442
 5785TIP3    H138990   3.865   2.701   0.975  3.2649 -1.5935  1.6107
 5785TIP3    H238991   4.014   2.696   0.952  2.8657  1.3159 -2.7557
 5786TIP3   OH238992   5.896   5.592   0.078  0.4145  0.3973 -0.2008
 5786TIP3    H138993   5.871   5.506   0.044  2.7967 -0.5128  0.1427
 5786TIP3    H238994   5.838   5.605   0.154  0.8408 -1.5097  0.5171
 5787TIP3   OH238995   3.119   5.109   1.214 -0.6579 -0.2514  0.3103
 5787TIP3    H138996   3.051   5.090   1.278 -0.9258  1.3062  0.5076
 5787TIP3    H238997   3.169   5.181   1.252 -0.7425  0.6256 -1.1575
 5788TIP3   OH238998   1.294   5.495   8.277  0.5756  0.0457 -0.2464
 5788TIP3    H138999   1.285   5.407   8.240  0.1648 -1.2668  2.6712
 5788TIP3    H239000   1.377   5.492   8.325  0.9427  1.5419 -0.7488
 5789TIP3   OH239001   6.686   4.837   8.098 -0.4389  0.1779  0.0204
 5789TIP3    H139002   6.604   4.887   8.105 -1.6690 -1.4275 -2.0454
 5789TIP3    H239003   6.737   4.884   8.033  0.3298  1.1392  1.2590
 5790TIP3   OH239004   5.171   4.543   1.739  0.3759  0.6590  0.0643
 5790TIP3    H139005   5.201   4.591   1.662  1.9163  0.5929  0.5680
 5790TIP3    H239006   5.235   4.566   1.807  1.9016 -2.8762  0.0720
 5791TIP3   OH239007   3.273   5.753   0.932 -0.1732 -0.8021 -0.4605
 5791TIP3    H139008   3.185   5.719   0.918 -0.3697 -0.3566 -0.3350
 5791TIP3    H239009   3.259   5.842   0.966  0.3200 -0.8673 -0.0817
 5792TIP3   OH239010   6.760   3.595   6.810 -0.0677 -0.2618  0.6717
 5792TIP3    H139011   6.737   3.604   6.717 -1.0346  1.1667  1.0056
 5792TIP3    H239012   6.838   3.539   6.811 -0.0798 -0.3523 -0.9878
 5793TIP3   OH239013   2.522   1.382   7.737 -0.4515  0.0691  0.7447
 5793TIP3    H139014   2.516   1.315   7.668  1.1561  1.3875 -0.7658
 5793TIP3    H239015   2.590   1.349   7.796  0.9316  0.6615 -0.4420
 5794TIP3   OH239016   3.466   0.005   7.552  0.1636  0.1564 -0.3958
 5794TIP3    H139017   3.477   0.083   7.498  0.3412  0.7624  0.5070
 5794TIP3    H239018   3.554  -0.015   7.584  0.5023 -1.6025 -2.1891
 5795TIP3   OH239019   5.217   3.327   6.881 -0.1027  0.1586  0.2284
 5795TIP3    H139020   5.273   3.327   6.803  0.2089 -2.0449  0.3948
 5795TIP3    H239021   5.219   3.418   6.911 -0.3150  1.1103 -2.3666
 5796TIP3   OH239022   6.749   4.061   0.155 -0.2529  0.2898  0.3336
 5796TIP3    H139023   6.703   4.139   0.125 -0.6707  0.1921  0.7024
 5796TIP3    H239024   6.685   3.990   0.148 -0.0482  0.0839  0.5055
 5797TIP3   OH239025   6.332   2.295   0.212 -0.3690  0.2210 -0.3296
 5797TIP3    H139026   6.276   2.367   0.185 -1.9000 -0.5419  0.6228
 5797TIP3    H239027   6.379   2.269   0.133 -2.4929 -0.0722 -1.5552
 5798TIP3   OH239028   5.975   4.250   7.571  0.0885 -0.1195 -0.3616
 5798TIP3    H139029   6.022   4.317   7.521 -0.8897  1.2968  0.5566
 5798TIP3    H239030   5.923   4.299   7.634 -0.4439 -1.7732  0.5431
 5799TIP3   OH239031   1.356   0.380   8.464  0.1684  0.1164  0.2835
 5799TIP3    H139032   1.272   0.398   8.505  1.0197  1.6018  1.5064
 5799TIP3    H239033   1.363   0.285   8.465 -1.3372 -0.0212  0.4584
 5800TIP3   OH239034   5.082   6.372   1.689 -0.0798 -0.3738 -0.4586
 5800TIP3    H139035   5.161   6.328   1.719  0.5123  1.0924  0.2151
 5800TIP3    H239036   5.016   6.302   1.686  1.0264 -1.4718 -0.2948
 5801TIP3   OH239037   3.651   4.232   1.864 -0.4677 -0.1577  0.2719
 5801TIP3    H139038   3.616   4.144   1.848 -0.3981 -0.4064  1.3959
 5801TIP3    H239039   3.740   4.217   1.894 -0.5329  0.2793  0.6996
 5802TIP3   OH239040   4.979   5.193   2.167  0.4724  0.3737 -0.0775
 5802TIP3    H139041   5.037   5.266   2.147 -1.0016  1.2592 -1.3587
 5802TIP3    H239042   5.021   5.116   2.127  1.1204  0.8543 -0.3250
 5803TIP3   OH239043   1.663   2.182   7.741  0.3429  0.2986  0.5464
 5803TIP3    H139044   1.653   2.201   7.835  0.3064  0.4284  0.5162
 5803TIP3    H239045   1.584   2.217   7.701 -0.6041 -1.5357  0.7155
 5804TIP3   OH239046   4.874   5.787   7.957 -0.4584 -0.2061  0.0618
 5804TIP3    H139047   4.811   5.857   7.944 -0.1298  0.0962  0.0811
 5804TIP3    H239048   4.924   5.785   7.876 -1.2841 -1.2646 -0.4473
 5805TIP3   OH239049   2.037   1.576   8.884  0.0724 -0.1704 -0.4566
 5805TIP3    H139050   2.118   1.532   8.862  0.1359 -0.7537  0.8850
 5805TIP3    H239051   2.053   1.668   8.861  1.7432  0.0487  1.3278
 5806TIP3   OH239052   5.146   4.297   0.817 -0.4357 -0.1201  0.2479
 5806TIP3    H139053   5.155   4.381   0.772 -0.2879 -0.1638  0.1972
 5806TIP3    H239054   5.220   4.245   0.786 -0.6006 -0.3144  0.1805
 5807TIP3   OH239055   2.397   0.077   8.154 -0.3567 -0.1264 -0.0608
 5807TIP3    H139056   2.313   0.089   8.110  0.4016  0.7411 -1.3538
 5807TIP3    H239057   2.460   0.117   8.095  1.2838 -2.7149 -0.2106
 5808TIP3   OH239058   5.338   6.723   8.551  0.3945  0.0159  0.2692
 5808TIP3    H139059   5.328   6.818   8.544 -0.7517  0.1556  2.6330
 5808TIP3    H239060   5.248   6.690   8.556  0.7849 -1.0111  0.9171
 5809TIP3   OH239061   4.816   1.797   1.896 -0.0842 -0.0318  0.5437
 5809TIP3    H139062   4.893   1.751   1.928 -0.0198 -1.0296 -0.9513
 5809TIP3    H239063   4.771   1.827   1.975  1.2231 -0.4375  1.4663
 5810TIP3   OH239064   4.237   6.036   0.124 -0.2132  0.1579  0.2421
 5810TIP3    H139065   4.305   6.103   0.121 -0.5289  0.4831 -2.8163
 5810TIP3    H239066   4.273   5.963   0.075 -1.4633 -0.2483 -0.1104
 5811TIP3   OH239067   2.312   3.048   2.182  0.2321 -0.0052  0.0177
 5811TIP3    H139068   2.287   3.078   2.269 -0.8447  0.9080 -0.5733
 5811TIP3    H239069   2.393   2.998   2.195 -0.4359 -0.7312  1.6672
 5812TIP3   OH239070   3.278   1.155   0.576 -0.4408 -0.1460 -0.6987
 5812TIP3    H139071   3.324   1.072   0.566 -0.7672 -0.3724 -0.3215
 5812TIP3    H239072   3.190   1.138   0.545 -0.6449 -0.0753 -0.1714
 5813TIP3   OH239073   5.832   4.974   1.578  0.3215  0.3420  0.2637
 5813TIP3    H139074   5.826   4.910   1.506  0.4423 -0.3035  0.8197
 5813TIP3    H239075   5.884   5.045   1.541 -1.2453  0.9230 -0.9258
 5814TIP3   OH239076   5.757   4.507   8.336 -0.0998  1.0054 -0.2609
 5814TIP3    H139077   5.760   4.463   8.420  0.2615  1.8923  0.2034
 5814TIP3    H239078   5.705   4.449   8.280  1.0692 -0.4104  0.0744
 5815TIP3   OH239079   5.051   1.126   7.722 -0.5229 -0.2613  0.6189
 5815TIP3    H139080   4.996   1.052   7.746  2.0235 -2.6511 -0.3722
 5815TIP3    H239081   5.008   1.164   7.646 -0.6167 -2.4323 -0.4968
 5816TIP3   OH239082   0.999   1.492   7.439 -0.4738 -0.7249 -0.0641
 5816TIP3    H139083   0.969   1.580   7.461 -1.0351 -1.2948  1.6241
 5816TIP3    H239084   0.998   1.489   7.343  0.7507  1.4926 -0.2166
 5817TIP3   OH239085   3.639   4.596   0.510 -0.3957  0.4257  0.1957
 5817TIP3    H139086   3.600   4.647   0.439  0.6650 -0.8805 -1.4165
 5817TIP3    H239087   3.566   4.579   0.570 -1.0134  2.8048  0.2332
 5818TIP3   OH239088   4.283   0.316   8.190  0.7701  0.3281  0.1119
 5818TIP3    H139089   4.197   0.282   8.165  1.0705 -1.4296  1.2541
 5818TIP3    H239090   4.266   0.367   8.269  0.5686  1.4182 -0.6138
 5819TIP3   OH239091   4.533   3.524   7.802 -0.5050  0.1441 -0.4573
 5819TIP3    H139092   4.524   3.444   7.854  0.3878  0.4260  0.1564
 5819TIP3    H239093   4.619   3.516   7.761 -0.1625  1.0459  0.0728
 5820TIP3   OH239094   3.551   6.472   1.164  0.4679 -0.3604 -0.2238
 5820TIP3    H139095   3.594   6.386   1.164 -0.1819 -0.7145  0.7855
 5820TIP3    H239096   3.611   6.529   1.118  1.8066 -0.9419  0.7314
 5821TIP3   OH239097   4.728   2.644   7.865 -0.1230  0.4353 -0.4519
 5821TIP3    H139098   4.638   2.661   7.892  0.1318  1.9449 -0.4643
 5821TIP3    H239099   4.736   2.689   7.781  0.3617 -0.5442 -0.9414
 5822TIP3   OH239100   2.253   4.236   7.454 -0.1765 -0.0635  0.1389
 5822TIP3    H139101   2.296   4.269   7.533  0.7163 -0.3776 -0.2029
 5822TIP3    H239102   2.302   4.275   7.381 -1.4447  0.8098 -0.2848
 5823TIP3   OH239103   5.396   3.368   0.889 -0.3582  0.8779 -0.3497
 5823TIP3    H139104   5.470   3.308   0.899 -0.5451  0.8488  1.0996
 5823TIP3    H239105   5.326   3.328   0.942 -0.7746  1.9179 -0.0958
 5824TIP3   OH239106   3.179   4.105   1.325  0.3109 -0.5909 -0.1949
 5824TIP3    H139107   3.180   4.009   1.316  2.8917 -0.9038  2.0377
 5824TIP3    H239108   3.228   4.136   1.249 -1.8703 -0.8286 -1.7926
 5825TIP3   OH239109   6.737   1.472   1.616 -0.6354  0.1656 -0.3842
 5825TIP3    H139110   6.725   1.545   1.677  1.6945 -0.4897  0.9499
 5825TIP3    H239111   6.647   1.448   1.590 -1.5497  2.1712  0.6912
 5826TIP3   OH239112   1.021   6.462   8.013 -0.0959 -0.8373 -0.0879
 5826TIP3    H139113   1.013   6.414   8.095  2.1458 -0.0116  0.6741
 5826TIP3    H239114   0.977   6.546   8.031  0.8599 -0.4431  0.4830
 5827TIP3   OH239115   3.661   3.230   2.532 -0.3187  0.1611 -0.1643
 5827TIP3    H139116   3.717   3.153   2.537 -0.9663 -0.2861  0.2190
 5827TIP3    H239117   3.600   3.221   2.604 -0.2599  1.1512  0.0341
 5828TIP3   OH239118   4.357   5.986   1.211 -0.3475  0.2125 -0.2602
 5828TIP3    H139119   4.317   5.911   1.255 -2.8250  1.0937 -0.8536
 5828TIP3    H239120   4.350   5.966   1.118  1.6971 -0.0795 -0.4061
 5829TIP3   OH239121   1.914   3.769   7.086  0.2733  0.1250 -0.1055
 5829TIP3    H139122   1.917   3.836   7.154 -0.3343 -0.8743  0.9565
 5829TIP3    H239123   1.987   3.789   7.028  1.2476  0.6049  1.2381
 5830TIP3   OH239124   5.360   1.959   0.761 -0.5308 -0.1941  0.2578
 5830TIP3    H139125   5.447   1.995   0.746 -0.8491  0.0241 -1.2556
 5830TIP3    H239126   5.367   1.912   0.844  0.5821  1.1662  0.9802
 5831TIP3   OH239127   5.968   2.210   1.003  0.2184 -0.1533 -0.9905
 5831TIP3    H139128   6.035   2.207   0.935 -0.5393  0.9251 -1.8409
 5831TIP3    H239129   6.012   2.182   1.083  2.2442  2.3708 -1.0877
 5832TIP3   OH239130   5.758   1.817   1.940  0.4135  0.4201  0.2809
 5832TIP3    H139131   5.750   1.736   1.990  2.5880 -0.7473 -1.1179
 5832TIP3    H239132   5.797   1.879   2.002  0.7072 -0.2384  0.7737
 5833TIP3   OH239133   5.859   1.679   8.090  0.3552 -0.3563 -0.0198
 5833TIP3    H139134   5.839   1.671   8.183 -0.4809 -0.8026 -0.2288
 5833TIP3    H239135   5.804   1.612   8.048 -1.1581  1.4767 -1.0957
 5834TIP3   OH239136   4.504   2.801   0.632 -0.1113 -0.9279  0.1664
 5834TIP3    H139137   4.414   2.823   0.609  0.5890  0.5018 -1.4801
 5834TIP3    H239138   4.557   2.854   0.572  1.8229 -1.8086  1.0219
 5835TIP3   OH239139   5.811   0.639   1.205 -0.0803 -0.4379  0.1471
 5835TIP3    H139140   5.814   0.589   1.124  0.0873 -1.0065  0.5022
 5835TIP3    H239141   5.764   0.719   1.182  2.1978  0.6168 -1.1481
 5836TIP3   OH239142   3.543   6.730   0.597 -0.1644 -0.6979 -0.9627
 5836TIP3    H139143   3.510   6.719   0.686  4.6140 -0.3078  1.1749
 5836TIP3    H239144   3.523   6.820   0.575 -2.5224 -1.1591 -0.9045
 5837TIP3   OH239145   1.187   2.475   1.526 -0.3241 -0.3222  0.3078
 5837TIP3    H139146   1.107   2.465   1.475 -0.1994  0.8666 -0.1628
 5837TIP3    H239147   1.222   2.387   1.536 -1.0711 -0.7141 -0.5021
 5838TIP3   OH239148   5.196   3.221   7.701 -0.2202 -0.3432  0.1807
 5838TIP3    H139149   5.284   3.258   7.692 -0.1607  0.1151  2.2611
 5838TIP3    H239150   5.152   3.245   7.620  0.3866  2.8126  0.6767
 5839TIP3   OH239151   5.846   4.052   7.888  0.2656 -0.6909  0.3871
 5839TIP3    H139152   5.868   4.144   7.906  2.0054 -1.4133  2.4336
 5839TIP3    H239153   5.905   4.027   7.818  0.1056 -0.3728  0.1355
 5840TIP3   OH239154   2.838   5.462   8.434 -0.4450  0.4285  0.0395
 5840TIP3    H139155   2.807   5.507   8.355 -0.4606  1.2854  0.5233
 5840TIP3    H239156   2.923   5.426   8.409 -1.5535 -1.5563 -1.1665
 5841TIP3   OH239157   0.047   3.613   1.698 -0.3132 -0.0326  0.2368
 5841TIP3    H139158  -0.008   3.551   1.649 -0.3261 -0.6277  0.9868
 5841TIP3    H239159   0.058   3.687   1.639 -1.4513 -0.1518 -0.1368
 5842TIP3   OH239160   6.610   5.455   0.580 -0.0932 -0.1381 -0.3505
 5842TIP3    H139161   6.657   5.526   0.622 -1.1406  1.2890 -1.4956
 5842TIP3    H239162   6.566   5.495   0.506  0.4139 -2.2612 -1.9014
 5843TIP3   OH239163   4.347   0.523   1.369  0.4226 -0.4530  0.0617
 5843TIP3    H139164   4.297   0.487   1.442  1.2509  0.3809  1.0666
 5843TIP3    H239165   4.425   0.562   1.409  0.9084  0.0158 -1.2655
 5844TIP3   OH239166   4.579   3.263   0.751 -0.1198 -0.6306 -0.0782
 5844TIP3    H139167   4.625   3.192   0.797 -0.9401 -1.7779 -0.9499
 5844TIP3    H239168   4.559   3.327   0.819  2.0743 -0.4418  0.4443
 5845TIP3   OH239169   2.026   5.325   7.412 -0.2491  0.4981  0.3716
 5845TIP3    H139170   1.961   5.270   7.456 -0.5531  1.1747  0.7839
 5845TIP3    H239171   2.017   5.303   7.319  0.0318 -0.5604  0.5795
 5846TIP3   OH239172   5.741   3.763   0.253  0.2872  0.1717  0.7731
 5846TIP3    H139173   5.689   3.843   0.254  0.1782  0.1056  0.4121
 5846TIP3    H239174   5.780   3.759   0.340  1.2717  1.2474  0.3942
 5847TIP3   OH239175   4.693   6.498   7.599 -0.5177 -1.0467 -0.4598
 5847TIP3    H139176   4.670   6.473   7.509  1.8076 -0.3638 -1.3278
 5847TIP3    H239177   4.681   6.593   7.601 -1.0804 -1.1248  0.1397
 5848TIP3   OH239178   0.335   6.675   1.822  1.0592 -0.1816 -0.3120
 5848TIP3    H139179   0.382   6.743   1.774  3.4205 -1.1419  0.4956
 5848TIP3    H239180   0.251   6.716   1.845  2.1998  2.3205 -0.2526
 5849TIP3   OH239181   3.936   4.371   7.310 -0.8237 -0.1143  0.3265
 5849TIP3    H139182   3.897   4.445   7.264  0.9053  0.7928  0.2553
 5849TIP3    H239183   4.001   4.336   7.249 -1.9169 -2.0202  0.1707
 5850TIP3   OH239184   1.433   6.654   8.665 -0.0391 -0.0918  0.5207
 5850TIP3    H139185   1.404   6.725   8.721 -1.7355 -0.7435  0.5184
 5850TIP3    H239186   1.398   6.675   8.578  1.9279  0.5238 -0.2027
 5851TIP3   OH239187   3.848   3.402   7.028 -0.4922  0.6774  0.0346
 5851TIP3    H139188   3.833   3.407   7.122 -0.1672 -0.0620  0.1266
 5851TIP3    H239189   3.879   3.489   7.004  3.9240 -0.2959  1.3945
 5852TIP3   OH239190   2.871   0.335   1.003  0.1367 -0.1564  0.1652
 5852TIP3    H139191   2.792   0.319   1.055  0.8501 -0.8073  1.0911
 5852TIP3    H239192   2.840   0.338   0.913 -1.2238  1.5967  0.6281
 5853TIP3   OH239193   3.434   1.438   2.458 -0.3281  0.8002  0.2713
 5853TIP3    H139194   3.357   1.415   2.510 -0.9304  0.3259 -0.7974
 5853TIP3    H239195   3.442   1.533   2.468 -0.5907  0.7549  0.9974
 5854TIP3   OH239196   0.055   0.208   0.496 -0.2834 -0.1928 -0.1650
 5854TIP3    H139197  -0.006   0.157   0.550 -1.5415  1.0128 -0.3897
 5854TIP3    H239198   0.070   0.288   0.546  1.2484 -0.5269 -0.0571
 5855TIP3   OH239199   3.282   2.158   8.834  0.2486  0.3527 -0.2245
 5855TIP3    H139200   3.189   2.159   8.810  0.0680 -0.4444  0.4071
 5855TIP3    H239201   3.296   2.240   8.880 -0.7868 -0.5863  1.9323
 5856TIP3   OH239202   4.388   3.055   7.676  0.0102 -0.4490 -0.4731
 5856TIP3    H139203   4.372   3.090   7.589 -1.8122  2.3584  0.8392
 5856TIP3    H239204   4.443   3.121   7.718 -0.2817 -1.0624  0.9175
 5857TIP3   OH239205   0.058   3.314   0.322 -0.1376  0.5388 -0.1980
 5857TIP3    H139206   0.142   3.282   0.355  0.0671  0.4069 -0.8285
 5857TIP3    H239207   0.053   3.405   0.351  0.4292  0.6810 -0.5324
 5858TIP3   OH239208   0.811   2.009   0.787 -0.2744 -0.0704  0.7605
 5858TIP3    H139209   0.832   2.003   0.694  0.1269 -2.4068  0.9413
 5858TIP3    H239210   0.885   2.056   0.825  0.9463 -1.5052  0.2649
 5859TIP3   OH239211   2.835   3.198   7.520  0.3152  0.2021  0.0364
 5859TIP3    H139212   2.811   3.133   7.454 -0.1407  0.6299 -0.2242
 5859TIP3    H239213   2.909   3.159   7.566  0.3764 -0.2784 -0.4580
 5860TIP3   OH239214   2.845   2.801   0.937  0.0176  0.1438  0.0746
 5860TIP3    H139215   2.896   2.791   0.856  0.8014 -1.3415  0.7244
 5860TIP3    H239216   2.755   2.812   0.906  0.4875  1.1527 -1.0397
 5861TIP3   OH239217   5.516   0.105   6.917  0.6030  0.0229 -0.1232
 5861TIP3    H139218   5.460   0.150   6.980  0.4811  0.6783 -0.6842
 5861TIP3    H239219   5.554   0.032   6.966 -1.1762 -0.7884  0.1471
 5862TIP3   OH239220   5.805   2.782   0.057 -0.0131  0.0247 -0.2300
 5862TIP3    H139221   5.751   2.734  -0.006 -2.0048 -0.2696  1.5811
 5862TIP3    H239222   5.821   2.867   0.015 -1.5912 -0.0376 -1.0258
 5863TIP3   OH239223   1.617   2.251   1.018 -0.2102  0.5386  0.2897
 5863TIP3    H139224   1.614   2.220   0.927  0.1948 -0.3548  0.5716
 5863TIP3    H239225   1.692   2.205   1.056  0.5681  2.0755  0.6608
 5864TIP3   OH239226   1.747   1.950   8.346 -0.1353  0.0760 -0.5581
 5864TIP3    H139227   1.838   1.931   8.322 -0.0080 -0.4605  0.3325
 5864TIP3    H239228   1.747   1.954   8.441 -1.1191 -0.2900 -0.5296
 5865TIP3   OH239229   5.426   4.573   6.967 -0.1107  0.4215 -0.5862
 5865TIP3    H139230   5.429   4.555   6.873 -0.6338 -1.1052 -0.3290
 5865TIP3    H239231   5.358   4.640   6.975 -0.8557 -0.2461 -1.1851
 5866TIP3   OH239232   5.123   6.337   8.193  0.0786 -0.1884  0.3960
 5866TIP3    H139233   5.210   6.363   8.161 -0.9181 -0.1599 -2.5866
 5866TIP3    H239234   5.094   6.413   8.244  1.1499  0.4816  0.0602
 5867TIP3   OH239235   3.401   4.682   0.906 -0.0015 -0.0403 -0.3498
 5867TIP3    H139236   3.439   4.620   0.969 -1.6097 -0.4804  0.2219
 5867TIP3    H239237   3.451   4.762   0.920 -0.2618 -0.1478  1.4519
 5868TIP3   OH239238   0.940   0.313   8.708  0.4198  0.8969 -0.2428
 5868TIP3    H139239   1.014   0.335   8.765  0.5012 -0.0057  0.0169
 5868TIP3    H239240   0.879   0.268   8.766  1.0732 -1.2160 -1.1177
 5869TIP3   OH239241   3.047   3.224   2.735 -1.0656  0.5447 -0.6128
 5869TIP3    H139242   3.062   3.179   2.651 -1.0704  0.7739 -0.7356
 5869TIP3    H239243   2.981   3.290   2.715 -1.4168  0.2857 -0.3198
 5870TIP3   OH239244   5.527   1.314   7.359 -0.4857  0.3177 -0.0916
 5870TIP3    H139245   5.575   1.241   7.400 -0.5237 -0.6652 -1.7097
 5870TIP3    H239246   5.492   1.277   7.278 -1.4846  1.8467 -0.3972
 5871TIP3   OH239247   2.711   5.455   6.410  0.2601  0.2041 -0.4913
 5871TIP3    H139248   2.617   5.464   6.425  0.0473 -0.3437 -1.4077
 5871TIP3    H239249   2.727   5.361   6.416  0.4661  0.1348 -1.8364
 5872TIP3   OH239250   4.976   2.411   8.852  0.0396  0.7483 -0.2618
 5872TIP3    H139251   5.032   2.338   8.828 -0.6775 -0.0673  0.4658
 5872TIP3    H239252   4.950   2.393   8.943 -0.7374  1.5207 -0.3130
 5873TIP3   OH239253   0.305   3.881   0.355 -1.0453 -0.1840 -0.1292
 5873TIP3    H139254   0.365   3.807   0.346  0.4112  1.0100 -0.6376
 5873TIP3    H239255   0.344   3.936   0.423 -3.1799 -0.8234  1.7377
 5874TIP3   OH239256   1.978   6.532   8.587 -0.7100 -0.3279  0.1553
 5874TIP3    H139257   1.905   6.486   8.545 -0.8472  0.2593 -0.2685
 5874TIP3    H239258   2.036   6.463   8.617  0.4985 -0.8233 -2.9399
 5875TIP3   OH239259   5.460   2.697   7.335 -0.2994  0.1405  0.0920
 5875TIP3    H139260   5.383   2.736   7.377 -0.2681  0.4749 -0.1589
 5875TIP3    H239261   5.530   2.762   7.348  0.5513 -1.0852  2.2770
 5876TIP3   OH239262   0.661   3.984   6.577 -0.5318  0.1334  0.0357
 5876TIP3    H139263   0.753   3.980   6.602 -0.1570 -1.5118 -1.4247
 5876TIP3    H239264   0.617   3.929   6.642 -0.0309 -1.4368 -0.8928
 5877TIP3   OH239265   5.457   1.379   2.040 -0.3952  0.1301  0.5269
 5877TIP3    H139266   5.446   1.474   2.046 -0.0931  0.0734  2.4321
 5877TIP3    H239267   5.377   1.343   2.077  0.5048 -0.3303  2.0967
 5878TIP3   OH239268   3.369   6.141   2.585 -0.1585 -0.0707  0.0534
 5878TIP3    H139269   3.396   6.116   2.497 -1.6913 -0.7512 -0.2510
 5878TIP3    H239270   3.368   6.237   2.583 -0.6293 -0.0808 -0.8298
 5879TIP3   OH239271   4.604   0.935   7.302 -0.6705 -0.2445 -0.3137
 5879TIP3    H139272   4.651   1.005   7.347 -0.3332 -0.4863 -0.2929
 5879TIP3    H239273   4.516   0.972   7.287 -0.4085  0.2933 -0.5691
 5880TIP3   OH239274   3.614   4.454   1.698 -0.3009  0.5851  0.5014
 5880TIP3    H139275   3.608   4.396   1.622 -1.0862  0.3970  0.7010
 5880TIP3    H239276   3.659   4.401   1.764 -1.5841 -0.0532  0.9004
 5881TIP3   OH239277   0.012   2.495   1.293 -0.1197  0.0548 -0.1146
 5881TIP3    H139278  -0.023   2.458   1.374  0.2186  0.6588  0.3140
 5881TIP3    H239279   0.102   2.520   1.315  0.7712 -1.8137 -1.2934
 5882TIP3   OH239280   2.903   5.420   0.381 -0.5944  0.7809  0.6491
 5882TIP3    H139281   2.906   5.516   0.380 -1.9694  0.8457 -1.1814
 5882TIP3    H239282   2.825   5.398   0.332 -0.2220 -1.3088  0.9247
 5883TIP3   OH239283   5.736   3.664   6.971 -0.3059  0.6337  0.4483
 5883TIP3    H139284   5.776   3.721   7.037  1.3353 -0.0183  0.0500
 5883TIP3    H239285   5.807   3.607   6.942 -1.6250 -0.8507  0.0020
 5884TIP3   OH239286   4.399   1.943   6.862 -0.0842  0.0477 -0.6138
 5884TIP3    H139287   4.342   1.909   6.931  0.5008 -0.7273 -0.5084
 5884TIP3    H239288   4.369   2.033   6.850 -0.2150  0.1964  0.6328
 5885TIP3   OH239289   6.361   3.868   6.583  0.4339 -0.5374  0.1117
 5885TIP3    H139290   6.271   3.862   6.616  0.9197 -3.7104  1.1964
 5885TIP3    H239291   6.351   3.882   6.489 -1.1531  0.4084  0.3815
 5886TIP3   OH239292   4.214   2.539   8.115 -0.0182 -0.0411 -0.3690
 5886TIP3    H139293   4.121   2.517   8.114  0.1257 -0.7147 -2.1982
 5886TIP3    H239294   4.258   2.456   8.134  0.2565 -0.0867 -1.1493
 5887TIP3   OH239295   0.191   5.695   0.887 -0.1121  0.2225  0.2813
 5887TIP3    H139296   0.194   5.626   0.821  2.5732 -0.4913  1.0266
 5887TIP3    H239297   0.272   5.744   0.875 -0.7812  1.6854  1.4092
 5888TIP3   OH239298   1.280   4.650   7.524 -0.4067  0.0840  0.3592
 5888TIP3    H139299   1.304   4.564   7.489  0.9064  1.0572 -1.3267
 5888TIP3    H239300   1.218   4.685   7.460  0.0437  0.8937  0.3599
 5889TIP3   OH239301   2.578   3.590   1.177  0.6396  0.3793 -0.3221
 5889TIP3    H139302   2.635   3.583   1.254  0.2260  1.3694  0.1037
 5889TIP3    H239303   2.499   3.542   1.203 -0.6782  3.0700  1.0861
 5890TIP3   OH239304   5.090   0.156   8.414 -0.4821 -0.7044 -0.1130
 5890TIP3    H139305   5.161   0.146   8.477  0.1634 -0.1173 -0.7334
 5890TIP3    H239306   5.013   0.118   8.458  0.6193 -3.2863 -0.2558
 5891TIP3   OH239307   4.177   5.802   1.686 -0.7713  0.2684 -0.2739
 5891TIP3    H139308   4.197   5.721   1.732 -0.5194  0.6194  0.2433
 5891TIP3    H239309   4.093   5.830   1.722 -0.8764  0.2212 -0.4793
 5892TIP3   OH239310   2.919   5.754   7.088 -0.3297 -0.6480  0.2325
 5892TIP3    H139311   2.920   5.684   7.022  1.1575 -0.4649  0.0074
 5892TIP3    H239312   2.996   5.735   7.143 -0.2366  0.4779  0.5136
 5893TIP3   OH239313   3.996   2.054   7.630 -0.1444 -0.4452  0.2217
 5893TIP3    H139314   3.984   1.999   7.708 -2.1646 -1.4028 -0.6843
 5893TIP3    H239315   3.951   2.136   7.652  0.0577 -0.3772  0.3843
 5894TIP3   OH239316   4.255   5.024   7.680  0.0957  0.1732 -0.2689
 5894TIP3    H139317   4.187   4.961   7.659  1.9875 -2.4738  1.0142
 5894TIP3    H239318   4.328   5.002   7.621  1.3287  0.1534  1.2050
 5895TIP3   OH239319   1.068   4.738   1.044  0.1607  0.2644  0.6448
 5895TIP3    H139320   1.163   4.726   1.048  0.1979 -0.0100 -0.6115
 5895TIP3    H239321   1.050   4.807   1.109  1.1133 -0.1798  1.4089
 5896TIP3   OH239322   3.112   3.513   7.503  0.0463 -0.0134  0.0254
 5896TIP3    H139323   3.158   3.572   7.442  0.8921 -0.0311  0.6261
 5896TIP3    H239324   3.122   3.555   7.588  1.2704 -1.3474  0.5838
 5897TIP3   OH239325   4.489   5.116   0.059 -0.3916 -0.2600 -0.1067
 5897TIP3    H139326   4.409   5.133   0.010 -0.2506 -1.6824 -0.8839
 5897TIP3    H239327   4.466   5.045   0.118  0.6345 -1.7154 -1.3699
 5898TIP3   OH239328   6.554   4.187   1.495 -0.0075 -0.3758 -0.4570
 5898TIP3    H139329   6.479   4.241   1.472 -0.1954 -0.3939  0.1023
 5898TIP3    H239330   6.534   4.101   1.458 -0.8404 -0.7181  0.7433
 5899TIP3   OH239331   4.029   3.543   1.579  0.1643  0.4990  0.1372
 5899TIP3    H139332   4.020   3.537   1.674  1.7395 -1.5431  0.2270
 5899TIP3    H239333   3.992   3.461   1.546  0.2818  0.8721 -0.9666
 5900TIP3   OH239334   2.761   3.966   1.445 -1.0665 -1.0339  0.1458
 5900TIP3    H139335   2.836   3.911   1.467  0.1324  0.6777  0.5702
 5900TIP3    H239336   2.799   4.046   1.408 -2.7105 -0.3437 -0.1718
 5901TIP3   OH239337   2.578   6.622   8.099  0.4577  0.4540 -0.0173
 5901TIP3    H139338   2.674   6.629   8.103  0.4753  0.3128 -0.1572
 5901TIP3    H239339   2.551   6.698   8.048  0.4876  0.5488  0.1074
 5902TIP3   OH239340   0.853   5.739   7.816  0.2678  0.0857 -0.0290
 5902TIP3    H139341   0.917   5.678   7.780  0.6812  0.0156  0.8230
 5902TIP3    H239342   0.873   5.823   7.773 -0.4823 -0.4075 -1.4180
 5903TIP3   OH239343   5.974   4.580   7.154  0.8546 -0.4322  0.2006
 5903TIP3    H139344   5.896   4.595   7.100  1.3671  1.1454 -0.1508
 5903TIP3    H239345   6.038   4.542   7.093  1.4444  1.3819 -0.3671
 5904TIP3   OH239346   4.015   0.236   8.066 -0.1602 -0.4342  0.0121
 5904TIP3    H139347   3.961   0.157   8.067  0.7217 -1.1874  3.9793
 5904TIP3    H239348   3.976   0.293   8.131  1.9841  0.3111  0.7454
 5905TIP3   OH239349   4.717   4.953   1.375  0.1233 -0.1795 -0.0096
 5905TIP3    H139350   4.774   5.011   1.426  1.2353 -0.8284 -0.4712
 5905TIP3    H239351   4.634   4.952   1.423  1.0485 -0.5567  1.6653
 5906TIP3   OH239352   5.495   1.578   6.351  0.8460 -0.1399  0.0500
 5906TIP3    H139353   5.512   1.652   6.293  2.8340  0.1217  0.8724
 5906TIP3    H239354   5.575   1.570   6.403  0.0511 -1.8657  1.0927
 5907TIP3   OH239355   3.383   5.917   7.283 -0.6347  0.2634  0.0747
 5907TIP3    H139356   3.306   5.901   7.338  0.7757  2.0860  2.7796
 5907TIP3    H239357   3.368   6.004   7.246  0.5504  1.1468  1.5598
 5908TIP3   OH239358   6.682   2.507   8.562  0.0071  0.9125  0.9003
 5908TIP3    H139359   6.682   2.529   8.655  0.2643  2.1554  0.6184
 5908TIP3    H239360   6.723   2.582   8.519 -0.7706  0.6874 -0.2870
 5909TIP3   OH239361   2.234   4.399   6.896 -0.0584  0.3857 -0.0076
 5909TIP3    H139362   2.219   4.409   6.990  0.3492  0.2604  0.0719
 5909TIP3    H239363   2.315   4.349   6.890 -0.5289 -0.3545 -0.4209
 5910TIP3   OH239364   6.561   5.182   7.306  0.1789 -0.6991 -0.4322
 5910TIP3    H139365   6.651   5.150   7.306 -0.1712 -1.7672  1.3499
 5910TIP3    H239366   6.510   5.112   7.346 -1.2369  0.4745 -0.1081
 5911TIP3   OH239367   0.087   0.077   7.415  0.0580 -0.7549 -0.1263
 5911TIP3    H139368   0.118  -0.007   7.382  3.3159  0.3112 -0.1287
 5911TIP3    H239369   0.164   0.135   7.411 -1.9147  2.1269  0.2619
 5912TIP3   OH239370   1.087   0.564   0.228 -0.2791  0.0221  0.2156
 5912TIP3    H139371   1.025   0.493   0.209  0.9626 -0.9589 -0.3395
 5912TIP3    H239372   1.146   0.565   0.153 -0.7679  2.2486 -0.2018
 5913TIP3   OH239373   5.308   0.825   8.277 -0.8009  0.4103 -0.1883
 5913TIP3    H139374   5.363   0.850   8.203  0.1693  1.5292  0.8556
 5913TIP3    H239375   5.329   0.733   8.293  0.1603  0.5887 -0.3362
 5914TIP3   OH239376   4.416   1.599   6.988 -0.0121  0.6795 -0.3152
 5914TIP3    H139377   4.484   1.623   6.925  0.0964  1.5035  0.1032
 5914TIP3    H239378   4.388   1.682   7.026 -1.5905  0.4016 -0.8093
 5915TIP3   OH239379   0.821   5.228   1.792 -0.1243  0.0731  0.4485
 5915TIP3    H139380   0.880   5.248   1.864 -0.5815  0.5727  0.6932
 5915TIP3    H239381   0.830   5.303   1.733 -1.4779  0.8033  1.1275
 5916TIP3   OH239382   0.299   3.115   0.971 -0.3304 -0.6409  0.3160
 5916TIP3    H139383   0.393   3.116   0.991 -0.4989  0.0641  1.1849
 5916TIP3    H239384   0.257   3.126   1.057 -1.2054 -0.8539 -0.0772
 5917TIP3   OH239385   4.286   0.505   7.262  0.5442 -0.2381  0.2299
 5917TIP3    H139386   4.286   0.600   7.261 -1.4852 -0.1914  0.6431
 5917TIP3    H239387   4.378   0.481   7.256  1.1491  1.7469  0.8528
 5918TIP3   OH239388   3.561   3.629   8.045 -0.2213  0.3888  0.3943
 5918TIP3    H139389   3.521   3.550   8.007  0.9904  0.4011 -0.9774
 5918TIP3    H239390   3.488   3.673   8.089 -1.0698 -1.1316  0.6013
 5919TIP3   OH239391   3.802   1.337   0.507 -0.0648  0.3529  0.4225
 5919TIP3    H139392   3.713   1.323   0.477  0.1749 -1.2688  0.3466
 5919TIP3    H239393   3.819   1.263   0.566  0.8176  1.2900  1.3922
 5920TIP3   OH239394   2.738   2.819   1.997  0.4155  0.0053 -0.0969
 5920TIP3    H139395   2.753   2.889   1.934 -0.7072  0.0084 -0.3695
 5920TIP3    H239396   2.683   2.755   1.951 -0.7493  0.1974  0.9819
 5921TIP3   OH239397   3.542   5.736   7.941  0.1192  0.2065 -0.0499
 5921TIP3    H139398   3.589   5.654   7.925  1.2147  0.7728  0.1665
 5921TIP3    H239399   3.580   5.798   7.878 -0.9757  0.4551 -0.4832
 5922TIP3   OH239400   3.637   0.006   1.467  0.0467 -0.4360 -0.2828
 5922TIP3    H139401   3.672   0.018   1.555  0.8791 -2.8475 -0.2114
 5922TIP3    H239402   3.696   0.054   1.410  0.6265 -0.4462  0.3006
 5923TIP3   OH239403   5.162   2.222   7.302 -0.0873  0.6584 -0.6955
 5923TIP3    H139404   5.135   2.158   7.369 -0.2695  0.8968 -0.5393
 5923TIP3    H239405   5.137   2.306   7.338  1.0748  0.9147 -0.4522
 5924TIP3   OH239406   6.650   5.678   7.469  0.3540  0.4071 -0.1151
 5924TIP3    H139407   6.620   5.609   7.409 -1.4131  1.9461 -1.0867
 5924TIP3    H239408   6.679   5.630   7.547  0.7550 -1.5305 -1.3665
 5925TIP3   OH239409   2.046   6.323   7.331  0.1048  0.3852  0.9167
 5925TIP3    H139410   2.023   6.414   7.313  1.8726  0.4597 -1.4342
 5925TIP3    H239411   1.973   6.290   7.384 -1.4625  2.6465  0.3118
 5926TIP3   OH239412   6.203   1.451   7.013  0.3642  0.1409 -0.0954
 5926TIP3    H139413   6.257   1.530   7.010  1.1643 -0.3073  1.4173
 5926TIP3    H239414   6.243   1.393   6.949  0.0068  0.8149 -0.9392
 5927TIP3   OH239415   3.534   5.991   6.857  0.2252 -0.0083 -0.3000
 5927TIP3    H139416   3.523   5.914   6.801 -2.6681  0.1564 -0.0803
 5927TIP3    H239417   3.553   5.955   6.943  0.5859 -0.4020 -0.5382
 5928TIP3   OH239418   4.079   3.105   6.658  0.8270 -0.1597 -0.0567
 5928TIP3    H139419   4.111   3.046   6.726  2.2952 -0.0486 -0.6131
 5928TIP3    H239420   4.058   3.186   6.704  0.3517 -0.5833  0.4785
 5929TIP3   OH239421   5.529   2.448   2.484  0.1201  0.1644 -0.2844
 5929TIP3    H139422   5.613   2.409   2.509  0.4596  0.9410 -0.1766
 5929TIP3    H239423   5.481   2.458   2.567  0.1845  0.3121 -0.2641
 5930TIP3   OH239424   2.076   5.426   8.392  0.4828 -0.6355  0.1158
 5930TIP3    H139425   2.027   5.392   8.467  0.7856  1.1789  1.1996
 5930TIP3    H239426   2.116   5.349   8.352  0.3695 -1.6427  1.8536
 5931TIP3   OH239427   0.042   4.503   8.260 -0.3630  0.7946  0.5927
 5931TIP3    H139428   0.117   4.558   8.281 -0.2079  0.5631  0.6538
 5931TIP3    H239429   0.047   4.430   8.322 -0.3136  0.4849  0.2298
 5932TIP3   OH239430   5.662   1.584   1.753  0.1872  0.4592 -0.1411
 5932TIP3    H139431   5.727   1.647   1.784 -0.3275  0.3620  1.2340
 5932TIP3    H239432   5.578   1.627   1.770 -0.1377  0.0434 -0.6711
 5933TIP3   OH239433   5.350   1.668   0.729  0.2920  0.7665  0.3391
 5933TIP3    H139434   5.350   1.736   0.796  2.5919  0.6941  0.4961
 5933TIP3    H239435   5.438   1.629   0.734 -0.6006 -1.5239 -0.4474
 5934TIP3   OH239436   3.979   1.903   0.957 -0.3550  0.0269  0.4449
 5934TIP3    H139437   4.037   1.849   1.010 -0.8870  0.0123  1.0237
 5934TIP3    H239438   3.898   1.852   0.951 -0.9005  0.7943  1.0843
 5935TIP3   OH239439   6.304   4.691   8.824  0.3385  0.0133 -0.5456
 5935TIP3    H139440   6.231   4.708   8.764  0.3071  1.3129 -0.1681
 5935TIP3    H239441   6.369   4.758   8.803  0.2503  0.6050  0.9651
 5936TIP3   OH239442   1.767   2.431   7.686 -0.4121 -0.0709  0.9052
 5936TIP3    H139443   1.715   2.462   7.612  2.9331 -1.1630 -2.2107
 5936TIP3    H239444   1.747   2.338   7.692 -0.6567  0.0101  1.3835
 5937TIP3   OH239445   4.601   2.551   6.294  0.1479 -0.4637 -0.4112
 5937TIP3    H139446   4.680   2.537   6.242  0.9952 -0.5777  0.8618
 5937TIP3    H239447   4.614   2.498   6.373 -0.8415  0.1474  0.1908
 5938TIP3   OH239448   4.301   4.008   7.403 -0.0985 -0.4361  0.7940
 5938TIP3    H139449   4.350   4.068   7.346 -0.4469 -1.6373 -0.8611
 5938TIP3    H239450   4.366   3.977   7.465  1.1498 -1.4849 -0.9416
 5939TIP3   OH239451   6.508   3.762   0.852 -0.5484 -0.2258  0.2303
 5939TIP3    H139452   6.513   3.834   0.915 -2.5230  0.5966 -0.4753
 5939TIP3    H239453   6.517   3.805   0.766  1.7199 -1.2787 -0.1413
 5940TIP3   OH239454   5.699   3.428   7.651  0.4096  0.1273 -0.1143
 5940TIP3    H139455   5.632   3.398   7.590  0.0097 -0.3427  0.5324
 5940TIP3    H239456   5.782   3.400   7.611  0.1316 -0.5002 -0.2753
 5941TIP3   OH239457   1.798   6.639   8.166  0.6387 -0.0374 -0.5728
 5941TIP3    H139458   1.712   6.641   8.124  0.0539 -0.4403  0.5682
 5941TIP3    H239459   1.825   6.548   8.161  0.6009 -0.0723 -0.1497
 5942TIP3   OH239460   1.855   3.276   7.367 -0.0194  0.1652 -0.7666
 5942TIP3    H139461   1.773   3.317   7.340  1.8865  3.7289 -1.8623
 5942TIP3    H239462   1.876   3.215   7.296 -2.0173 -1.4637 -0.0576
 5943TIP3   OH239463   6.068   5.673   8.511 -0.2727  0.0007 -0.2366
 5943TIP3    H139464   6.059   5.762   8.544 -0.8455  0.2401 -1.0369
 5943TIP3    H239465   5.981   5.648   8.482 -0.0377 -0.6809 -0.3836
 5944TIP3   OH239466   3.133   4.649   0.892  0.2840  0.1652  0.2324
 5944TIP3    H139467   3.102   4.696   0.970  1.0762  0.5248  0.3391
 5944TIP3    H239468   3.227   4.668   0.888  0.2296  0.2395 -0.8833
 5945TIP3   OH239469   1.870   1.338   8.872 -1.2973 -1.0881 -0.7169
 5945TIP3    H139470   1.890   1.287   8.794 -1.7192 -0.5149 -1.2031
 5945TIP3    H239471   1.919   1.420   8.861 -0.6328 -1.3688  0.0521
 5946TIP3   OH239472   1.250   0.196   1.241 -0.3550 -0.9657 -0.5198
 5946TIP3    H139473   1.175   0.216   1.297 -0.7905  0.0141 -1.4102
 5946TIP3    H239474   1.326   0.203   1.299 -0.8051 -0.0819 -0.0141
 5947TIP3   OH239475   0.704   1.449   2.068 -0.5366  0.0354  0.2636
 5947TIP3    H139476   0.696   1.366   2.021  3.2019  0.7562 -2.0070
 5947TIP3    H239477   0.711   1.516   1.999 -0.1360  1.8484  1.9610
 5948TIP3   OH239478   6.687   1.315   2.161  0.1406  0.0055 -0.1647
 5948TIP3    H139479   6.763   1.373   2.157 -0.2485  0.6046  0.7672
 5948TIP3    H239480   6.624   1.362   2.215 -0.5753 -0.8555 -0.2286
 5949TIP3   OH239481   3.208   1.835   2.276  0.0474 -0.0504  0.4149
 5949TIP3    H139482   3.133   1.790   2.315 -1.1258  1.3003 -0.2206
 5949TIP3    H239483   3.188   1.928   2.284  2.5777  0.4509  1.9868
 5950TIP3   OH239484   0.159   0.961   0.382  0.0982 -0.2306 -0.1342
 5950TIP3    H139485   0.239   0.969   0.434  0.5248 -0.2793 -0.7777
 5950TIP3    H239486   0.104   1.034   0.411  0.2123 -0.4188  0.5856
 5951TIP3   OH239487   0.688   5.891   8.129 -0.2339  0.3734  0.2405
 5951TIP3    H139488   0.669   5.975   8.170  0.8994  0.8916 -0.2369
 5951TIP3    H239489   0.767   5.908   8.077 -0.6574 -0.6899 -0.7799
 5952TIP3   OH239490   5.298   2.111   0.987  0.4483  0.2696  0.0529
 5952TIP3    H139491   5.220   2.126   0.933  0.6477 -0.7591 -0.5435
 5952TIP3    H239492   5.275   2.036   1.042  1.5390 -1.0387 -1.2202
 5953TIP3   OH239493   4.662   0.565   6.649 -1.2411 -0.0283  0.0575
 5953TIP3    H139494   4.704   0.484   6.618 -0.4353  0.0315  0.9134
 5953TIP3    H239495   4.730   0.632   6.639 -0.0069 -0.4082  3.9269
 5954TIP3   OH239496   1.211   4.972   8.881  0.4211 -0.3124  0.2175
 5954TIP3    H139497   1.281   4.989   8.818 -1.0349 -0.3000 -1.4887
 5954TIP3    H239498   1.213   5.047   8.941  1.0611  0.3172 -0.5744
 5955TIP3   OH239499   0.056   6.298   7.969 -0.2513  0.2363 -0.0044
 5955TIP3    H139500   0.013   6.227   7.921 -1.8957  0.0507  1.6426
 5955TIP3    H239501   0.097   6.256   8.044 -1.7275  1.0287  1.3039
 5956TIP3   OH239502   0.238   5.557   7.729  0.5421  0.1190  0.9663
 5956TIP3    H139503   0.296   5.489   7.693  0.2370  0.0728  0.5530
 5956TIP3    H239504   0.245   5.630   7.668  1.0581  0.5617  1.5444
 5957TIP3   OH239505   3.331   4.521   1.746  0.5799 -0.2618 -0.0714
 5957TIP3    H139506   3.306   4.535   1.837 -0.3463 -1.7318 -0.0624
 5957TIP3    H239507   3.426   4.533   1.745  0.4424  1.1416  0.7793
 5958TIP3   OH239508   2.102   2.208   0.337 -0.7057 -0.2882  0.4397
 5958TIP3    H139509   2.046   2.167   0.403 -0.5647 -1.2073  0.0068
 5958TIP3    H239510   2.054   2.287   0.310 -1.3439 -0.5681  0.7463
 5959TIP3   OH239511   4.986   5.720   8.199 -0.3973 -1.0554  0.0409
 5959TIP3    H139512   5.050   5.783   8.231  0.2873 -2.8649  2.5390
 5959TIP3    H239513   4.968   5.747   8.109  1.0991  1.6512  0.4583
 5960TIP3   OH239514   5.271   1.033   6.794 -0.2122  0.6734  0.5679
 5960TIP3    H139515   5.265   0.938   6.792 -2.2237  0.7214 -2.1743
 5960TIP3    H239516   5.361   1.053   6.769  0.0566 -0.4957  0.5631
 5961TIP3   OH239517   3.347   0.577   0.957  0.1549  0.3455 -0.4112
 5961TIP3    H139518   3.308   0.624   1.030 -1.1698 -2.7094  1.0147
 5961TIP3    H239519   3.279   0.516   0.928  2.0772 -1.5323 -1.3095
 5962TIP3   OH239520   6.746   6.206   7.424 -0.0625  0.1140  0.3782
 5962TIP3    H139521   6.694   6.125   7.416  0.6369 -0.3934  0.8239
 5962TIP3    H239522   6.689   6.267   7.471  0.1060 -0.7821  1.8031
 5963TIP3   OH239523   0.121   1.218   8.313 -0.2454 -0.2744 -0.4671
 5963TIP3    H139524   0.058   1.162   8.268 -0.2587 -0.0016 -0.7894
 5963TIP3    H239525   0.124   1.298   8.261  0.3932 -0.2962 -0.4783
 5964TIP3   OH239526   2.946   5.798   0.217 -0.4626 -0.0317  0.4999
 5964TIP3    H139527   2.909   5.739   0.283  0.3689 -1.6697 -0.4222
 5964TIP3    H239528   2.989   5.739   0.154  2.0075  1.6069  0.4944
 5965TIP3   OH239529   2.676   5.878   7.503 -0.2042 -0.5454 -0.5552
 5965TIP3    H139530   2.735   5.852   7.574 -1.8477 -1.4035  0.5495
 5965TIP3    H239531   2.728   5.939   7.451  1.0806  0.0781  1.3384
 5966TIP3   OH239532   4.675   0.452   0.204  0.2854 -0.2908 -0.1543
 5966TIP3    H139533   4.749   0.453   0.142 -0.3552  0.6881 -0.9310
 5966TIP3    H239534   4.644   0.542   0.205 -0.2493 -0.4773  0.9747
 5967TIP3   OH239535   5.901   6.053   8.361 -0.9141  1.0198  0.0906
 5967TIP3    H139536   5.937   6.000   8.290  1.5424  0.6397  1.4754
 5967TIP3    H239537   5.896   5.993   8.435  0.8176  2.3443  1.3801
 5968TIP3   OH239538   3.806   0.046   6.334 -0.3549 -0.3858  0.7556
 5968TIP3    H139539   3.825  -0.007   6.412 -0.2604 -0.9717  0.3464
 5968TIP3    H239540   3.713   0.033   6.318 -0.0921 -1.4526 -0.0629
 5969TIP3   OH239541   4.061   1.709   1.869  0.3441 -0.1745 -0.3168
 5969TIP3    H139542   3.976   1.711   1.913 -0.0316 -0.6088 -0.9934
 5969TIP3    H239543   4.092   1.800   1.873  0.2404 -0.1746  0.6630
 5970TIP3   OH239544   1.376   4.487   1.224 -0.3980  0.6730  0.3094
 5970TIP3    H139545   1.403   4.464   1.313 -1.5647  1.2658  0.8423
 5970TIP3    H239546   1.306   4.551   1.236 -1.5698 -0.3095 -0.9948
 5971TIP3   OH239547   6.451   2.707   0.437  0.3502 -0.0319  0.4093
 5971TIP3    H139548   6.480   2.756   0.515  0.4181  0.4743  0.0736
 5971TIP3    H239549   6.522   2.721   0.373  0.2990 -0.4516  0.2611
 5972TIP3   OH239550   4.043   0.108   6.576 -0.2467 -0.1982  0.1799
 5972TIP3    H139551   3.992   0.120   6.656 -1.0214  0.9455 -0.4587
 5972TIP3    H239552   4.072   0.196   6.553  0.2271 -0.5607 -0.6284
 5973TIP3   OH239553   3.583   0.422   1.264 -0.2368 -0.1343 -0.1089
 5973TIP3    H139554   3.656   0.364   1.242  0.2289 -0.4646  2.0761
 5973TIP3    H239555   3.612   0.509   1.235  0.3182 -0.5223 -0.7391
 5974TIP3   OH239556   5.682   0.129   0.539  0.0137  0.1382  0.3022
 5974TIP3    H139557   5.636   0.052   0.506  0.6524 -0.0940 -0.0656
 5974TIP3    H239558   5.650   0.140   0.629 -0.3495 -0.3412  0.2308
 5975TIP3   OH239559   4.199   3.471   7.569 -0.1165  0.0071 -0.5840
 5975TIP3    H139560   4.253   3.409   7.520 -0.1352 -0.3996 -0.1035
 5975TIP3    H239561   4.122   3.421   7.594  0.0273  0.1210  0.1052
 5976TIP3   OH239562   1.750   4.222   6.705 -0.4315  0.5003  0.2243
 5976TIP3    H139563   1.681   4.280   6.736 -1.1160  0.9718 -1.9860
 5976TIP3    H239564   1.831   4.273   6.717 -0.6548  0.6709  1.1031
 5977TIP3   OH239565   3.562   5.958   2.385  0.8782 -0.2070  0.4725
 5977TIP3    H139566   3.650   5.932   2.356  0.4835  1.5770 -2.7593
 5977TIP3    H239567   3.577   6.026   2.450  1.8747 -0.3622  0.4231
 5978TIP3   OH239568   1.196   3.938   8.904 -0.0463 -0.7502  0.2308
 5978TIP3    H139569   1.197   3.991   8.825  3.2713 -0.8464  0.0675
 5978TIP3    H239570   1.179   4.000   8.975 -0.0052 -0.1197 -0.3049
 5979TIP3   OH239571   3.714   0.830   7.803 -0.3915  0.5948  0.8014
 5979TIP3    H139572   3.742   0.908   7.755 -3.4103  2.0816  1.2197
 5979TIP3    H239573   3.740   0.847   7.894  1.8070 -0.4317  0.4219
 5980TIP3   OH239574   1.641   2.409   7.170  0.1389 -0.0975  0.2156
 5980TIP3    H139575   1.683   2.324   7.155 -1.3790 -1.3122  2.3804
 5980TIP3    H239576   1.714   2.469   7.187  1.2372 -0.8658 -1.4704
 5981TIP3   OH239577   6.280   1.795   8.827  0.5391 -0.2021 -0.1588
 5981TIP3    H139578   6.193   1.820   8.795  0.8314  1.6279  0.3579
 5981TIP3    H239579   6.306   1.722   8.772 -1.2945 -0.7468 -0.3791
 5982TIP3   OH239580   4.503   1.314   6.155  0.4441 -0.0765  0.1894
 5982TIP3    H139581   4.519   1.274   6.070 -0.9768  1.0213 -0.6452
 5982TIP3    H239582   4.409   1.303   6.169  0.3812  1.1474  0.8559
 5983TIP3   OH239583   0.449   2.333   8.842 -0.2551 -0.2676 -0.5648
 5983TIP3    H139584   0.485   2.260   8.792  0.2241 -1.2701  1.1659
 5983TIP3    H239585   0.367   2.298   8.878 -0.3557  0.2777 -0.2660
 5984TIP3   OH239586   3.741   2.516   7.855  0.2960 -0.6078 -0.3052
 5984TIP3    H139587   3.749   2.592   7.911 -0.7073 -0.8947  0.2516
 5984TIP3    H239588   3.654   2.481   7.874  0.0822 -0.9405 -1.7526
 5985TIP3   OH239589   2.887   0.295   0.461  0.6198 -0.4438 -0.2260
 5985TIP3    H139590   2.957   0.242   0.423  1.7970  1.8880 -1.4720
 5985TIP3    H239591   2.824   0.305   0.390 -0.1797 -1.0883  0.3693
 5986TIP3   OH239592   4.863   0.917   1.863  0.0642  0.2229  0.2468
 5986TIP3    H139593   4.821   0.867   1.932 -0.6097  1.7241  0.9652
 5986TIP3    H239594   4.798   0.982   1.837  0.3103 -0.2629 -1.7951
 5987TIP3   OH239595   0.717   5.477   0.360 -0.5512 -0.0879 -0.4171
 5987TIP3    H139596   0.803   5.461   0.320  0.9216  2.0609  1.6386
 5987TIP3    H239597   0.711   5.413   0.431  1.8436  2.8576  2.7738
 5988TIP3   OH239598   5.323   4.224   1.339  0.1590 -0.4427 -0.5190
 5988TIP3    H139599   5.352   4.132   1.344  0.4073 -0.3290  0.3246
 5988TIP3    H239600   5.234   4.222   1.372 -0.6236 -0.6941 -2.5222
 5989TIP3   OH239601   0.165   1.631   1.613 -0.2750  0.9627  0.2360
 5989TIP3    H139602   0.096   1.572   1.583  1.1326 -1.6779  1.8853
 5989TIP3    H239603   0.224   1.640   1.538  0.5558 -1.4580  0.5297
 5990TIP3   OH239604   1.316   5.100   1.932  0.1423  0.4657  0.0909
 5990TIP3    H139605   1.232   5.082   1.974 -0.5864  3.3787  0.1067
 5990TIP3    H239606   1.300   5.085   1.839  0.2130 -0.8354  0.2672
 5991TIP3   OH239607   5.737   3.174   8.766 -0.1025 -0.1307  0.7402
 5991TIP3    H139608   5.771   3.246   8.713 -2.6541 -0.1546 -1.1259
 5991TIP3    H239609   5.660   3.212   8.810 -2.3982 -1.9218 -1.4234
 5992TIP3   OH239610   4.206   3.985   1.787 -0.8147 -0.2892  0.2840
 5992TIP3    H139611   4.261   3.913   1.815 -1.4181 -0.3553  1.3648
 5992TIP3    H239612   4.266   4.050   1.751 -0.1333 -0.6988  0.6831
 5993TIP3   OH239613   4.075   3.833   7.300 -0.2144  0.3938  0.2525
 5993TIP3    H139614   4.075   3.830   7.395  0.5367  0.4589  0.2643
 5993TIP3    H239615   4.070   3.741   7.272 -1.1737  0.4101  0.3382
 5994TIP3   OH239616   2.940   6.687   0.711  0.6949 -0.4923  0.1033
 5994TIP3    H139617   3.023   6.731   0.730  0.6537 -0.1108 -0.5260
 5994TIP3    H239618   2.891   6.752   0.660 -0.2526 -0.4733  1.0110
 5995TIP3   OH239619   6.482   6.704   2.093  0.0014  0.9992  0.1510
 5995TIP3    H139620   6.460   6.679   2.183  1.3136 -3.2815 -0.4894
 5995TIP3    H239621   6.570   6.740   2.099  1.3818 -2.1305  0.4121
 5996TIP3   OH239622   4.301   5.428   8.607 -0.2494 -0.3987 -0.2154
 5996TIP3    H139623   4.306   5.406   8.514 -1.3272 -0.3164 -0.3008
 5996TIP3    H239624   4.346   5.512   8.614  1.2445 -1.1422 -0.3775
 5997TIP3   OH239625   2.841   4.068   2.457 -0.1550 -0.5326 -0.0812
 5997TIP3    H139626   2.814   4.065   2.549 -1.8780  1.2341 -0.4620
 5997TIP3    H239627   2.851   4.161   2.439  0.2947 -0.8647 -1.6551
 5998TIP3   OH239628   0.959   3.939   8.136  0.3812  0.6330 -0.0583
 5998TIP3    H139629   1.029   3.931   8.070  0.1079 -0.9768 -0.1984
 5998TIP3    H239630   0.878   3.937   8.085  0.1421 -1.2714  0.3130
 5999TIP3   OH239631   4.753   1.601   0.261  0.2092  0.2370  0.3338
 5999TIP3    H139632   4.680   1.605   0.200 -1.2792 -0.0901  1.9849
 5999TIP3    H239633   4.740   1.518   0.307  2.7202 -0.7450 -0.5779
 6000TIP3   OH239634   5.053   2.893   7.692  0.8006 -0.1912 -0.0775
 6000TIP3    H139635   5.117   2.828   7.664  2.2624  1.4465 -0.7034
 6000TIP3    H239636   5.089   2.931   7.772 -0.6062 -0.8978  0.9465
 6001TIP3   OH239637   3.828   3.972   0.896 -0.3387 -0.4748  0.5139
 6001TIP3    H139638   3.802   3.914   0.968  1.0396 -0.6941  0.8714
 6001TIP3    H239639   3.898   3.925   0.851 -0.3308  0.2052 -0.2099
 6002TIP3   OH239640   5.068   6.570   6.721  0.5070 -0.4474  0.2783
 6002TIP3    H139641   4.978   6.587   6.748  0.0392  1.1804 -1.9875
 6002TIP3    H239642   5.068   6.587   6.627  3.0119 -1.2497  0.0656
 6003TIP3   OH239643   4.796   3.294   6.894 -0.1612  0.7317  0.2682
 6003TIP3    H139644   4.863   3.239   6.933  0.5517 -0.7591 -2.7798
 6003TIP3    H239645   4.827   3.383   6.907  1.0845  0.1928  1.1714
 6004TIP3   OH239646   6.302   0.997   7.129 -0.6266 -0.3236 -0.1860
 6004TIP3    H139647   6.226   1.053   7.141  0.3915  1.0258  0.2300
 6004TIP3    H239648   6.289   0.957   7.043 -1.5093  0.3413 -0.3765
 6005TIP3   OH239649   6.070   5.551   1.605  0.0697 -0.3181 -0.2417
 6005TIP3    H139650   6.123   5.579   1.530  0.7529 -0.9928 -0.0187
 6005TIP3    H239651   6.126   5.566   1.681 -0.3898 -0.2316  0.0824
 6006TIP3   OH239652   0.496   3.152   8.667 -0.2159 -0.3906  0.0231
 6006TIP3    H139653   0.501   3.193   8.753  0.8678 -2.0235  0.8001
 6006TIP3    H239654   0.412   3.181   8.630 -0.7982  0.1671  1.7174
 6007TIP3   OH239655   3.571   5.201   0.891  0.2700 -0.2776 -0.1360
 6007TIP3    H139656   3.490   5.159   0.920 -0.4404 -0.0055 -1.6583
 6007TIP3    H239657   3.550   5.295   0.888  0.4414 -0.2611 -1.1251
 6008TIP3   OH239658   5.991   3.196   8.437  0.4129  0.9590 -0.1787
 6008TIP3    H139659   6.035   3.129   8.488 -1.7139 -0.0157  0.5030
 6008TIP3    H239660   5.959   3.259   8.501 -0.1865  1.0097 -0.5142
 6009TIP3   OH239661   6.537   3.910   8.796 -0.3810  0.1951  0.6582
 6009TIP3    H139662   6.462   3.907   8.856 -1.3335  0.5975 -0.4634
 6009TIP3    H239663   6.528   3.830   8.744 -1.1290  1.1176 -0.7056
 6010TIP3   OH239664   6.425   4.178   7.899 -0.5651 -0.1252 -0.1993
 6010TIP3    H139665   6.474   4.131   7.967  0.5470  0.9100 -0.2539
 6010TIP3    H239666   6.352   4.220   7.946  0.7016  1.3234  0.5648
 6011TIP3   OH239667   1.346   1.443   7.103 -0.0421 -0.7772 -0.1616
 6011TIP3    H139668   1.327   1.457   7.195 -0.1371 -0.0388 -0.2829
 6011TIP3    H239669   1.402   1.365   7.101 -1.6877 -2.0156  0.3349
 6012TIP3   OH239670   1.817   2.461   0.999 -0.1597 -0.4717  0.1366
 6012TIP3    H139671   1.752   2.392   0.991  0.3662 -0.8578 -0.9837
 6012TIP3    H239672   1.855   2.469   0.911  0.4919  0.5449  0.4902
 6013TIP3   OH239673   2.201   5.832   7.752 -0.0191  0.0868  0.3877
 6013TIP3    H139674   2.174   5.885   7.828  1.4280  1.2254  0.1580
 6013TIP3    H239675   2.250   5.759   7.789 -1.5133 -0.8036  0.6730
 6014TIP3   OH239676   1.811   0.992   0.432  0.1007 -0.3841  0.3255
 6014TIP3    H139677   1.728   0.946   0.414  0.0526 -1.1744  2.2519
 6014TIP3    H239678   1.872   0.958   0.367 -1.2045  0.6712 -1.5303
 6015TIP3   OH239679   2.756   5.913   1.516 -0.0829 -0.4519  0.2850
 6015TIP3    H139680   2.704   5.921   1.596 -0.1391  2.8005  0.0675
 6015TIP3    H239681   2.757   5.819   1.497 -2.0271 -1.0882  2.7807
 6016TIP3   OH239682   1.479   6.148   8.707 -0.8870 -0.5565 -0.6150
 6016TIP3    H139683   1.463   6.233   8.665  3.6935  0.8592 -0.0623
 6016TIP3    H239684   1.472   6.167   8.801  3.2498  0.3310 -0.2867
 6017TIP3   OH239685   3.048   3.707   0.791 -0.1525  0.1290  0.2163
 6017TIP3    H139686   3.042   3.639   0.723  1.1798 -0.5091  0.7096
 6017TIP3    H239687   2.977   3.686   0.851  1.5980 -2.3269  1.6292
 6018TIP3   OH239688   2.243   4.684   7.960  0.2710  0.2868 -0.1770
 6018TIP3    H139689   2.314   4.718   8.014 -0.6842  1.4899  0.3660
 6018TIP3    H239690   2.287   4.652   7.881  1.3154  2.2122 -0.4422
 6019TIP3   OH239691   1.146   3.552   1.730  0.2597 -0.1099 -0.0911
 6019TIP3    H139692   1.219   3.492   1.745 -0.3822 -0.7805  0.4074
 6019TIP3    H239693   1.080   3.527   1.795 -1.2499 -0.8902 -1.8053
 6020TIP3   OH239694   4.385   1.234   6.475 -0.1001  0.2938 -0.1054
 6020TIP3    H139695   4.337   1.242   6.394 -2.3667  1.2982  1.2527
 6020TIP3    H239696   4.462   1.290   6.464 -0.9979  1.3557 -1.1103
 6021TIP3   OH239697   0.243   4.215   2.037  0.1549  0.1593  0.6201
 6021TIP3    H139698   0.253   4.161   2.115  1.2552 -0.2102  0.2515
 6021TIP3    H239699   0.199   4.294   2.067 -2.8108 -1.4646  0.9258
 6022TIP3   OH239700   2.618   3.925   2.038 -0.3063  0.2878 -0.2777
 6022TIP3    H139701   2.685   3.915   1.970 -0.5501  0.9365 -0.6237
 6022TIP3    H239702   2.539   3.947   1.990 -1.3864 -2.7420 -0.0833
 6023TIP3   OH239703   1.269   3.312   7.073  0.0370  0.3740  0.0934
 6023TIP3    H139704   1.285   3.390   7.020  0.3626  1.4489  1.7040
 6023TIP3    H239705   1.320   3.244   7.030 -1.2193  0.6831 -2.0738
 6024TIP3   OH239706   0.295   1.558   0.295  0.0818 -1.1457  0.4587
 6024TIP3    H139707   0.382   1.529   0.322  0.7251 -1.6368 -1.9340
 6024TIP3    H239708   0.242   1.478   0.293  0.4076 -1.3408 -0.9747
 6025TIP3   OH239709   2.599   6.391   7.821 -0.0085 -0.0982  0.3042
 6025TIP3    H139710   2.648   6.465   7.784 -0.4185 -0.1863 -0.4444
 6025TIP3    H239711   2.517   6.429   7.851 -0.8132 -0.4518 -1.3544
 6026TIP3   OH239712   4.436   5.902   1.717 -0.0702 -0.1557  0.0602
 6026TIP3    H139713   4.445   5.814   1.681 -0.8468 -0.2343  0.0331
 6026TIP3    H239714   4.341   5.917   1.719  0.0682  0.8194 -0.2762
 6027TIP3   OH239715   5.352   4.418   8.655  0.1051 -0.1163  0.5506
 6027TIP3    H139716   5.377   4.386   8.568 -0.3259 -0.7089  0.6302
 6027TIP3    H239717   5.257   4.430   8.649  0.0918 -0.0373  0.8979
 6028TIP3   OH239718   6.217   1.716   0.247  0.3102  0.1648 -0.2904
 6028TIP3    H139719   6.271   1.795   0.252  0.5799 -0.0704  1.0658
 6028TIP3    H239720   6.138   1.739   0.297  0.9384 -0.8076  1.2135
 6029TIP3   OH239721   6.336   5.947   0.793  0.1335  0.0943 -0.1646
 6029TIP3    H139722   6.328   5.875   0.856 -0.4907  0.3469  0.0558
 6029TIP3    H239723   6.401   6.005   0.831  2.3085 -1.3890 -1.3801
 6030TIP3   OH239724   5.416   6.535   7.194 -0.4805  0.1090  0.2031
 6030TIP3    H139725   5.494   6.505   7.241  0.5531  0.7792 -1.0092
 6030TIP3    H239726   5.343   6.492   7.239  0.6467 -1.2888  0.8013
 6031TIP3   OH239727   2.001   4.183   1.901 -0.0351  0.0223 -0.0254
 6031TIP3    H139728   2.042   4.130   1.833  1.7008  0.4588  0.6165
 6031TIP3    H239729   1.972   4.120   1.967 -0.7098 -0.3222 -0.6512
 6032TIP3   OH239730   1.097   3.347   1.381  0.6228  0.6899 -0.1282
 6032TIP3    H139731   1.035   3.351   1.454 -1.7800  0.6216 -2.0417
 6032TIP3    H239732   1.170   3.403   1.408 -0.0408  0.4498  2.3973
 6033TIP3   OH239733   2.711   1.310   1.901  0.1073  0.1120 -0.1902
 6033TIP3    H139734   2.763   1.261   1.964 -0.1064 -1.5298 -1.2381
 6033TIP3    H239735   2.774   1.334   1.833  0.1235  0.9555  0.1107
 6034TIP3   OH239736   4.171   5.956   2.337 -0.3084  0.0605 -0.5407
 6034TIP3    H139737   4.174   5.861   2.328 -1.8100 -0.0093 -0.6308
 6034TIP3    H239738   4.251   5.979   2.384 -0.7328 -1.4411  1.0259
 6035TIP3   OH239739   4.389   4.684   1.224 -0.2965 -0.2867  0.0192
 6035TIP3    H139740   4.455   4.659   1.159 -0.8095 -1.4795 -0.0638
 6035TIP3    H239741   4.341   4.756   1.183  0.0393 -0.3452 -0.4888
 6036TIP3   OH239742   3.927   2.293   8.027 -0.3351 -0.0341  0.1960
 6036TIP3    H139743   4.014   2.322   7.997 -0.5959  0.8079  0.2265
 6036TIP3    H239744   3.937   2.286   8.122 -0.3047  0.0879  0.2027
 6037TIP3   OH239745   1.093   6.614   0.242 -0.1822 -0.1144  0.1703
 6037TIP3    H139746   1.081   6.708   0.252 -1.4578 -0.2070 -0.2464
 6037TIP3    H239747   1.185   6.603   0.220  0.5224  0.8431  2.3737
 6038TIP3   OH239748   3.644   4.626   8.905  0.0907 -0.0793  0.0086
 6038TIP3    H139749   3.591   4.636   8.826 -0.4656  0.1507  0.4064
 6038TIP3    H239750   3.700   4.551   8.887 -1.0872 -0.9850 -0.0170
 6039TIP3   OH239751   3.485   2.348   8.131 -0.6287 -0.1407 -0.0048
 6039TIP3    H139752   3.463   2.384   8.045  0.5885 -0.7805 -0.6051
 6039TIP3    H239753   3.552   2.407   8.165 -1.4665  0.4047  0.7551
 6040TIP3   OH239754   1.982   3.247   1.827 -0.3633 -0.3605 -0.5947
 6040TIP3    H139755   2.052   3.297   1.868 -2.8049  1.3527  1.8335
 6040TIP3    H239756   1.963   3.293   1.746  0.9723 -0.5819 -1.0526
 6041TIP3   OH239757   0.139   0.213   1.677  0.4942  0.3764 -0.0160
 6041TIP3    H139758   0.144   0.196   1.771  0.8189 -0.4070 -0.1610
 6041TIP3    H239759   0.144   0.308   1.669  1.3019  0.4118  0.7190
 6042TIP3   OH239760   3.303   5.003   0.780 -0.6754  0.0278  0.0513
 6042TIP3    H139761   3.309   5.094   0.752  0.1032  0.1643  0.6183
 6042TIP3    H239762   3.309   5.007   0.876 -0.3625 -0.6299  0.0665
 6043TIP3   OH239763   6.298   6.678   1.703 -0.3552 -0.6015 -0.2865
 6043TIP3    H139764   6.250   6.613   1.651 -1.1118 -1.0736  0.9376
 6043TIP3    H239765   6.270   6.660   1.793  2.2743 -1.0172  0.5179
 6044TIP3   OH239766   3.769   3.476   7.867  0.4454 -0.0756  0.3644
 6044TIP3    H139767   3.864   3.488   7.872  0.7009 -0.5946 -2.0495
 6044TIP3    H239768   3.736   3.564   7.847  0.3787  0.0979  1.1698
 6045TIP3   OH239769   1.155   6.059   8.196  0.1867 -0.1249  0.2670
 6045TIP3    H139770   1.221   6.004   8.239  0.0369  0.4800  1.3218
 6045TIP3    H239771   1.079   6.002   8.187  1.1326 -1.1628 -1.9304
 6046TIP3   OH239772   0.333   0.874   8.549  1.1626  0.2584  0.3857
 6046TIP3    H139773   0.324   0.786   8.586  1.4491 -0.2312 -0.6818
 6046TIP3    H239774   0.270   0.927   8.598  2.1809 -0.1229  2.2410
 6047TIP3   OH239775   2.368   5.944   1.284  0.0349 -0.4394  0.3070
 6047TIP3    H139776   2.400   6.026   1.322  2.6264 -0.4640 -1.5517
 6047TIP3    H239777   2.322   5.971   1.205 -1.5865 -0.6731  1.1203
 6048TIP3   OH239778   2.532   3.776   0.221  0.1263  0.2136 -0.4725
 6048TIP3    H139779   2.531   3.819   0.307  1.1534  1.6499 -1.1258
 6048TIP3    H239780   2.542   3.849   0.159 -1.6940 -0.6847 -1.8976
 6049TIP3   OH239781   6.175   4.147   8.832 -0.0248 -0.7287  0.4702
 6049TIP3    H139782   6.253   4.134   8.886  1.1759  0.7592 -0.8165
 6049TIP3    H239783   6.156   4.061   8.795  0.8242 -1.1691  1.0193
 6050TIP3   OH239784   1.468   4.439   7.708  0.0545  0.0303 -0.4091
 6050TIP3    H139785   1.432   4.503   7.769  0.9845 -0.6441  0.8871
 6050TIP3    H239786   1.422   4.358   7.729 -0.0058 -0.0933 -0.9958
 6051TIP3   OH239787   4.294   3.181   6.464  0.3116  1.2455  0.8070
 6051TIP3    H139788   4.287   3.240   6.389 -0.3862  1.1655  0.8059
 6051TIP3    H239789   4.206   3.179   6.502 -0.7177 -2.4647 -1.2436
 6052TIP3   OH239790   4.130   6.038   6.870 -0.1794  0.2415 -0.4463
 6052TIP3    H139791   4.197   6.077   6.926 -0.6367 -0.6073  0.7278
 6052TIP3    H239792   4.178   6.003   6.796  1.0618 -2.4710  1.5078
 6053TIP3   OH239793   6.128   1.239   1.663 -0.1004  0.2910  0.6668
 6053TIP3    H139794   6.185   1.316   1.653  0.0614 -0.0135 -1.1354
 6053TIP3    H239795   6.048   1.262   1.616 -0.0137 -0.6495  0.0178
 6054TIP3   OH239796   6.549   6.804   8.693  0.0697 -0.0261 -0.4191
 6054TIP3    H139797   6.485   6.776   8.759  0.1685  1.3310  0.2751
 6054TIP3    H239798   6.499   6.807   8.612 -0.9621  1.6304  0.2242
 6055TIP3   OH239799   4.725   1.484   6.666 -0.3010  0.0623 -0.1021
 6055TIP3    H139800   4.685   1.552   6.612 -0.8719 -0.4347 -0.3114
 6055TIP3    H239801   4.765   1.424   6.603 -1.1219 -0.6154  0.0201
 6056TIP3   OH239802   5.936   5.093   8.317  0.1600  0.4500  0.2609
 6056TIP3    H139803   5.867   5.105   8.382  0.0374  1.3787 -0.0193
 6056TIP3    H239804   5.906   5.021   8.262 -0.3436  0.5122  0.4509
 6057TIP3   OH239805   2.820   6.072   7.376 -0.4726 -0.3012 -0.0833
 6057TIP3    H139806   2.884   6.085   7.306 -0.0197 -0.4887  0.2870
 6057TIP3    H239807   2.849   6.131   7.446 -2.2275  1.6194 -0.8869
 6058TIP3   OH239808   4.251   0.781   0.736 -0.1246 -0.3109 -0.2871
 6058TIP3    H139809   4.256   0.692   0.700 -0.1774 -0.2979 -0.3261
 6058TIP3    H239810   4.195   0.774   0.812  1.4066 -0.6912  0.8534
 6059TIP3   OH239811   2.437   3.395   8.287 -0.3536  0.5343  0.3006
 6059TIP3    H139812   2.400   3.482   8.301  1.3965  1.1685  1.2844
 6059TIP3    H239813   2.473   3.399   8.198 -3.4345 -0.4608 -1.1291
 6060TIP3   OH239814   6.084   4.393   1.073 -0.5693  0.3593 -0.4709
 6060TIP3    H139815   6.063   4.468   1.017  0.3537  0.9709 -0.0344
 6060TIP3    H239816   6.175   4.372   1.051  0.6612  2.1197  2.3690
 6061TIP3   OH239817   4.155   2.604   6.750  0.4583 -0.0168 -0.0015
 6061TIP3    H139818   4.173   2.537   6.816  0.4497  0.0960  0.1131
 6061TIP3    H239819   4.064   2.587   6.724  0.5550 -0.2463 -0.1969
 6062TIP3   OH239820   3.757   0.508   6.913 -0.1279  0.4805 -0.1797
 6062TIP3    H139821   3.735   0.421   6.947 -2.2252  0.5785 -1.1006
 6062TIP3    H239822   3.770   0.494   6.820 -0.9129  1.1926 -0.4092
 6063TIP3   OH239823   2.197   4.681   1.010 -0.3637 -0.7461 -0.2223
 6063TIP3    H139824   2.283   4.657   1.044 -0.2215 -0.5196 -0.4193
 6063TIP3    H239825   2.208   4.771   0.979 -0.6690 -0.7203 -0.2556
 6064TIP3   OH239826   5.855   0.252   1.598 -0.4480  0.6387 -0.6499
 6064TIP3    H139827   5.845   0.207   1.681  0.8280  1.1042 -0.2258
 6064TIP3    H239828   5.828   0.188   1.532 -0.1125 -0.2154  0.0322
 6065TIP3   OH239829   0.430   1.090   1.409  0.4294 -0.5347 -0.9915
 6065TIP3    H139830   0.518   1.058   1.430  0.4137  0.7723  1.5733
 6065TIP3    H239831   0.372   1.025   1.448  0.3851  0.6632  1.1501
 6066TIP3   OH239832   0.170   0.881   2.016 -0.0563  0.3080 -0.5879
 6066TIP3    H139833   0.100   0.850   2.073  0.5706  0.9181  0.5655
 6066TIP3    H239834   0.247   0.886   2.073  0.1686  2.7136 -0.9873
 6067TIP3   OH239835   4.501   0.144   1.061 -0.0720  0.6267 -0.2586
 6067TIP3    H139836   4.555   0.066   1.056 -1.2940 -0.2593 -0.2391
 6067TIP3    H239837   4.545   0.200   1.125 -0.3568 -1.0549  1.5035
 6068TIP3   OH239838   2.234   1.846   7.691  0.3125  0.0659  0.2630
 6068TIP3    H139839   2.174   1.822   7.763  2.8230 -0.0948  2.4454
 6068TIP3    H239840   2.255   1.762   7.649  0.7003 -0.1784  0.9282
 6069TIP3   OH239841   0.446   3.556   1.959  0.1894  0.0352 -0.1213
 6069TIP3    H139842   0.490   3.579   1.877 -1.8833  2.1415 -0.7801
 6069TIP3    H239843   0.399   3.475   1.939  0.1113  0.2569 -0.8962
 6070TIP3   OH239844   5.965   5.759   0.365 -0.6293 -0.2548 -0.2807
 6070TIP3    H139845   6.029   5.829   0.376 -1.4868  0.1988  2.9346
 6070TIP3    H239846   6.017   5.679   0.362  0.2138  0.2621  0.2091
 6071TIP3   OH239847   5.931   2.028   0.495 -0.1325  0.4371  1.1501
 6071TIP3    H139848   6.004   2.091   0.493 -0.8145  1.2719  1.9054
 6071TIP3    H239849   5.872   2.062   0.561 -0.8089 -0.7019  1.1514
 6072TIP3   OH239850   1.643   1.356   8.053 -0.1145  0.5398  0.6751
 6072TIP3    H139851   1.711   1.416   8.086  0.9765  0.1141 -0.6785
 6072TIP3    H239852   1.682   1.269   8.063  0.3164  0.3885 -1.6709
 6073TIP3   OH239853   6.700   1.867   0.098  0.1503  0.2015 -0.3527
 6073TIP3    H139854   6.746   1.852   0.181 -0.4496  1.4352  0.2303
 6073TIP3    H239855   6.751   1.936   0.055 -0.7187  1.0764 -0.0219
 6074TIP3   OH239856   1.660   2.012   2.021 -0.0852 -0.2999  0.7172
 6074TIP3    H139857   1.721   2.016   2.095  2.1254  0.0301 -1.0190
 6074TIP3    H239858   1.658   1.919   1.996 -1.2791 -0.5076  1.4840
 6075TIP3   OH239859   5.498   0.517   1.192 -0.4655 -0.6573 -1.2412
 6075TIP3    H139860   5.425   0.571   1.224  1.0800  0.6604  0.2674
 6075TIP3    H239861   5.460   0.430   1.182 -2.2285 -0.0449 -0.4141
 6076TIP3   OH239862   5.717   6.708   7.767 -0.1774 -0.2419 -0.3179
 6076TIP3    H139863   5.807   6.735   7.779 -0.0487 -0.7224 -0.1746
 6076TIP3    H239864   5.715   6.616   7.794 -0.5758 -0.4074 -0.8781
 6077TIP3   OH239865   6.125   0.686   8.596 -0.4184  0.0817 -0.5046
 6077TIP3    H139866   6.132   0.652   8.506 -0.9737  1.4835 -1.0982
 6077TIP3    H239867   6.033   0.674   8.619 -0.7243  1.4716 -0.8779
 6078TIP3   OH239868   6.560   6.664   1.343  0.0829 -0.2104 -0.2019
 6078TIP3    H139869   6.503   6.619   1.280 -1.2982  1.4648 -0.2240
 6078TIP3    H239870   6.640   6.611   1.345 -0.9069 -1.8379 -1.2697
 6079TIP3   OH239871   5.744   1.131   8.516  0.2820  0.0949  0.5068
 6079TIP3    H139872   5.785   1.204   8.563  0.4700  0.2702  0.0761
 6079TIP3    H239873   5.736   1.062   8.582  3.0556 -0.6557  0.1997
 6080TIP3   OH239874   6.360   3.955   0.092  0.2004  0.3501  0.2766
 6080TIP3    H139875   6.357   3.988   0.182  0.0025  0.2655  0.3020
 6080TIP3    H239876   6.271   3.925   0.075  0.8256 -2.0725  0.9675
 6081TIP3   OH239877   3.574   6.813   7.007  0.0804  0.3806 -0.2724
 6081TIP3    H139878   3.610   6.726   6.993 -0.1069 -0.1184  1.9770
 6081TIP3    H239879   3.566   6.821   7.102  0.1065  2.8589 -0.4056
 6082TIP3   OH239880   0.363   2.513   7.045 -0.3975 -0.5019  0.1467
 6082TIP3    H139881   0.282   2.564   7.044 -0.7846 -1.1118 -0.1334
 6082TIP3    H239882   0.362   2.463   6.963 -1.2072 -2.7418  1.4159
 6083TIP3   OH239883   1.588   3.013   8.812 -0.3911  0.2470 -0.2126
 6083TIP3    H139884   1.622   3.067   8.883 -0.1044  0.3608 -0.4371
 6083TIP3    H239885   1.513   3.062   8.778 -0.4585  0.2471 -0.0684
 6084TIP3   OH239886   6.536   6.701   8.068  0.0014 -0.1005  0.0958
 6084TIP3    H139887   6.520   6.743   7.983  1.7048 -0.0337 -0.2343
 6084TIP3    H239888   6.615   6.744   8.102 -0.0074 -0.9035  1.1894
 6085TIP3   OH239889   4.702   2.219   0.170  0.4934  0.0415  0.0764
 6085TIP3    H139890   4.618   2.236   0.214  0.6966  1.9373 -0.1820
 6085TIP3    H239891   4.679   2.162   0.097 -0.4186 -0.2384  0.5558
 6086TIP3   OH239892   2.327   6.211   8.873  0.0177  0.3249  0.2557
 6086TIP3    H139893   2.294   6.176   8.956 -0.4968  0.3447  0.0603
 6086TIP3    H239894   2.367   6.136   8.830 -0.5819  0.1000  0.0884
 6087TIP3   OH239895   3.722   4.518   7.727  0.1315  0.8728 -0.0239
 6087TIP3    H139896   3.679   4.590   7.774 -0.2492  0.2472  0.5998
 6087TIP3    H239897   3.724   4.547   7.636  0.1749  1.7661  0.2490
 6088TIP3   OH239898   3.524   5.761   7.488 -0.5540  0.1881  0.2215
 6088TIP3    H139899   3.480   5.786   7.407 -1.0345  1.4255  0.8384
 6088TIP3    H239900   3.573   5.682   7.465 -1.9429 -0.4119 -0.8560
 6089TIP3   OH239901   6.011   2.419   2.360 -0.4869 -0.3134  0.4763
 6089TIP3    H139902   6.067   2.417   2.282 -1.6237 -1.4948 -0.3570
 6089TIP3    H239903   6.020   2.331   2.398 -1.8475 -0.5758  0.2507
 6090TIP3   OH239904   3.238   4.491   8.385  0.0885  0.1008 -0.2962
 6090TIP3    H139905   3.303   4.508   8.317  0.9422  2.7091  1.0511
 6090TIP3    H239906   3.287   4.447   8.455 -0.3786 -0.8605 -0.5447
 6091TIP3   OH239907   3.049   2.806   2.115 -0.4418 -0.4088 -0.6771
 6091TIP3    H139908   3.095   2.831   2.195  0.2544  1.1436 -1.5123
 6091TIP3    H239909   3.056   2.710   2.112  3.1655 -0.2782 -0.9317
 6092TIP3   OH239910   6.610   1.893   1.073 -0.3204 -0.2399  0.0229
 6092TIP3    H139911   6.570   1.844   1.145  0.2900 -0.5230  0.1769
 6092TIP3    H239912   6.561   1.975   1.069 -1.5362 -0.9472 -0.4022
 6093TIP3   OH239913   1.461   5.036   6.348 -0.1765 -0.6602  0.6673
 6093TIP3    H139914   1.428   5.005   6.264  0.9028 -0.0270 -0.0207
 6093TIP3    H239915   1.520   4.967   6.378  2.6553  0.7961 -1.1273
 6094TIP3   OH239916   3.559   3.231   7.131  0.1846  0.3164  0.6402
 6094TIP3    H139917   3.504   3.269   7.200 -1.2222 -1.3684  0.5284
 6094TIP3    H239918   3.515   3.256   7.049  0.2048 -0.0962  0.5001
 6095TIP3   OH239919   6.016   2.547   7.969 -0.1643  0.3973  0.3128
 6095TIP3    H139920   6.103   2.570   8.000 -0.2835  0.9021  0.2776
 6095TIP3    H239921   6.021   2.556   7.874  0.8446 -3.2683 -0.1235
 6096TIP3   OH239922   3.264   2.449   0.320 -0.1681 -0.1104  0.3977
 6096TIP3    H139923   3.254   2.360   0.286 -1.5501 -0.1663  0.8932
 6096TIP3    H239924   3.358   2.465   0.318 -0.0592 -0.6836 -1.9845
 6097TIP3   OH239925   5.952   5.270   0.709 -0.3200 -0.5018  0.1821
 6097TIP3    H139926   6.029   5.222   0.741  0.7944  1.2493  0.2905
 6097TIP3    H239927   5.974   5.293   0.619 -1.4261 -1.3213 -0.3234
 6098TIP3   OH239928   5.550   1.386   8.678  0.6766  0.0107  0.4853
 6098TIP3    H139929   5.503   1.415   8.756  0.7078 -0.5561  0.7146
 6098TIP3    H239930   5.513   1.440   8.608 -0.9302 -0.9855  0.5105
 6099TIP3   OH239931   6.210   1.522   1.082 -0.1229 -0.1910  0.5755
 6099TIP3    H139932   6.123   1.485   1.074  0.9221 -2.5528 -1.0764
 6099TIP3    H239933   6.199   1.615   1.062 -1.9824 -0.8266 -1.8641
 6100TIP3   OH239934   3.102   2.232   7.367  0.0096 -0.4142 -0.2292
 6100TIP3    H139935   3.174   2.231   7.304  0.0151  1.0911 -0.2765
 6100TIP3    H239936   3.137   2.186   7.444  0.4973 -0.9923 -0.7837
 6101TIP3   OH239937   4.389   0.515   0.818  0.2630 -0.2220 -0.6611
 6101TIP3    H139938   4.328   0.461   0.767  0.1985 -1.1035  0.3161
 6101TIP3    H239939   4.370   0.493   0.909  0.7407  0.9369 -0.2605
 6102TIP3   OH239940   2.196   3.551   0.570  0.0638 -0.2710  0.3910
 6102TIP3    H139941   2.218   3.468   0.529  0.9435 -0.3316  0.9566
 6102TIP3    H239942   2.107   3.539   0.603 -0.5296 -0.3361 -1.1548
 6103TIP3   OH239943   3.280   2.501   8.257 -0.2857 -0.0176  0.3608
 6103TIP3    H139944   3.213   2.469   8.197  0.5755 -0.0586 -0.5939
 6103TIP3    H239945   3.361   2.460   8.227  0.4314  1.2103  0.5709
 6104TIP3   OH239946   3.586   5.940   0.499  0.0382  0.6762  0.3612
 6104TIP3    H139947   3.523   5.903   0.560 -0.8054 -1.3347 -1.5960
 6104TIP3    H239948   3.647   5.868   0.481 -0.3023  0.8912 -1.8625
 6105TIP3   OH239949   3.302   0.326   8.897  0.5653  0.4533  0.5787
 6105TIP3    H139950   3.336   0.280   8.820 -1.3197 -0.9796  0.5554
 6105TIP3    H239951   3.319   0.267   8.970 -1.4684 -0.1492  0.6138
 6106TIP3   OH239952   1.720   1.737   7.487 -0.0491 -0.6101 -0.0169
 6106TIP3    H139953   1.717   1.828   7.517  2.5876 -0.7110  0.8381
 6106TIP3    H239954   1.759   1.743   7.399  0.0817 -0.9000  0.0205
 6107TIP3   OH239955   0.916   0.861   7.462 -0.3111  0.1833  0.1006
 6107TIP3    H139956   0.830   0.834   7.493 -1.7064  2.5528 -1.3500
 6107TIP3    H239957   0.940   0.796   7.396 -1.1133 -0.4008  0.3737
 6108TIP3   OH239958   3.540   2.990   1.689 -0.3466  0.4483 -0.4533
 6108TIP3    H139959   3.559   3.012   1.780 -2.2704 -2.1736  0.7195
 6108TIP3    H239960   3.612   2.933   1.663  0.1242  1.0763 -0.5573
 6109TIP3   OH239961   1.804   1.759   1.009 -0.1775 -0.1973 -0.0145
 6109TIP3    H139962   1.749   1.793   1.079 -0.9791  0.9305 -1.1567
 6109TIP3    H239963   1.792   1.820   0.936  0.5426 -1.3901 -1.1840
 6110TIP3   OH239964   6.628   5.283   0.963 -0.0074 -0.0453 -0.4429
 6110TIP3    H139965   6.715   5.282   0.925  1.2179  0.4060  2.1171
 6110TIP3    H239966   6.624   5.365   1.013 -2.5145  0.7217 -1.7103
 6111TIP3   OH239967   5.683   4.200   7.181  0.4013 -0.6056 -0.6375
 6111TIP3    H139968   5.704   4.177   7.271  0.5681  1.1384 -0.1900
 6111TIP3    H239969   5.614   4.267   7.188  0.8676  0.0287 -1.7643
 6112TIP3   OH239970   4.765   4.912   7.677  0.4554 -0.6788 -0.1005
 6112TIP3    H139971   4.841   4.875   7.632  0.4930 -1.2237  0.3925
 6112TIP3    H239972   4.768   5.005   7.657  0.8114 -0.8193 -0.7240
 6113TIP3   OH239973   2.327   1.498   7.197 -0.4839  0.0669  0.0887
 6113TIP3    H139974   2.306   1.408   7.171  0.3678 -0.2737  0.5705
 6113TIP3    H239975   2.292   1.552   7.125 -0.5356 -0.6770 -0.4571
 6114TIP3   OH239976   4.979   6.308   0.667  0.0766  0.1569 -0.1369
 6114TIP3    H139977   5.035   6.252   0.720 -1.1099 -0.2559  0.7147
 6114TIP3    H239978   4.993   6.277   0.577  1.3682  0.2290  0.0125
 6115TIP3   OH239979   4.621   0.614   8.818  0.5433 -0.1665 -0.1738
 6115TIP3    H139980   4.706   0.609   8.862  1.5715  0.4629 -1.9687
 6115TIP3    H239981   4.588   0.524   8.820  0.1213 -0.0213  2.5683
 6116TIP3   OH239982   6.554   1.315   8.535  0.0667  0.5582 -0.0335
 6116TIP3    H139983   6.645   1.339   8.552  0.4944 -1.2504  0.4256
 6116TIP3    H239984   6.516   1.302   8.621 -0.9753  2.2988 -0.1676
 6117TIP3   OH239985   4.109   0.303   1.135 -0.6939 -0.0303  0.4431
 6117TIP3    H139986   4.054   0.310   1.057  0.1389  0.0581 -0.1611
 6117TIP3    H239987   4.116   0.209   1.151  0.1893 -0.1273 -0.3933
 6118TIP3   OH239988   5.803   6.805   6.992  0.5614 -0.8362  0.2042
 6118TIP3    H139989   5.842   6.729   6.949  1.4572 -0.4181  0.2393
 6118TIP3    H239990   5.726   6.771   7.037  1.1131 -1.7723  0.4622
 6119TIP3   OH239991   3.902   1.327   0.246 -0.0102 -0.2624 -0.4939
 6119TIP3    H139992   3.896   1.390   0.317 -0.4717  0.2097 -0.9440
 6119TIP3    H239993   3.960   1.259   0.279  1.0439  0.7330 -0.2583
 6120TIP3   OH239994   1.614   5.283   1.485 -0.4381  0.0241  0.3141
 6120TIP3    H139995   1.613   5.195   1.450 -2.5772  0.5335 -1.0653
 6120TIP3    H239996   1.663   5.335   1.421 -0.8549  0.2070  0.1443
 6121TIP3   OH239997   4.620   1.712   7.266  0.0465 -0.0425  0.1158
 6121TIP3    H139998   4.552   1.697   7.331  0.9733 -0.0297  1.1073
 6121TIP3    H239999   4.669   1.630   7.262  0.5974  0.2760  0.1665
 6122TIP3   OH240000   5.810   3.974   1.118 -0.2104  0.4489  0.1860
 6122TIP3    H140001   5.852   3.891   1.097 -0.4606  0.4292 -0.2699
 6122TIP3    H240002   5.716   3.956   1.109 -0.2420  1.0147 -0.8849
 6123TIP3   OH240003   4.225   5.190   7.899 -0.2879 -0.3713  0.3365
 6123TIP3    H140004   4.222   5.135   7.821 -0.4358 -1.6808  1.2342
 6123TIP3    H240005   4.310   5.234   7.894  0.7918 -2.2892  0.6171
 6124TIP3   OH240006   2.872   4.601   7.352  0.1059 -0.1376  0.3581
 6124TIP3    H140007   2.881   4.532   7.418 -0.6631 -0.3480  0.2586
 6124TIP3    H240008   2.779   4.625   7.355 -0.7140 -2.2466 -2.6926
 6125TIP3   OH240009   4.228   2.266   8.159  0.0718  0.0964 -0.6636
 6125TIP3    H140010   4.303   2.221   8.120 -0.1679  0.8136 -2.0159
 6125TIP3    H240011   4.170   2.196   8.188  0.6515 -0.4613 -0.8161
 6126TIP3   OH240012   4.038   2.104   8.828 -0.7362  0.1270 -0.2708
 6126TIP3    H140013   4.014   2.044   8.757 -1.0089 -0.6743  0.4946
 6126TIP3    H240014   3.957   2.152   8.847 -1.1093 -0.8310  0.6203
 6127TIP3   OH240015   0.106   0.490   7.982  0.2221 -0.1315 -0.0336
 6127TIP3    H140016   0.076   0.564   7.929  0.2182  0.4521  0.7737
 6127TIP3    H240017   0.033   0.470   8.040  0.9165  0.4689  1.0606
 6128TIP3   OH240018   4.323   0.020   1.920  0.3275  0.4353  0.0270
 6128TIP3    H140019   4.391   0.031   1.986 -0.2094  3.2621  0.2429
 6128TIP3    H240020   4.246  -0.009   1.969  0.5317  0.2856  0.2608
 6129TIP3   OH240021   1.073   2.814   2.344 -0.2398  0.0904  0.0454
 6129TIP3    H140022   1.047   2.864   2.421  1.2285  0.0123  0.6275
 6129TIP3    H240023   0.997   2.818   2.286 -1.0031  1.0069  1.0596
 6130TIP3   OH240024   2.624   1.969   8.828 -0.0048 -0.5412  0.0634
 6130TIP3    H140025   2.629   1.879   8.796 -2.0707 -0.3924 -0.8704
 6130TIP3    H240026   2.530   1.987   8.833  0.3458  1.1800  1.3849
 6131TIP3   OH240027   4.904   5.054   6.859 -0.2433 -0.9361  0.3198
 6131TIP3    H140028   4.910   5.090   6.948 -1.4355  0.2466 -0.0590
 6131TIP3    H240029   4.819   5.081   6.827  1.2429  1.1987 -2.2574
 6132TIP3   OH240030   0.708   6.622   8.212  0.1018 -0.5935  0.0936
 6132TIP3    H140031   0.795   6.642   8.179 -0.1806  0.0251 -0.2928
 6132TIP3    H240032   0.683   6.699   8.264 -0.0321 -0.9585  0.5815
 6133TIP3   OH240033   1.220   1.837   7.823 -0.0247  0.0971  0.7741
 6133TIP3    H140034   1.294   1.895   7.842  0.7382 -0.8595  0.7704
 6133TIP3    H240035   1.183   1.817   7.909 -0.3741  0.6762  0.7670
 6134TIP3   OH240036   2.206   3.313   7.166 -0.5995 -0.2056  0.6054
 6134TIP3    H140037   2.271   3.383   7.156  0.9991 -1.5102  1.5124
 6134TIP3    H240038   2.202   3.296   7.260 -2.6966  0.1812  0.6547
 6135TIP3   OH240039   1.018   6.659   1.684  0.1420 -0.3940  0.4559
 6135TIP3    H140040   0.987   6.749   1.672 -2.6809 -1.2987  0.2697
 6135TIP3    H240041   1.040   6.654   1.777 -1.9316 -0.0707  1.0185
 6136TIP3   OH240042   1.020   5.318   2.736 -0.5338  0.2529  0.1281
 6136TIP3    H140043   0.925   5.333   2.733 -0.2400  2.1056 -0.6860
 6136TIP3    H240044   1.055   5.366   2.661  1.0847 -0.3001  0.4838
 6137TIP3   OH240045   3.711   2.254   2.665 -0.2812 -0.0654  0.2322
 6137TIP3    H140046   3.681   2.339   2.698 -1.9447 -0.5021 -0.0500
 6137TIP3    H240047   3.714   2.265   2.569  1.4136  0.2278  0.2788
 6138TIP3   OH240048   6.404   6.510   8.587  0.0958  0.6977 -0.0763
 6138TIP3    H140049   6.454   6.552   8.518 -2.7954  1.1888 -2.0492
 6138TIP3    H240050   6.455   6.432   8.611  1.4302  0.7808 -2.4222
 6139TIP3   OH240051   1.018   5.248   0.384  0.3689  0.0556 -0.4169
 6139TIP3    H140052   0.959   5.216   0.317  0.9626 -2.4845  0.1600
 6139TIP3    H240053   0.977   5.224   0.467  0.7175  1.1192  0.0922
 6140TIP3   OH240054   0.499   6.805   2.477 -0.6756 -0.0442  0.1505
 6140TIP3    H140055   0.467   6.742   2.412 -0.1064 -0.4871  0.2928
 6140TIP3    H240056   0.530   6.879   2.425  0.0823 -0.5337 -0.1101
 6141TIP3   OH240057   0.565   5.844   7.889  0.5657  0.4728 -0.4669
 6141TIP3    H140058   0.582   5.871   7.979 -1.0803  1.6637 -0.4697
 6141TIP3    H240059   0.652   5.825   7.853  1.3197  0.7321  1.1232
 6142TIP3   OH240060   2.602   5.770   1.135 -0.0628  0.4744 -0.1100
 6142TIP3    H140061   2.613   5.720   1.054 -2.1473  1.5593 -1.1661
 6142TIP3    H240062   2.511   5.754   1.160  0.0632  1.4938  1.0887
 6143TIP3   OH240063   6.628   1.741   1.669  0.7568 -0.6125  0.3719
 6143TIP3    H140064   6.672   1.720   1.587  1.1326  1.1115  0.1127
 6143TIP3    H240065   6.691   1.793   1.718 -0.3176  0.4004  0.7391
 6144TIP3   OH240066   0.323   5.454   1.429  0.0986  0.0590  0.0606
 6144TIP3    H140067   0.273   5.483   1.353 -0.5368  0.3608  0.5922
 6144TIP3    H240068   0.258   5.423   1.491  0.4963  1.1300  1.0523
 6145TIP3   OH240069   4.085   6.322   0.546 -0.2875  0.1903 -0.0041
 6145TIP3    H140070   4.146   6.308   0.474 -0.2041 -1.1116  0.3068
 6145TIP3    H240071   4.050   6.410   0.530  0.6856  0.4412 -0.9073
 6146TIP3   OH240072   5.503   2.099   2.545 -0.1934  0.3166  0.6810
 6146TIP3    H140073   5.564   2.043   2.592 -0.5468  1.0930  2.1376
 6146TIP3    H240074   5.491   2.056   2.461  0.6741 -0.9927  1.1888
 6147TIP3   OH240075   3.134   4.392   7.285 -0.1171  0.9749  0.1368
 6147TIP3    H140076   3.123   4.431   7.198  1.7354  2.4873  0.5049
 6147TIP3    H240077   3.057   4.421   7.333  0.6982  3.4846  0.0832
 6148TIP3   OH240078   2.541   6.689   1.269 -0.3096  0.1076 -0.4632
 6148TIP3    H140079   2.519   6.664   1.179 -1.6844 -1.3222  0.2279
 6148TIP3    H240080   2.629   6.655   1.282 -0.2975 -0.1291 -1.0972
 6149TIP3   OH240081   3.926   0.239   5.966 -0.3350  0.0480  0.1706
 6149TIP3    H140082   3.972   0.163   6.001 -1.3210 -0.7348 -0.1915
 6149TIP3    H240083   3.962   0.313   6.014  0.6145 -0.6523  0.5595
 6150TIP3   OH240084   3.798   4.343   0.530 -0.6576 -0.0627  0.2316
 6150TIP3    H140085   3.794   4.400   0.607 -0.1237 -0.3293  0.4581
 6150TIP3    H240086   3.831   4.399   0.460  0.4966 -0.2494  0.6081
 6151TIP3   OH240087   0.371   4.804   0.267 -0.5706 -0.8190  0.0222
 6151TIP3    H140088   0.460   4.818   0.234 -0.6973 -2.5194 -1.1824
 6151TIP3    H240089   0.332   4.892   0.270  1.2322 -0.0041  0.8970
 6152TIP3   OH240090   1.266   2.501   2.227  0.8113  0.4609 -0.3206
 6152TIP3    H140091   1.272   2.419   2.278 -0.6447  0.3448 -0.2999
 6152TIP3    H240092   1.353   2.540   2.235  1.1923 -0.5204  0.6398
 6153TIP3   OH240093   6.104   3.356   1.425 -0.2952 -0.7083 -0.3182
 6153TIP3    H140094   6.143   3.298   1.360 -0.9674 -1.1888 -0.2934
 6153TIP3    H240095   6.153   3.338   1.506  0.4957 -0.1556 -0.6576
 6154TIP3   OH240096   4.048   3.451   7.944  0.3347  0.2004 -0.3295
 6154TIP3    H140097   4.118   3.499   7.899 -0.4495  1.2238 -0.5019
 6154TIP3    H240098   4.055   3.362   7.911  0.7091  0.6027 -1.3849
 6155TIP3   OH240099   5.660   0.301   8.081  0.4722  0.0883 -0.5858
 6155TIP3    H140100   5.586   0.239   8.084 -0.2245  0.9201  1.4345
 6155TIP3    H240101   5.729   0.253   8.036 -0.8573 -1.2170 -1.3491
 6156TIP3   OH240102   0.431   2.731   7.785  0.1494  0.4455 -0.3043
 6156TIP3    H140103   0.377   2.720   7.707 -0.6142 -4.0577  0.5448
 6156TIP3    H240104   0.504   2.670   7.773  2.0679  2.3144  1.0185
 6157TIP3   OH240105   1.276   0.199   0.263 -0.2637  0.3106  0.1662
 6157TIP3    H140106   1.279   0.283   0.310  0.6800  1.0272 -1.1098
 6157TIP3    H240107   1.367   0.174   0.254 -0.5048 -0.4420 -0.2079
 6158TIP3   OH240108   6.729   4.218   1.697  0.3934 -0.3995  0.1385
 6158TIP3    H140109   6.660   4.205   1.632 -0.1901  0.7705  0.4778
 6158TIP3    H240110   6.683   4.219   1.781  0.8065  0.3590  0.3741
 6159TIP3   OH240111   3.548   2.498   1.576 -0.1711  0.5806  0.3458
 6159TIP3    H140112   3.486   2.561   1.539  0.6006  0.4352 -1.3116
 6159TIP3    H240113   3.497   2.418   1.589 -0.5668  0.7526 -0.1015
 6160TIP3   OH240114   2.336   4.504   2.445 -0.4136 -0.4345  0.3876
 6160TIP3    H140115   2.383   4.426   2.473  0.5386 -0.0912 -0.1791
 6160TIP3    H240116   2.271   4.472   2.382  0.4296 -0.7135 -0.3636
 6161TIP3   OH240117   2.966   4.590   1.260  0.5968  0.7275  0.6542
 6161TIP3    H140118   3.051   4.598   1.218 -0.1818  2.9533 -0.6479
 6161TIP3    H240119   2.903   4.611   1.191 -1.0963 -1.5719  1.3770
 6162TIP3   OH240120   4.433   3.203   8.168 -0.0743  0.1202 -0.2071
 6162TIP3    H140121   4.430   3.137   8.099  0.9879 -0.0165 -0.1446
 6162TIP3    H240122   4.402   3.157   8.246  0.6256 -0.3003 -0.1709
 6163TIP3   OH240123   1.539   5.914   7.940 -0.4328  0.4319  0.3642
 6163TIP3    H140124   1.610   5.896   8.002 -1.7198 -0.2286  1.7327
 6163TIP3    H240125   1.547   5.845   7.874 -1.0522 -0.9848  1.6974
 6164TIP3   OH240126   4.249   1.130   0.808  0.9061  0.1853 -0.5575
 6164TIP3    H140127   4.209   1.106   0.891  1.6830  1.6608  0.2815
 6164TIP3    H240128   4.185   1.102   0.742  0.7715 -2.0318  0.4161
 6165TIP3   OH240129   4.481   5.272   1.230 -0.1390  0.0126 -0.1115
 6165TIP3    H140130   4.396   5.236   1.257  0.3855 -1.1702  0.0004
 6165TIP3    H240131   4.491   5.245   1.139  0.4270 -0.4339  0.0852
 6166TIP3   OH240132   5.238   2.112   1.620 -0.1995  0.7581 -0.0542
 6166TIP3    H140133   5.301   2.184   1.621 -1.3326  1.8018  0.5409
 6166TIP3    H240134   5.169   2.141   1.681 -0.7160 -0.8160  0.1439
 6167TIP3   OH240135   2.834   0.513   6.663  0.1971  0.4151 -0.1098
 6167TIP3    H140136   2.789   0.444   6.614  0.3211 -0.3482  0.8291
 6167TIP3    H240137   2.868   0.469   6.741 -0.9133  1.7927  1.2207
 6168TIP3   OH240138   0.826   0.687   0.936  0.5443 -0.3657  0.2077
 6168TIP3    H140139   0.848   0.762   0.991  0.0100 -1.0708  1.4194
 6168TIP3    H240140   0.813   0.725   0.849 -1.0813  1.1770  1.0481
 6169TIP3   OH240141   4.723   5.366   8.434 -0.7232 -0.2158  0.0827
 6169TIP3    H140142   4.716   5.413   8.351 -1.5405 -1.4409 -0.5728
 6169TIP3    H240143   4.798   5.406   8.478  0.5743 -0.4224 -1.8259
 6170TIP3   OH240144   1.450   0.274   1.402  0.5317  0.1511 -1.0699
 6170TIP3    H140145   1.523   0.294   1.344  0.3473 -0.0080 -1.3634
 6170TIP3    H240146   1.488   0.272   1.490  1.0322 -0.7151 -1.2965
 6171TIP3   OH240147   1.844   4.789   1.676 -0.5985  0.5580  0.5563
 6171TIP3    H140148   1.781   4.717   1.684  0.5867 -0.7682 -1.1627
 6171TIP3    H240149   1.922   4.757   1.721 -0.7338  1.6925  1.6380
 6172TIP3   OH240150   0.524   4.149   0.714 -0.4521  0.2943  0.2419
 6172TIP3    H140151   0.536   4.056   0.733 -0.2623 -0.0308 -1.3508
 6172TIP3    H240152   0.503   4.188   0.799 -0.2884 -1.1525  0.9797
 6173TIP3   OH240153   5.257   3.810   8.600  0.0200 -0.8018 -0.3221
 6173TIP3    H140154   5.221   3.849   8.679  1.2782  2.5699 -1.2091
 6173TIP3    H240155   5.211   3.854   8.528  0.3981 -2.2085 -1.4730
 6174TIP3   OH240156   1.529   5.109   7.591 -0.6428  0.0251  0.1975
 6174TIP3    H140157   1.538   5.180   7.654  3.0111 -0.3922  0.3708
 6174TIP3    H240158   1.546   5.029   7.641  0.2449 -0.4944 -0.8810
 6175TIP3   OH240159   2.618   3.580   2.188  0.2175  0.0631  0.0749
 6175TIP3    H140160   2.673   3.592   2.111 -0.7147 -2.4892 -1.0818
 6175TIP3    H240161   2.659   3.507   2.236 -0.5738 -0.0030  0.6781
 6176TIP3   OH240162   3.760   2.276   1.089  0.7245  0.3188 -0.4392
 6176TIP3    H140163   3.664   2.267   1.087  0.7563 -0.2023 -0.0038
 6176TIP3    H240164   3.775   2.363   1.124  0.3999 -0.2293  1.2017
 6177TIP3   OH240165   5.078   5.892   6.804  0.3917 -0.5622 -0.7233
 6177TIP3    H140166   5.054   5.852   6.887  1.3804  0.1343 -0.0821
 6177TIP3    H240167   5.122   5.822   6.755 -0.5814 -1.0968 -0.8522
 6178TIP3   OH240168   3.210   4.249   8.175 -0.5987 -0.1942  0.2418
 6178TIP3    H140169   3.204   4.255   8.270  0.0436  0.4578  0.2564
 6178TIP3    H240170   3.176   4.333   8.144  0.1997  0.0396 -0.0389
 6179TIP3   OH240171   0.841   6.820   7.083  0.4267  0.3919  0.2374
 6179TIP3    H140172   0.795   6.757   7.026  0.1594  2.0502 -1.4793
 6179TIP3    H240173   0.776   6.845   7.148  0.2279 -0.3677  0.3395
 6180TIP3   OH240174   6.727   3.102   7.811 -0.1300 -0.2131  0.3471
 6180TIP3    H140175   6.807   3.089   7.862  0.2759 -0.5641 -0.3688
 6180TIP3    H240176   6.675   3.162   7.864  0.1765 -0.7574  1.2868
 6181TIP3   OH240177   6.432   4.362   7.511  0.3400  0.0138  0.3632
 6181TIP3    H140178   6.356   4.419   7.509  0.3000 -0.0235 -1.9246
 6181TIP3    H240179   6.477   4.384   7.592 -2.8996 -1.1020  2.6489
 6182TIP3   OH240180   5.372   2.204   0.019 -0.6728 -0.4293  0.2127
 6182TIP3    H140181   5.460   2.169   0.003  0.7472  3.0715 -0.6292
 6182TIP3    H240182   5.377   2.245   0.105 -1.4272 -0.0293  0.0789
 6183TIP3   OH240183   3.191   4.104   0.937  0.2987  0.4163 -0.2724
 6183TIP3    H140184   3.109   4.075   0.897 -0.0987 -0.3217  1.0086
 6183TIP3    H240185   3.188   4.199   0.931 -1.9268  0.6044  2.0065
 6184TIP3   OH240186   2.789   3.581   1.974  0.0838 -0.7784 -0.5956
 6184TIP3    H140187   2.740   3.626   1.905  0.0888 -1.1333 -0.8298
 6184TIP3    H240188   2.845   3.519   1.928  1.4213  0.2446 -0.3938
 6185TIP3   OH240189   1.947   2.906   8.880 -0.1247 -0.0214 -0.2188
 6185TIP3    H140190   1.912   2.988   8.845  0.0906 -0.0946 -0.6115
 6185TIP3    H240191   1.916   2.839   8.819  0.6731 -0.0884 -0.5587
 6186TIP3   OH240192   4.412   4.933   0.284 -0.1360 -0.0926 -0.3507
 6186TIP3    H140193   4.320   4.926   0.310  0.0739 -1.2015  0.1636
 6186TIP3    H240194   4.457   4.868   0.339  1.0519  0.8874 -0.1287
 6187TIP3   OH240195   4.977   3.612   2.069  0.2621 -0.2055 -0.0247
 6187TIP3    H140196   4.962   3.589   2.161 -2.1409  1.4124  0.0619
 6187TIP3    H240197   5.012   3.701   2.072  2.1371 -0.8608 -0.6701
 6188TIP3   OH240198   0.276   5.278   7.842 -0.2012  0.0517 -0.3017
 6188TIP3    H140199   0.321   5.302   7.761 -1.0908  1.6394 -0.3646
 6188TIP3    H240200   0.293   5.184   7.851  1.5846  0.2257 -1.2512
 6189TIP3   OH240201   2.799   5.291   0.753  0.0181 -0.1878  0.1885
 6189TIP3    H140202   2.841   5.371   0.722  0.5023 -0.2468  0.6846
 6189TIP3    H240203   2.849   5.266   0.831  1.0990 -2.0380 -1.0235
 6190TIP3   OH240204   3.823   1.234   7.426  0.1011  0.2992 -0.0219
 6190TIP3    H140205   3.845   1.183   7.503  0.0213  0.1276 -0.1128
 6190TIP3    H240206   3.731   1.256   7.437 -0.2758 -0.8544 -0.7079
 6191TIP3   OH240207   0.760   3.192   1.594  0.3415  0.5237  0.7732
 6191TIP3    H140208   0.712   3.156   1.520 -0.0296 -0.6063  1.5345
 6191TIP3    H240209   0.841   3.140   1.598  1.1690  1.7184  0.1371
 6192TIP3   OH240210   5.880   6.676   1.782 -0.0963 -0.0415  0.1513
 6192TIP3    H140211   5.906   6.614   1.850  1.2731  0.9279  0.5666
 6192TIP3    H240212   5.854   6.755   1.831 -0.1184  0.3029 -0.4109
 6193TIP3   OH240213   1.213   2.609   7.373 -0.4099 -0.1887 -0.1766
 6193TIP3    H140214   1.267   2.676   7.333  1.1339 -0.6016  1.1343
 6193TIP3    H240215   1.144   2.657   7.418 -0.2669  0.4150 -0.5903
 6194TIP3   OH240216   3.231   2.641   7.941  0.1315 -0.0080 -0.0418
 6194TIP3    H140217   3.211   2.553   7.971  0.4855 -0.0719  0.0095
 6194TIP3    H240218   3.167   2.658   7.872  0.8554 -0.7843 -0.9205
 6195TIP3   OH240219   6.345   1.653   7.676 -0.0286  0.0617  0.3422
 6195TIP3    H140220   6.307   1.741   7.674 -0.6830 -0.2219 -0.1067
 6195TIP3    H240221   6.440   1.667   7.672 -0.1237  0.7528  0.4931
 6196TIP3   OH240222   5.089   2.605   1.964  0.3293 -0.0888  0.5750
 6196TIP3    H140223   5.049   2.616   2.051 -2.4304 -0.0739 -0.5867
 6196TIP3    H240224   5.064   2.517   1.937 -2.6266  1.3090 -1.8480
 6197TIP3   OH240225   2.884   3.306   1.435  0.2649 -0.3074 -0.1575
 6197TIP3    H140226   2.859   3.245   1.505 -1.2780 -0.9268 -1.1862
 6197TIP3    H240227   2.969   3.274   1.405  0.5244 -0.5743  0.8154
 6198TIP3   OH240228   3.439   3.286   7.607 -0.4337 -0.3919  0.4522
 6198TIP3    H140229   3.482   3.365   7.573 -1.8778  0.0706 -0.3853
 6198TIP3    H240230   3.397   3.247   7.531 -0.5297 -1.4682  1.0370
 6199TIP3   OH240231   1.236   2.669   1.306 -0.6714 -0.0263  0.0724
 6199TIP3    H140232   1.161   2.620   1.338 -0.0297 -0.7056  0.5818
 6199TIP3    H240233   1.312   2.613   1.326 -0.2185 -0.7572 -3.0167
 6200TIP3   OH240234   1.562   5.623   1.317 -0.0316  0.3815  0.5068
 6200TIP3    H140235   1.644   5.578   1.338  0.2006  0.4939 -0.1441
 6200TIP3    H240236   1.524   5.571   1.247  1.0091  2.0145 -1.3883
 6201TIP3   OH240237   5.445   6.270   6.340  0.1170 -0.1765 -0.3729
 6201TIP3    H140238   5.530   6.302   6.369 -0.1547 -0.9698  1.4360
 6201TIP3    H240239   5.464   6.208   6.270  1.0912 -0.9945  0.5998
 6202TIP3   OH240240   4.279   4.738   7.852  0.3698  0.3438 -0.1036
 6202TIP3    H140241   4.310   4.792   7.779 -3.5280  0.3989 -1.9668
 6202TIP3    H240242   4.269   4.799   7.925  1.1964  0.9831 -0.5130
 6203TIP3   OH240243   4.019   3.596   7.209  0.3947  0.1070 -0.3340
 6203TIP3    H140244   4.102   3.547   7.206  0.6428  0.4258  0.8478
 6203TIP3    H240245   3.960   3.539   7.259  0.3513  0.5267  0.0964
 6204TIP3   OH240246   0.807   3.301   0.206  0.5627  0.4090  0.6683
 6204TIP3    H140247   0.896   3.286   0.237 -0.0717 -1.0355  1.8878
 6204TIP3    H240248   0.758   3.323   0.285 -0.0410  1.9433 -0.0926
 6205TIP3   OH240249   4.026   4.080   7.421 -0.1437 -0.3008  1.1168
 6205TIP3    H140250   4.017   4.146   7.352 -0.2469  1.8265  3.0141
 6205TIP3    H240251   4.103   4.030   7.397  0.3019  0.9198 -0.1292
 6206TIP3   OH240252   2.156   0.394   8.538  0.1978  0.7503  0.1959
 6206TIP3    H140253   2.249   0.412   8.525  0.0855 -0.0126 -2.1703
 6206TIP3    H240254   2.152   0.301   8.559  0.0030  0.9400  1.0345
 6207TIP3   OH240255   2.201   0.575   0.751  0.1315 -0.0711 -0.2193
 6207TIP3    H140256   2.291   0.588   0.720 -0.4911  3.2703 -0.9836
 6207TIP3    H240257   2.158   0.527   0.680  0.9829 -0.6503 -0.3640
 6208TIP3   OH240258   1.809   4.422   0.177 -0.3214  0.2243 -0.0004
 6208TIP3    H140259   1.824   4.509   0.215 -0.8975  1.2607 -1.9636
 6208TIP3    H240260   1.739   4.385   0.230  1.2308  0.1058  2.0773
 6209TIP3   OH240261   3.581   4.131   8.666  0.0084  0.3733  0.1920
 6209TIP3    H140262   3.661   4.144   8.616 -0.2502 -0.4832 -0.4677
 6209TIP3    H240263   3.560   4.038   8.654 -1.8685  0.8737 -0.8286
 6210TIP3   OH240264   5.925   1.709   0.066  0.2950  0.4474 -0.2978
 6210TIP3    H140265   5.921   1.801   0.039  1.1872  0.4565 -0.4394
 6210TIP3    H240266   5.989   1.708   0.137 -0.0055 -0.0062 -0.0305
 6211TIP3   OH240267   1.549   2.181   0.195  0.3681  0.1312 -0.1037
 6211TIP3    H140268   1.626   2.124   0.190  0.5858  0.1803  1.8473
 6211TIP3    H240269   1.585   2.269   0.206  0.1770 -0.0313  2.8306
 6212TIP3   OH240270   4.814   6.623   6.788  0.1523  0.8348 -0.2684
 6212TIP3    H140271   4.754   6.680   6.835 -0.5304 -0.8548  1.0542
 6212TIP3    H240272   4.777   6.615   6.700 -0.0777  1.8985 -0.2712
 6213TIP3   OH240273   2.518   0.595   7.518 -0.0786  0.0046  0.2770
 6213TIP3    H140274   2.531   0.689   7.511  2.8340 -0.4391 -1.9771
 6213TIP3    H240275   2.433   0.579   7.477 -0.1483  1.5052 -0.2220
 6214TIP3   OH240276   4.644   0.333   8.786 -0.4643  0.2018  0.1757
 6214TIP3    H140277   4.738   0.322   8.777 -0.6232 -1.0980  0.0301
 6214TIP3    H240278   4.606   0.256   8.745 -1.6402  1.2857 -0.8717
 6215TIP3   OH240279   1.946   4.406   7.246 -0.7198  0.0878  0.8905
 6215TIP3    H140280   2.036   4.392   7.218 -0.7707 -0.7047  1.0947
 6215TIP3    H240281   1.893   4.387   7.169 -0.8032 -1.1476  1.2313
 6216TIP3   OH240282   1.590   3.733   8.015  0.0565 -0.0047  0.0087
 6216TIP3    H140283   1.557   3.784   7.941  0.2773  0.3575  0.1560
 6216TIP3    H240284   1.559   3.644   7.999  0.1351  0.0622 -0.5411
 6217TIP3   OH240285   6.126   1.437   8.312 -0.0766  0.1470 -0.2542
 6217TIP3    H140286   6.032   1.436   8.327 -0.2156 -2.0889 -0.8759
 6217TIP3    H240287   6.148   1.530   8.300 -2.3813  0.6270 -1.2310
 6218TIP3   OH240288   2.933   1.498   7.544  0.3027  0.3124 -0.0397
 6218TIP3    H140289   2.988   1.531   7.616 -0.3765 -2.6556  1.9976
 6218TIP3    H240290   2.937   1.403   7.553 -1.6402 -0.0892 -2.5967
 6219TIP3   OH240291   5.477   3.110   8.588 -0.4760 -0.4149  0.2451
 6219TIP3    H140292   5.461   3.025   8.629  0.5399 -0.5228  0.4442
 6219TIP3    H240293   5.564   3.103   8.550 -1.0865 -0.0739 -1.3392
 6220TIP3   OH240294   0.888   2.099   1.449 -0.0513 -0.1791  0.0587
 6220TIP3    H140295   0.902   2.039   1.376 -2.4487  0.5903 -1.1587
 6220TIP3    H240296   0.959   2.162   1.442  0.9126 -1.2755 -0.3440
 6221TIP3   OH240297   6.531   6.560   6.931 -0.4893 -0.2219  0.3666
 6221TIP3    H140298   6.616   6.594   6.903  0.0795 -2.0095 -0.2727
 6221TIP3    H240299   6.469   6.592   6.866 -0.3419  1.1291  0.8574
 6222TIP3   OH240300   2.677   4.913   7.780 -0.0845 -0.8511 -0.9235
 6222TIP3    H140301   2.696   5.005   7.760  0.1956 -0.8439 -0.6298
 6222TIP3    H240302   2.704   4.902   7.871 -2.7230 -0.4795  0.0139
 6223TIP3   OH240303   1.006   6.316   6.938  0.4289 -0.0951  0.5467
 6223TIP3    H140304   0.966   6.236   6.906 -1.4012  0.5313  1.1406
 6223TIP3    H240305   1.062   6.288   7.011  1.7812 -1.0810 -0.8115
 6224TIP3   OH240306   1.463   1.248   8.329  0.3087  1.3056  0.3034
 6224TIP3    H140307   1.392   1.209   8.277  0.7468 -0.3704  0.8926
 6224TIP3    H240308   1.518   1.293   8.265 -0.3502  1.1416 -0.3936
 6225TIP3   OH240309   4.353   3.641   8.758  0.0852  0.1284  0.4873
 6225TIP3    H140310   4.367   3.721   8.708 -0.3993 -0.5139 -0.7229
 6225TIP3    H240311   4.270   3.654   8.802 -0.5122 -0.1078 -0.5443
 6226TIP3   OH240312   1.661   1.964   8.629  0.1409 -0.1511  0.3734
 6226TIP3    H140313   1.666   2.056   8.604 -2.5721 -0.7539 -3.0872
 6226TIP3    H240314   1.567   1.945   8.634  0.5928 -2.9269  0.1817
 6227TIP3   OH240315   3.947   2.372   0.223 -0.3095 -0.1921  0.5254
 6227TIP3    H140316   3.893   2.301   0.188 -0.3660 -0.4975  1.2281
 6227TIP3    H240317   4.021   2.329   0.264  0.6283  0.2360 -0.6545
 6228TIP3   OH240318   0.320   0.043   2.783 -0.1036 -0.4659  0.2003
 6228TIP3    H140319   0.273   0.057   2.701  0.0441  2.0263  0.4560
 6228TIP3    H240320   0.365  -0.041   2.772  0.7893  0.2814 -2.7155
 6229TIP3   OH240321   1.022   6.018   7.467 -0.2702  0.6353  0.3232
 6229TIP3    H140322   1.045   5.958   7.395 -1.3120 -0.6041  0.9707
 6229TIP3    H240323   0.998   6.100   7.424  2.7012  1.1548 -0.5049
 6230TIP3   OH240324   1.894   0.801   6.569  0.0451  0.5954 -0.1353
 6230TIP3    H140325   1.817   0.850   6.539 -0.7029 -1.0300 -1.0160
 6230TIP3    H240326   1.858   0.720   6.604  1.3605 -0.2523 -0.6696
 6231TIP3   OH240327   4.542   2.636   8.628 -0.2875 -0.5551  0.0238
 6231TIP3    H140328   4.509   2.566   8.573  0.3270 -1.8626  1.2633
 6231TIP3    H240329   4.505   2.619   8.714  0.2899  0.3442  0.4710
 6232TIP3   OH240330   4.551   0.369   6.377  0.2781 -0.6374 -0.3371
 6232TIP3    H140331   4.569   0.454   6.337  0.7243 -0.5044  0.1282
 6232TIP3    H240332   4.488   0.388   6.446 -1.4544 -1.0561 -1.7552
 6233TIP3   OH240333   4.446   0.754   8.672  0.0587 -0.2245  0.3147
 6233TIP3    H140334   4.484   0.773   8.586  0.9103 -0.7484  0.5642
 6233TIP3    H240335   4.501   0.685   8.708 -0.5704 -0.3385  1.0974
 6234TIP3   OH240336   1.136   3.206   1.012 -0.2689 -0.1582  0.1023
 6234TIP3    H140337   1.189   3.285   1.025  0.0635 -0.3679  0.0475
 6234TIP3    H240338   1.107   3.183   1.100 -2.9182  1.7334 -0.1700
 6235TIP3   OH240339   3.721   1.570   1.756  0.3260  0.1066  0.2050
 6235TIP3    H140340   3.750   1.599   1.669 -1.3078 -0.6582 -0.6367
 6235TIP3    H240341   3.695   1.650   1.801  0.7421  0.4611 -0.1695
 6236TIP3   OH240342   4.999   0.039   6.669 -0.0593  0.3029 -0.0941
 6236TIP3    H140343   4.919   0.009   6.627 -0.2163 -0.2872  0.6138
 6236TIP3    H240344   4.970   0.113   6.724 -0.3587 -0.7087  1.1455
 6237TIP3   OH240345   6.433   0.179   7.132  0.3894 -0.0328 -0.0514
 6237TIP3    H140346   6.367   0.123   7.092 -0.8550  0.3823  1.3359
 6237TIP3    H240347   6.465   0.234   7.061 -1.2095  0.1667 -0.6501
 6238TIP3   OH240348   4.148   0.897   8.277  0.2897 -0.6590  0.4555
 6238TIP3    H140349   4.125   0.841   8.203  0.9430 -0.1049 -0.1806
 6238TIP3    H240350   4.230   0.939   8.251 -0.0100  0.3316  1.0487
 6239TIP3   OH240351   4.303   6.678   0.871  0.8255  0.4021 -0.1207
 6239TIP3    H140352   4.385   6.717   0.902  1.4439  0.9607 -2.2291
 6239TIP3    H240353   4.294   6.711   0.781 -1.4274 -0.1268 -0.1479
 6240TIP3   OH240354   6.167   5.050   7.135 -0.3789  0.4868 -0.1902
 6240TIP3    H140355   6.090   5.103   7.111 -0.3041  0.9056  0.4648
 6240TIP3    H240356   6.130   4.970   7.173 -0.4918  0.2071 -0.8817
 6241TIP3   OH240357   5.151   3.138   7.434  0.2131 -0.2267 -0.4902
 6241TIP3    H140358   5.122   3.207   7.374  0.4520 -0.2902 -0.6794
 6241TIP3    H240359   5.103   3.060   7.407 -1.2694  0.2147  0.7259
 6242TIP3   OH240360   3.783   4.028   0.157  0.1176 -0.7792  0.0469
 6242TIP3    H140361   3.711   4.076   0.196 -0.4187 -1.4702 -0.0805
 6242TIP3    H240362   3.748   3.992   0.075  1.2660  0.7875 -1.2016
 6243TIP3   OH240363   4.558   6.072   7.586 -0.3736 -0.3418 -0.3016
 6243TIP3    H140364   4.543   5.977   7.587 -0.4255 -0.3307 -0.0866
 6243TIP3    H240365   4.616   6.086   7.511  0.6315 -0.6919  0.3873
 6244TIP3   OH240366   4.095   2.792   7.929  0.1348 -0.0486 -0.5641
 6244TIP3    H140367   4.081   2.871   7.980  1.0128  0.4842 -1.1169
 6244TIP3    H240368   4.090   2.822   7.838 -1.2326 -0.9431 -0.8048
 6245TIP3   OH240369   0.885   0.610   2.251  0.1202 -0.1224  0.8535
 6245TIP3    H140370   0.930   0.641   2.330  1.4419 -1.6704  0.7637
 6245TIP3    H240371   0.812   0.558   2.285 -0.4030  0.6917  1.0147
 6246TIP3   OH240372   2.765   2.414   8.071  0.1194 -0.0478 -0.5578
 6246TIP3    H140373   2.742   2.506   8.088 -2.0381 -0.4976 -0.7388
 6246TIP3    H240374   2.780   2.410   7.977  1.9563  0.4152 -0.3305
 6247TIP3   OH240375   1.321   4.270   1.801 -0.1193  0.1568  0.9820
 6247TIP3    H140376   1.356   4.253   1.888  4.2266  0.7624 -0.4050
 6247TIP3    H240377   1.337   4.189   1.752 -3.7538 -0.6954  0.8894
 6248TIP3   OH240378   1.658   3.167   7.148  0.2191  0.4456 -0.1897
 6248TIP3    H140379   1.656   3.229   7.221 -0.1788  0.7866 -0.4902
 6248TIP3    H240380   1.750   3.139   7.144 -0.0904 -1.0357  1.6429
 6249TIP3   OH240381   2.953   0.952   7.466 -0.2014 -0.1297  0.1315
 6249TIP3    H140382   2.979   0.953   7.558 -0.7811  0.8286  0.3015
 6249TIP3    H240383   2.897   0.875   7.458  2.3172 -2.0376 -0.1713
 6250TIP3   OH240384   5.094   1.943   0.663 -0.0312  0.1802  0.4151
 6250TIP3    H140385   5.102   1.874   0.597  0.4023  1.4296 -0.8918
 6250TIP3    H240386   5.174   1.934   0.715  0.3062  0.0453 -0.1073
 6251TIP3   OH240387   4.864   4.454   6.765 -0.2896  0.9264  0.7689
 6251TIP3    H140388   4.796   4.454   6.697  0.7233  0.5966 -0.2840
 6251TIP3    H240389   4.863   4.543   6.800 -0.1917  1.3951 -0.3692
 6252TIP3   OH240390   5.107   1.375   8.258  0.5292  0.0811 -0.1631
 6252TIP3    H140391   5.201   1.360   8.273  0.5042 -0.4636 -0.5257
 6252TIP3    H240392   5.093   1.348   8.168 -0.4117 -1.9798  0.5495
 6253TIP3   OH240393   3.264   6.100   0.111 -0.0044 -0.0805 -0.5781
 6253TIP3    H140394   3.276   6.167   0.043  0.4971  0.6522  0.2107
 6253TIP3    H240395   3.256   6.018   0.062  1.2232  0.3101 -1.4990
 6254TIP3   OH240396   4.269   2.202   0.734 -0.4077 -0.0850 -0.6709
 6254TIP3    H140397   4.266   2.297   0.725  0.5849 -0.0621 -0.7785
 6254TIP3    H240398   4.354   2.176   0.699 -0.9843 -1.1022 -1.3932
 6255TIP3   OH240399   2.709   1.374   8.499  0.0198 -0.1091 -0.2957
 6255TIP3    H140400   2.736   1.440   8.435 -0.2704 -0.4136 -0.7367
 6255TIP3    H240401   2.711   1.291   8.452  1.9932 -0.6803  0.7032
 6256TIP3   OH240402   4.179   6.727   7.530 -0.0462  0.4976 -0.3984
 6256TIP3    H140403   4.207   6.637   7.546  1.8108  0.5239 -2.9229
 6256TIP3    H240404   4.096   6.734   7.576 -0.2509 -2.4998 -0.0844
 6257TIP3   OH240405   5.382   4.536   0.963  0.1407  0.5185  0.0586
 6257TIP3    H140406   5.453   4.487   1.004  0.0049  0.6456  0.4516
 6257TIP3    H240407   5.313   4.539   1.029  0.6213  2.3123  0.5646
 6258TIP3   OH240408   5.483   6.786   7.409  0.3324 -0.4324  0.3090
 6258TIP3    H140409   5.465   6.732   7.486  0.6254 -1.9254 -0.6147
 6258TIP3    H240410   5.575   6.768   7.389 -0.1732 -1.4343 -1.3597
 6259TIP3   OH240411   5.902   3.883   0.500  0.2666  0.3204  0.1448
 6259TIP3    H140412   5.938   3.798   0.475  0.2229  0.3948 -0.1791
 6259TIP3    H240413   5.902   3.882   0.595 -2.3885 -1.1852  0.2169
 6260TIP3   OH240414   4.599   2.022   0.960 -0.4656 -0.4193 -0.2699
 6260TIP3    H140415   4.514   2.026   1.004 -0.1837  0.2593  0.2329
 6260TIP3    H240416   4.593   2.086   0.889  0.2362  1.0502  0.9163
 6261TIP3   OH240417   2.621   2.871   8.688  0.6470  0.1523 -0.3201
 6261TIP3    H140418   2.567   2.945   8.715  0.0808 -0.6830  0.9755
 6261TIP3    H240419   2.660   2.898   8.605 -0.2455  1.5347 -0.3222
 6262TIP3   OH240420   1.233   1.530   6.871 -0.0528  0.2094  0.2920
 6262TIP3    H140421   1.284   1.503   6.947  0.9746 -0.3286 -0.5574
 6262TIP3    H240422   1.221   1.449   6.821  0.0775  0.7124 -0.5716
 6263TIP3   OH240423   3.719   0.931   8.400 -0.8651  0.3599  0.1247
 6263TIP3    H140424   3.646   0.993   8.401 -2.1962 -0.9698 -2.5419
 6263TIP3    H240425   3.677   0.846   8.384  1.0413 -1.0177  1.9048
 6264TIP3   OH240426   1.312   4.516   8.430 -0.2849  0.1512 -0.3502
 6264TIP3    H140427   1.233   4.468   8.405  0.0115 -0.6098  0.1361
 6264TIP3    H240428   1.289   4.556   8.514 -0.2761  0.2449 -0.3927
 6265TIP3   OH240429   1.188   5.882   1.383 -0.1301 -0.0654 -0.6286
 6265TIP3    H140430   1.247   5.951   1.351 -1.2590  1.2345  0.0082
 6265TIP3    H240431   1.246   5.819   1.426  0.9512  0.3570 -1.4313
 6266TIP3   OH240432   0.970   2.200   7.735  0.1412  0.0828  0.2694
 6266TIP3    H140433   0.932   2.286   7.717 -0.6326  0.0641  1.7311
 6266TIP3    H240434   1.028   2.214   7.810  1.7552 -0.2431 -0.8556
 6267TIP3   OH240435   1.689   1.983   6.955  0.1715  0.0808 -0.2740
 6267TIP3    H140436   1.653   1.895   6.942 -0.4307  0.5785 -2.3946
 6267TIP3    H240437   1.702   2.017   6.866  3.1560  1.0684  0.4169
 6268TIP3   OH240438   5.461   2.894   0.449  0.2355 -0.1899  0.2062
 6268TIP3    H140439   5.492   2.839   0.377 -0.0028 -0.6916  0.4796
 6268TIP3    H240440   5.366   2.885   0.448  0.2385 -0.3292  0.6768
 6269TIP3   OH240441   4.002   3.357   6.753 -0.0927 -0.1268 -0.2616
 6269TIP3    H140442   4.008   3.445   6.789  0.0660 -0.3521  0.2752
 6269TIP3    H240443   3.937   3.363   6.683 -0.3179  0.3401 -0.0083
 6270TIP3   OH240444   4.106   5.289   7.356 -0.6264  0.1204 -0.0745
 6270TIP3    H140445   4.143   5.209   7.319 -1.1621  0.3835 -1.2639
 6270TIP3    H240446   4.172   5.322   7.416  1.6857  1.2135 -2.9674
 6271TIP3   OH240447   4.602   4.302   7.847 -0.2046  0.6445 -0.1110
 6271TIP3    H140448   4.517   4.344   7.860 -0.2326  0.8351 -0.8775
 6271TIP3    H240449   4.619   4.257   7.930 -0.7027  1.2191  0.3144
 6272TIP3   OH240450   0.958   2.442   0.235 -0.0190  0.3467 -0.5175
 6272TIP3    H140451   0.994   2.364   0.277  0.1851  1.7283  2.0884
 6272TIP3    H240452   0.864   2.427   0.233  0.0447 -0.0986 -0.3353
 6273TIP3   OH240453   4.109   2.434   6.174  0.3361  0.3689 -0.4288
 6273TIP3    H140454   4.023   2.470   6.196 -0.0797 -1.3358  0.9406
 6273TIP3    H240455   4.090   2.361   6.116  0.8709  0.1239 -0.2953
 6274TIP3   OH240456   2.314   5.104   7.439  0.6953 -0.1919 -0.1273
 6274TIP3    H140457   2.360   5.074   7.361  1.2678 -0.6124  0.3581
 6274TIP3    H240458   2.373   5.081   7.511  0.1279  0.0944  0.4338
 6275TIP3   OH240459   1.263   2.950   8.075 -0.1897  0.0262 -0.1139
 6275TIP3    H140460   1.227   2.866   8.105  0.4792 -0.1565  0.1973
 6275TIP3    H240461   1.188   3.010   8.077 -0.4182 -0.2657  0.8149
 6276TIP3   OH240462   6.512   0.342   6.927 -0.9356  0.5134  0.0562
 6276TIP3    H140463   6.498   0.326   6.833  1.9753 -0.8346 -0.2589
 6276TIP3    H240464   6.565   0.422   6.929  1.9632 -1.2991  0.2149
 6277TIP3   OH240465   5.632   0.984   7.683 -0.1357  0.2837 -0.6187
 6277TIP3    H140466   5.657   0.895   7.660  0.7714  0.3771 -0.0381
 6277TIP3    H240467   5.639   1.033   7.601  0.7114  0.1073 -0.6565
 6278TIP3   OH240468   6.133   6.340   0.134 -0.0441 -0.0486 -0.1384
 6278TIP3    H140469   6.112   6.414   0.076  0.7035  0.8837  0.7341
 6278TIP3    H240470   6.173   6.381   0.211  0.1452 -1.3564  0.4847
 6279TIP3   OH240471   6.730   4.722   1.936 -0.2701  0.0029 -0.0206
 6279TIP3    H140472   6.649   4.672   1.940 -2.0850  2.7210 -0.4855
 6279TIP3    H240473   6.791   4.665   1.890 -2.2032 -1.7420 -0.5642
 6280TIP3   OH240474   4.243   5.881   7.587  0.2152  0.2782 -0.1550
 6280TIP3    H140475   4.300   5.820   7.634  2.8353  2.7357  0.1106
 6280TIP3    H240476   4.156   5.866   7.624  1.2080 -1.5886  1.6074
 6281TIP3   OH240477   6.624   3.430   7.635  0.2781  0.1132 -0.0403
 6281TIP3    H140478   6.685   3.467   7.699  0.8831 -1.9791  0.6708
 6281TIP3    H240479   6.548   3.403   7.687 -0.0838  0.2083 -0.5114
 6282TIP3   OH240480   0.194   5.409   0.079 -0.2862  0.1965 -0.0550
 6282TIP3    H140481   0.129   5.477   0.097  0.7330  1.1212  0.2619
 6282TIP3    H240482   0.208   5.413  -0.016  0.7652  1.4046  0.1220
 6283TIP3   OH240483   1.371   3.654   8.497 -0.3964 -0.5407 -0.1259
 6283TIP3    H140484   1.421   3.585   8.454  1.1688  0.3494  0.1951
 6283TIP3    H240485   1.280   3.635   8.475  0.1860 -1.3294 -2.0400
 6284TIP3   OH240486   1.274   1.557   1.031  0.3145 -0.1752  0.4809
 6284TIP3    H140487   1.291   1.519   1.117 -0.4174  0.3878  0.8937
 6284TIP3    H240488   1.329   1.507   0.971  0.1716 -1.1658  1.1487
 6285TIP3   OH240489   4.385   5.582   6.959 -0.0421 -0.6841  0.2567
 6285TIP3    H140490   4.328   5.593   7.035  1.0265  0.2481  0.9611
 6285TIP3    H240491   4.340   5.628   6.889 -0.8840 -1.2711  0.3940
 6286TIP3   OH240492   0.233   4.644   2.002 -0.6427  0.4318 -0.3001
 6286TIP3    H140493   0.220   4.561   2.048 -1.1571  1.4688  1.5219
 6286TIP3    H240494   0.187   4.633   1.919 -1.3418 -0.8600  0.2301
 6287TIP3   OH240495   1.655   4.789   7.214  0.6120  0.0498 -0.3795
 6287TIP3    H140496   1.590   4.837   7.266  1.5395  0.8610  0.0515
 6287TIP3    H240497   1.613   4.705   7.195 -0.6236  0.6077 -0.2328
 6288TIP3   OH240498   6.412   1.095   0.704  0.0050 -0.3799  0.2430
 6288TIP3    H140499   6.343   1.161   0.701  0.5062  0.4528  3.3033
 6288TIP3    H240500   6.367   1.013   0.718 -0.4614 -0.2623 -0.5029
 6289TIP3   OH240501   5.353   1.048   1.037  0.3791  0.3955  0.3472
 6289TIP3    H140502   5.405   1.014   1.111 -0.5773 -1.7059  0.1211
 6289TIP3    H240503   5.263   1.043   1.068 -0.0953 -1.1737 -1.1690
 6290TIP3   OH240504   6.778   4.684   1.188 -0.1331 -0.0405  0.2563
 6290TIP3    H140505   6.696   4.651   1.152 -1.3522  1.7030  1.2956
 6290TIP3    H240506   6.846   4.648   1.130 -1.5747 -1.7804 -0.4318
 6291TIP3   OH240507   5.251   4.748   0.484 -0.4091  0.2380 -0.4129
 6291TIP3    H140508   5.244   4.794   0.401 -0.6707  0.3188 -0.3480
 6291TIP3    H240509   5.170   4.769   0.530  0.7440  2.2177  0.9020
 6292TIP3   OH240510   3.398   0.702   7.078 -0.6094  0.2251 -0.2854
 6292TIP3    H140511   3.448   0.675   7.001  0.1692  0.4744  0.1331
 6292TIP3    H240512   3.307   0.704   7.047 -0.6914 -2.4012 -0.4669
 6293TIP3   OH240513   6.767   5.479   7.659  0.2751 -0.1820  0.0246
 6293TIP3    H140514   6.859   5.479   7.685  0.0837 -1.3590  0.7745
 6293TIP3    H240515   6.719   5.478   7.742 -0.3688 -1.9780 -0.3262
 6294TIP3   OH240516   5.603   4.862   0.174 -0.5178  0.2114  0.0238
 6294TIP3    H140517   5.566   4.774   0.168  1.7844 -0.8761  0.6164
 6294TIP3    H240518   5.679   4.860   0.116 -0.2636  1.7286  0.2624
 6295TIP3   OH240519   6.757   5.186   8.193 -0.1213  0.1935 -0.2318
 6295TIP3    H140520   6.769   5.128   8.268 -0.4646 -1.1302 -1.1570
 6295TIP3    H240521   6.674   5.158   8.155 -0.5583  1.6567 -0.4290
 6296TIP3   OH240522   0.399   6.149   0.940  0.2482 -0.0894 -0.0822
 6296TIP3    H140523   0.308   6.134   0.968  0.1911 -0.8544 -0.6395
 6296TIP3    H240524   0.409   6.244   0.940 -1.1394  0.1130 -1.7768
 6297TIP3   OH240525   5.228   4.737   7.026  0.1461 -0.3340 -0.7293
 6297TIP3    H140526   5.206   4.789   6.949  3.4818  0.5910 -1.2240
 6297TIP3    H240527   5.213   4.796   7.100 -1.5150 -0.6788 -0.7584
 6298TIP3   OH240528   6.663   2.428   1.082  0.0010  0.3635 -0.1458
 6298TIP3    H140529   6.649   2.349   1.135  1.6650 -1.4636 -2.2418
 6298TIP3    H240530   6.746   2.464   1.115 -0.4293  0.8983  0.3752
 6299TIP3   OH240531   3.029   1.078   6.843  0.3316 -0.3138 -0.6200
 6299TIP3    H140532   3.008   1.024   6.919 -0.6049 -0.1830 -0.7710
 6299TIP3    H240533   2.948   1.078   6.791  0.4720  0.8244 -0.8667
 6300TIP3   OH240534   4.631   6.755   7.568  0.6017 -0.2030 -0.8020
 6300TIP3    H140535   4.652   6.758   7.475 -0.8950  0.0528 -1.1689
 6300TIP3    H240536   4.564   6.823   7.580  0.0211 -0.9206  0.2406
 6301TIP3   OH240537   1.083   1.245   1.915  0.1210  0.4043  0.6156
 6301TIP3    H140538   1.082   1.149   1.914 -0.5113  0.4001 -0.7088
 6301TIP3    H240539   1.057   1.269   2.004 -1.5144 -0.6575  0.4532
 6302TIP3   OH240540   4.678   3.632   8.690 -0.0375  0.2551 -0.0207
 6302TIP3    H140541   4.724   3.641   8.607 -0.9945  2.3967 -0.4074
 6302TIP3    H240542   4.745   3.645   8.757  0.6727 -1.1291 -0.4395
 6303TIP3   OH240543   4.512   6.466   6.886 -0.2664 -0.1770 -0.5310
 6303TIP3    H140544   4.492   6.458   6.793  1.7842 -2.1890 -0.8775
 6303TIP3    H240545   4.582   6.530   6.890 -1.9564  1.7261 -0.0501
 6304TIP3   OH240546   1.714   0.478   7.229  0.0164 -0.1775 -0.5472
 6304TIP3    H140547   1.683   0.394   7.261 -0.0204  0.5018  1.3114
 6304TIP3    H240548   1.789   0.457   7.173  1.0971 -1.3576  1.2713
 6305TIP3   OH240549   5.802   4.205   1.701  0.1668  0.0391  0.2823
 6305TIP3    H140550   5.771   4.156   1.778 -1.9650 -0.4975 -0.8405
 6305TIP3    H240551   5.897   4.211   1.713 -0.2690  2.5161  4.4022
 6306TIP3   OH240552   1.140   6.549   1.109  0.4870  0.2365 -0.3560
 6306TIP3    H140553   1.218   6.525   1.159  0.3165 -1.4746 -0.8745
 6306TIP3    H240554   1.154   6.642   1.087  2.4224 -0.0562 -0.5476
 6307TIP3   OH240555   5.461   6.247   8.240 -0.3276  0.1746 -0.0353
 6307TIP3    H140556   5.393   6.186   8.272  0.6363 -0.0526  1.7334
 6307TIP3    H240557   5.486   6.297   8.318  3.9683 -2.1275  0.3562
 6308TIP3   OH240558   4.536   5.972   6.799  0.6215 -0.0182  0.0586
 6308TIP3    H140559   4.470   5.927   6.747  0.4655  0.7639 -0.4431
 6308TIP3    H240560   4.492   6.051   6.830  0.7819 -0.3790  1.2147
 6309TIP3   OH240561   0.768   1.488   1.339  0.2770  0.1674  0.0470
 6309TIP3    H140562   0.715   1.449   1.270  0.0946 -2.1919  1.4171
 6309TIP3    H240563   0.795   1.573   1.303 -3.1571  0.8700 -1.2780
 6310TIP3   OH240564   5.055   6.653   7.237  0.4136  0.1917 -0.1329
 6310TIP3    H140565   5.034   6.645   7.330  0.0439  0.1071 -0.2227
 6310TIP3    H240566   5.106   6.734   7.231 -1.0335  1.1255 -0.1025
 6311TIP3   OH240567   0.886   0.702   6.811 -1.0607 -0.1707  0.0658
 6311TIP3    H140568   0.918   0.658   6.889 -2.0299  0.3462  0.7687
 6311TIP3    H240569   0.965   0.733   6.767 -0.5613  1.4103  1.9637
 6312TIP3   OH240570   2.733   3.661   0.064 -0.0257 -0.6884 -0.4736
 6312TIP3    H140571   2.707   3.578   0.024 -0.6664 -0.9941  0.5340
 6312TIP3    H240572   2.650   3.707   0.079  0.1948 -0.5690  0.4472
 6313TIP3   OH240573   0.634   4.689   1.126  0.0867 -0.0616  0.0796
 6313TIP3    H140574   0.627   4.784   1.139 -0.2415 -0.1072  0.2462
 6313TIP3    H240575   0.581   4.651   1.196 -0.7548 -0.3426 -0.6965
 6314TIP3   OH240576   2.767   4.742   2.329  0.0963 -0.6756 -0.6237
 6314TIP3    H140577   2.837   4.795   2.290 -1.7183  1.4418 -1.1747
 6314TIP3    H240578   2.787   4.742   2.422  0.1587  1.0433 -0.5997
 6315TIP3   OH240579   0.663   2.156   0.471  0.1648 -0.0668 -0.1373
 6315TIP3    H140580   0.754   2.138   0.495 -0.2993 -1.0438  0.9907
 6315TIP3    H240581   0.642   2.237   0.517  0.1731 -0.3513  0.3664
 6316TIP3   OH240582   6.136   1.279   1.348 -0.4867 -0.0391 -0.1713
 6316TIP3    H140583   6.203   1.338   1.381  0.6147 -0.6422 -1.2838
 6316TIP3    H240584   6.073   1.336   1.303  0.7903  0.2682 -1.6208
 6317TIP3   OH240585   0.211   2.183   2.463  0.1589  0.3476 -0.3220
 6317TIP3    H140586   0.292   2.204   2.510  0.1116 -1.1000  0.4553
 6317TIP3    H240587   0.191   2.263   2.414  1.6875  0.9647 -0.0122
 6318TIP3   OH240588   1.189   1.227   7.486 -0.2828  0.3334  0.1194
 6318TIP3    H140589   1.126   1.202   7.418  0.5340  0.9775 -0.9079
 6318TIP3    H240590   1.135   1.257   7.559 -1.2083 -1.6022  0.2720
 6319TIP3   OH240591   1.905   4.063   0.239 -0.2009  0.2290 -0.9483
 6319TIP3    H140592   1.821   4.059   0.286  0.4381 -2.3567  0.1488
 6319TIP3    H240593   1.883   4.040   0.149 -0.8393  1.0419 -1.0186
 6320TIP3   OH240594   4.936   5.834   0.300  0.4690  0.1471  0.7686
 6320TIP3    H140595   4.849   5.794   0.289  0.0567  0.5225  2.3448
 6320TIP3    H240596   4.987   5.769   0.348  0.2450  0.8800  2.0661
 6321TIP3   OH240597   0.489   0.393   0.926  0.1843  0.4101  0.4056
 6321TIP3    H140598   0.536   0.442   0.993  3.2951 -1.4341 -0.2070
 6321TIP3    H240599   0.545   0.398   0.848 -0.9455 -1.4128 -0.6036
 6322TIP3   OH240600   3.771   5.307   8.016 -0.1370 -0.1482 -0.2057
 6322TIP3    H140601   3.783   5.221   8.057  1.4996  0.1148 -0.0455
 6322TIP3    H240602   3.743   5.364   8.087  0.2183 -0.2502  0.0228
 6323TIP3   OH240603   1.419   0.592   1.781 -0.3641  0.1572 -0.1731
 6323TIP3    H140604   1.440   0.505   1.816 -1.5370  0.1075  0.4536
 6323TIP3    H240605   1.419   0.649   1.858  0.3842  0.7327 -0.5785
 6324TIP3   OH240606   0.360   2.475   0.810  0.0884  0.5008 -0.9138
 6324TIP3    H140607   0.309   2.469   0.891  0.1063  2.3643 -0.7316
 6324TIP3    H240608   0.384   2.384   0.790 -1.1624 -0.1401  0.3599
 6325TIP3   OH240609   0.075   4.782   1.420  0.3026 -0.1759  0.3586
 6325TIP3    H140610   0.043   4.738   1.341  1.0415  0.0259 -0.0576
 6325TIP3    H240611   0.149   4.728   1.449  1.0369  0.6303  0.0059
 6326TIP3   OH240612   4.610   4.467   2.396  0.2551  0.4152  0.0149
 6326TIP3    H140613   4.611   4.409   2.472 -0.0844 -0.2426 -0.4765
 6326TIP3    H240614   4.696   4.509   2.398 -0.1750  1.3116  1.4351
 6327TIP3   OH240615   1.632   5.839   2.562  0.0998  0.0028 -0.0248
 6327TIP3    H140616   1.640   5.899   2.488  2.9103 -1.0253 -0.6844
 6327TIP3    H240617   1.647   5.894   2.639 -0.3102  0.6403 -0.3935
 6328TIP3   OH240618   4.842   5.393   0.861  0.1193  0.6819  0.3507
 6328TIP3    H140619   4.865   5.357   0.947  0.0015  0.8885  0.4700
 6328TIP3    H240620   4.783   5.465   0.881 -0.4893  0.2711  0.0521
 6329TIP3   OH240621   5.183   6.802   0.340  0.2815 -0.0688 -0.0807
 6329TIP3    H140622   5.105   6.760   0.378  0.5978  0.0863  0.7789
 6329TIP3    H240623   5.168   6.896   0.355  0.2345  0.0228 -0.6999
 6330TIP3   OH240624   0.120   0.980   2.338  0.3159 -0.3320 -0.4019
 6330TIP3    H140625   0.176   0.905   2.360  0.9665 -0.2624 -1.7168
 6330TIP3    H240626   0.031   0.948   2.352  0.6256 -0.9321  0.2775
 6331TIP3   OH240627   0.221   6.383   2.097 -0.0162 -0.4437 -0.1401
 6331TIP3    H140628   0.209   6.322   2.169 -2.0111  0.0941  0.0367
 6331TIP3    H240629   0.236   6.468   2.139 -2.2353  0.0705 -0.2776
 6332TIP3   OH240630   0.134   6.034   6.592 -0.3364 -0.0763  0.8003
 6332TIP3    H140631   0.074   6.075   6.529 -2.1528  0.2644  2.6725
 6332TIP3    H240632   0.166   5.956   6.547  0.0672  1.2006 -1.3115
 6333TIP3   OH240633   0.354   4.370   1.185  0.2973  0.0257 -0.1669
 6333TIP3    H140634   0.394   4.371   1.271 -0.2326  0.1921  0.0809
 6333TIP3    H240635   0.303   4.451   1.180 -0.8870 -0.6868 -0.0475
 6334TIP3   OH240636   1.660   6.112   7.690  0.3701 -0.2333  0.7390
 6334TIP3    H140637   1.639   6.152   7.775  0.8939 -0.0624  0.7903
 6334TIP3    H240638   1.639   6.020   7.701 -1.9468  0.1619  0.2720
 6335TIP3   OH240639   2.863   1.422   1.093 -0.1383 -0.2609  0.1582
 6335TIP3    H140640   2.769   1.420   1.108 -0.2253  0.2595 -0.2575
 6335TIP3    H240641   2.896   1.486   1.156  0.1474 -1.4943  1.2961
 6336TIP3   OH240642   4.483   3.704   1.028  0.0567 -0.0106 -0.3258
 6336TIP3    H140643   4.428   3.777   1.056  0.4537 -0.0214  0.5022
 6336TIP3    H240644   4.567   3.744   1.008  1.3144 -0.5547  3.1797
 6337TIP3   OH240645   0.442   4.996   0.543  0.2066 -0.1585 -0.7137
 6337TIP3    H140646   0.395   5.075   0.571  0.6894 -0.4121  0.8828
 6337TIP3    H240647   0.466   4.952   0.624  1.3756 -1.1122 -1.5417
 6338TIP3   OH240648   0.303   0.184   0.941 -0.1680 -0.7244  0.4711
 6338TIP3    H140649   0.232   0.215   0.884  0.8477 -0.0618 -0.4628
 6338TIP3    H240650   0.372   0.249   0.933  0.2552 -0.9287  2.0135
 6339TIP3   OH240651   4.417   5.190   8.198 -0.2035  0.5807  0.0096
 6339TIP3    H140652   4.495   5.214   8.148  1.5106 -2.2705  1.1004
 6339TIP3    H240653   4.439   5.212   8.288 -1.6868  1.9538  0.0850
 6340TIP3   OH240654   6.492   0.820   0.907 -0.0429  0.5079 -0.4939
 6340TIP3    H140655   6.419   0.839   0.965 -0.1726  1.5451 -0.9635
 6340TIP3    H240656   6.463   0.746   0.854  0.3831 -0.9581  1.2594
 6341TIP3   OH240657   0.904   2.140   8.073 -0.2977  0.1318 -0.1648
 6341TIP3    H140658   0.916   2.148   8.168 -0.4227 -1.6503  0.0435
 6341TIP3    H240659   0.971   2.197   8.035 -0.0769  0.6696  0.9894
 6342TIP3   OH240660   3.938   6.006   0.255 -0.6578  0.3803 -0.2051
 6342TIP3    H140661   3.970   5.928   0.209 -1.5666  1.5143 -2.9646
 6342TIP3    H240662   3.962   5.991   0.346  4.1048 -0.6744 -1.3496
 6343TIP3   OH240663   5.749   3.012   8.088  0.0342  0.1521 -1.1258
 6343TIP3    H140664   5.794   2.945   8.139  1.6445 -0.0985 -2.7608
 6343TIP3    H240665   5.663   2.974   8.068 -0.2622 -0.1185  0.5459
 6344TIP3   OH240666   0.686   4.219   8.751 -0.0916  0.4160  0.2130
 6344TIP3    H140667   0.712   4.134   8.788  1.7906  1.8980  2.6748
 6344TIP3    H240668   0.625   4.255   8.815 -2.2880  0.2848 -1.6871
 6345TIP3   OH240669   3.516   1.127   1.790 -0.2719 -0.3364 -0.3466
 6345TIP3    H140670   3.561   1.137   1.874  0.4292 -1.4744 -0.5580
 6345TIP3    H240671   3.468   1.045   1.799 -0.8441 -0.0514 -0.7806
 6346TIP3   OH240672   1.587   4.913   1.778 -0.2330 -0.2269 -0.0957
 6346TIP3    H140673   1.654   4.891   1.714 -0.0147 -0.9569  0.3635
 6346TIP3    H240674   1.620   4.876   1.860 -0.4062  0.8663  0.4805
 6347TIP3   OH240675   4.094   0.460   0.709  0.0373  0.2989 -0.2722
 6347TIP3    H140676   4.035   0.530   0.681  0.3673  0.1536 -1.3568
 6347TIP3    H240677   4.054   0.426   0.789 -0.6268  1.0991 -0.2509
 6348TIP3   OH240678   5.025   3.509   8.649  0.4262  0.3178 -0.0561
 6348TIP3    H140679   4.946   3.463   8.619  0.5068  1.8839 -2.9647
 6348TIP3    H240680   4.992   3.572   8.713 -1.0949  2.2246 -2.5497
 6349TIP3   OH240681   4.988   3.443   1.609  0.5733 -0.1419 -1.0273
 6349TIP3    H140682   5.012   3.420   1.699  2.0895 -1.2023 -1.6705
 6349TIP3    H240683   4.892   3.438   1.609  0.5454 -0.1671  0.5097
 6350TIP3   OH240684   4.658   1.297   6.918 -0.2142 -0.3059  0.3386
 6350TIP3    H140685   4.610   1.262   6.843  0.6121  1.2629 -0.9828
 6350TIP3    H240686   4.672   1.389   6.897  0.9781 -0.0771  1.9376
 6351TIP3   OH240687   0.901   0.692   1.446  0.3976 -0.2224  0.0702
 6351TIP3    H140688   0.962   0.743   1.498 -0.5633  2.1226 -0.9406
 6351TIP3    H240689   0.841   0.653   1.510 -0.3486  2.0340  0.8589
 6352TIP3   OH240690   4.054   5.214   0.680  0.3791 -0.0887  0.3814
 6352TIP3    H140691   4.067   5.308   0.671 -0.7112  0.0505  0.1449
 6352TIP3    H240692   3.972   5.205   0.728  0.5823 -0.9198  0.5995
 6353TIP3   OH240693   3.536   5.204   7.857  0.3979  0.3859 -0.2001
 6353TIP3    H140694   3.469   5.212   7.925 -0.9240  0.3913 -1.4602
 6353TIP3    H240695   3.576   5.119   7.873 -0.7197 -0.1371 -0.1250
 6354TIP3   OH240696   2.789   0.724   7.396 -0.7532 -0.4197 -0.4297
 6354TIP3    H140697   2.778   0.673   7.316 -1.3502 -1.6596  0.3984
 6354TIP3    H240698   2.700   0.747   7.423 -0.4735  1.9593 -1.2860
 6355TIP3   OH240699   0.013   2.764   8.403  0.4339 -0.3747 -0.1876
 6355TIP3    H140700   0.100   2.787   8.372  0.8237 -0.9665  0.4410
 6355TIP3    H240701  -0.017   2.696   8.343  0.5005 -0.3306 -0.2699
 6356TIP3   OH240702   1.684   4.955   1.082 -0.2203 -0.2106 -0.0649
 6356TIP3    H140703   1.658   5.046   1.072  4.0752  1.2133 -0.0396
 6356TIP3    H240704   1.699   4.924   0.993 -0.5962 -0.5860 -0.0053
 6357TIP3   OH240705   3.062   1.917   6.928 -0.2004 -0.0577  0.0218
 6357TIP3    H140706   3.002   1.952   6.862 -0.6510  2.3551  1.5567
 6357TIP3    H240707   3.144   1.902   6.882 -0.5739  1.3255 -1.1650
 6358TIP3   OH240708   0.306   6.529   8.884  0.4558 -0.1738  0.4231
 6358TIP3    H140709   0.385   6.581   8.870  0.8248 -0.6650  0.6506
 6358TIP3    H240710   0.240   6.592   8.910  0.9845  0.1429  1.0253
 6359TIP3   OH240711   6.066   0.709   2.101 -0.1798  0.2026 -0.2016
 6359TIP3    H140712   6.003   0.683   2.034 -0.6713 -1.1470  0.7568
 6359TIP3    H240713   6.017   0.708   2.183  1.1787 -1.3840  0.6467
 6360TIP3   OH240714   3.478   0.938   0.563 -1.0325 -0.6982  0.2769
 6360TIP3    H140715   3.564   0.981   0.569 -2.0928  1.4030  1.4463
 6360TIP3    H240716   3.470   0.888   0.643 -0.9500 -0.7978  0.2231
 6361TIP3   OH240717   5.992   5.286   7.664  0.3652  0.4619  0.3223
 6361TIP3    H140718   5.995   5.363   7.720 -0.8003  1.0746 -0.4193
 6361TIP3    H240719   5.903   5.251   7.674 -0.1686  1.1014 -1.7648
 6362TIP3   OH240720   6.356   4.260   0.785  0.5819  0.2851  0.4651
 6362TIP3    H140721   6.270   4.244   0.747  2.0241 -1.1673 -2.6068
 6362TIP3    H240722   6.384   4.343   0.747  1.9556 -1.0788 -1.7551
 6363TIP3   OH240723   5.151   1.225   8.846 -0.0745  0.0429  0.2644
 6363TIP3    H140724   5.075   1.281   8.863 -0.6275 -0.9056  1.0177
 6363TIP3    H240725   5.130   1.182   8.763 -1.1680 -1.4496  1.2522
 6364TIP3   OH240726   4.460   6.163   7.275 -0.2625 -0.1188  0.0555
 6364TIP3    H140727   4.473   6.233   7.339 -0.6396 -0.0301  0.0343
 6364TIP3    H240728   4.543   6.115   7.276 -0.5917 -0.7099  1.3283
 6365TIP3   OH240729   4.663   6.379   0.196  0.1105  0.5335  0.1063
 6365TIP3    H140730   4.684   6.317   0.127  2.2025  0.3367  0.8265
 6365TIP3    H240731   4.605   6.443   0.155 -0.4161 -0.7396 -1.2126
 6366TIP3   OH240732   6.467   0.298   6.661 -0.2561  0.7898 -0.4726
 6366TIP3    H140733   6.421   0.335   6.586 -1.1276  0.2759 -0.1990
 6366TIP3    H240734   6.494   0.211   6.633 -3.1670 -0.6183  0.7315
 6367TIP3   OH240735   4.581   1.887   7.536 -0.2048 -0.1197 -0.1555
 6367TIP3    H140736   4.510   1.823   7.533  0.5499 -0.9339 -1.3314
 6367TIP3    H240737   4.608   1.890   7.627 -0.5116 -1.1938 -0.0238
 6368TIP3   OH240738   5.576   5.751   8.343 -0.2844  0.5208 -0.3893
 6368TIP3    H140739   5.588   5.836   8.386 -0.8584 -0.0601  1.0115
 6368TIP3    H240740   5.481   5.739   8.342 -0.1999 -0.1659 -0.4230
 6369TIP3   OH240741   3.475   5.082   7.084  0.0326 -0.2477 -0.1836
 6369TIP3    H140742   3.459   5.176   7.073 -2.0414 -0.7125 -1.7613
 6369TIP3    H240743   3.390   5.041   7.069  0.5835 -2.3277  1.8371
 6370TIP3   OH240744   5.681   3.370   1.907 -0.1953  0.1111  0.0154
 6370TIP3    H140745   5.699   3.354   1.814 -1.2874  0.8606 -0.3418
 6370TIP3    H240746   5.765   3.353   1.950  0.3339 -0.2383 -1.1032
 6371TIP3   OH240747   1.695   4.040   8.667  0.1299  0.2746 -0.2868
 6371TIP3    H140748   1.623   3.991   8.627  1.2238 -0.7554 -1.0695
 6371TIP3    H240749   1.704   4.118   8.613 -0.6974  0.6590  0.1116
 6372TIP3   OH240750   3.749   4.333   2.412 -0.2178 -0.2893  0.0866
 6372TIP3    H140751   3.775   4.424   2.399 -0.8860 -0.2274 -1.0033
 6372TIP3    H240752   3.709   4.331   2.499 -1.4516  0.7772 -0.4204
 6373TIP3   OH240753   0.305   5.791   6.763 -0.2749  0.1542  0.2324
 6373TIP3    H140754   0.281   5.799   6.671 -1.1097  1.3699  0.5330
 6373TIP3    H240755   0.288   5.700   6.785 -0.3605 -0.0686 -0.7316
 6374TIP3   OH240756   1.534   4.097   6.588 -0.3955 -0.3609  0.3114
 6374TIP3    H140757   1.476   4.159   6.544  0.0718 -0.4717 -0.4844
 6374TIP3    H240758   1.623   4.127   6.565 -0.1618 -1.0204  0.3433
 6375TIP3   OH240759   3.571   4.820   8.434  0.4576 -0.2459  0.5571
 6375TIP3    H140760   3.664   4.809   8.417 -0.0244 -2.5093 -1.0468
 6375TIP3    H240761   3.534   4.847   8.350 -0.3492  0.8443  1.2259
 6376TIP3   OH240762   1.203   2.220   0.487 -0.3265  0.0243 -0.3772
 6376TIP3    H140763   1.192   2.131   0.520 -1.4288  0.6393  1.0625
 6376TIP3    H240764   1.297   2.237   0.496  0.0606 -1.2960 -1.5795
 6377TIP3   OH240765   1.660   3.276   2.283  0.2592  0.2244 -0.2315
 6377TIP3    H140766   1.692   3.188   2.265  1.4574  0.7482 -0.7671
 6377TIP3    H240767   1.610   3.268   2.364 -0.9373 -1.2265 -1.0521
 6378TIP3   OH240768   0.380   1.404   0.947  0.1610 -0.2036 -0.2088
 6378TIP3    H140769   0.286   1.414   0.936  0.4512  2.1993 -1.1876
 6378TIP3    H240770   0.417   1.428   0.862  1.7099  0.5534  0.6314
 6379TIP3   OH240771   2.076   3.008   6.685 -0.0806  0.6646  0.7475
 6379TIP3    H140772   2.139   3.065   6.640 -0.1899  0.1516 -0.0789
 6379TIP3    H240773   2.057   2.939   6.622 -1.0292  0.4898  1.2067
 6380TIP3   OH240774   6.089   0.112   6.761  0.0507 -0.3892 -0.5950
 6380TIP3    H140775   6.127   0.132   6.676 -2.2193  2.4662 -1.0913
 6380TIP3    H240776   5.997   0.093   6.742 -0.7317  1.2717  1.2617
 6381TIP3   OH240777   4.742   2.350   7.641  0.5896  0.0298  0.4166
 6381TIP3    H140778   4.772   2.441   7.648  0.8785  0.1223 -1.5636
 6381TIP3    H240779   4.648   2.357   7.627  0.5783  0.0097  0.4808
 6382TIP3   OH240780   4.398   6.809   7.937  0.3875 -0.0504  0.2775
 6382TIP3    H140781   4.414   6.891   7.983  1.6537  0.3401 -0.8134
 6382TIP3    H240782   4.303   6.797   7.943  0.2068  1.3574  0.6732
 6383TIP3   OH240783   5.699   3.776   2.195 -0.1864  0.3570  0.2123
 6383TIP3    H140784   5.790   3.769   2.167 -0.3454 -1.3431  0.0109
 6383TIP3    H240785   5.670   3.685   2.206 -1.3932  0.8827  1.8221
 6384TIP3   OH240786   6.113   0.670   1.166  0.0088  0.4658  0.5140
 6384TIP3    H140787   6.033   0.681   1.218 -0.0426  0.5842  0.4105
 6384TIP3    H240788   6.155   0.591   1.202 -0.7984 -0.3456 -0.2552
 6385TIP3   OH240789   4.611   6.698   0.859 -0.4328 -0.0685 -0.0164
 6385TIP3    H140790   4.633   6.716   0.951 -1.4719 -0.8932  0.4247
 6385TIP3    H240791   4.586   6.605   0.859 -0.6497 -0.0198 -1.0994
 6386TIP3   OH240792   4.666   3.235   8.001  0.5533  0.5686 -0.2846
 6386TIP3    H140793   4.609   3.298   8.043  2.4960  1.3298  1.3501
 6386TIP3    H240794   4.667   3.159   8.059 -1.5412 -0.9837 -2.0912
 6387TIP3   OH240795   0.562   3.985   0.964 -0.0298  0.2470 -0.5247
 6387TIP3    H140796   0.528   3.936   1.039  1.8657 -0.0845  0.1769
 6387TIP3    H240797   0.537   4.076   0.982 -1.2455 -0.0651 -0.4945
 6388TIP3   OH240798   5.876   2.454   7.411  0.1343 -0.5554  0.0712
 6388TIP3    H140799   5.941   2.523   7.415  0.5739 -0.8573 -1.3442
 6388TIP3    H240800   5.822   2.476   7.335  1.1836 -2.5006 -1.3209
 6389TIP3   OH240801   3.860   5.613   0.817  0.0097  0.3632  0.0436
 6389TIP3    H140802   3.951   5.588   0.805  0.0957  0.4975  0.4057
 6389TIP3    H240803   3.819   5.595   0.733  0.5590  1.1122 -0.4044
 6390TIP3   OH240804   0.628   6.618   6.928 -0.9310 -0.2532  0.6239
 6390TIP3    H140805   0.581   6.582   6.853  0.8151  1.2999 -1.3374
 6390TIP3    H240806   0.720   6.608   6.906 -0.3558  0.6387  2.3971
 6391TIP3   OH240807   0.499   4.269   7.976 -0.1426  0.0875  0.2894
 6391TIP3    H140808   0.404   4.263   7.975 -0.4603  2.6809  2.6771
 6391TIP3    H240809   0.518   4.363   7.981  2.6325 -0.2559 -1.6115
 6392TIP3   OH240810   4.405   5.550   1.224  0.2697 -0.4114  0.0196
 6392TIP3    H140811   4.432   5.462   1.197 -0.5307 -0.1168 -1.9040
 6392TIP3    H240812   4.352   5.536   1.302 -0.3781 -1.7057 -0.6207
 6393TIP3   OH240813   5.906   5.222   1.053 -0.0539  0.4789 -0.0497
 6393TIP3    H140814   5.924   5.180   1.137  1.4254  0.7710 -0.2069
 6393TIP3    H240815   5.991   5.228   1.009 -0.7271  0.7512 -1.3817
 6394TIP3   OH240816   4.793   3.804   8.109  0.4622 -0.4638  0.4735
 6394TIP3    H140817   4.721   3.751   8.142  1.9383 -0.8482  3.3189
 6394TIP3    H240818   4.766   3.894   8.127  0.3830 -0.5540  0.8035
 6395TIP3   OH240819   3.270   3.144   6.853  0.5927  0.7229  0.2321
 6395TIP3    H140820   3.267   3.098   6.937 -3.2463 -0.5274 -0.3931
 6395TIP3    H240821   3.345   3.204   6.861  2.0980 -1.3076  3.4121
 6396TIP3   OH240822   4.410   3.963   1.528  0.4367 -0.2015  0.0495
 6396TIP3    H140823   4.442   4.020   1.597  1.7802 -0.1601 -0.5673
 6396TIP3    H240824   4.479   3.965   1.461  0.2917 -2.1071 -0.2339
 6397TIP3   OH240825   5.513   6.641   8.280  0.1361 -0.2625 -0.1365
 6397TIP3    H140826   5.419   6.657   8.271  0.0116 -1.2276 -0.7215
 6397TIP3    H240827   5.549   6.723   8.314 -0.6901  0.6368 -1.3698
 6398TIP3   OH240828   4.009   5.838   7.744  0.3826 -0.0380 -0.2681
 6398TIP3    H140829   4.051   5.814   7.826 -1.5424 -0.1618  0.7449
 6398TIP3    H240830   3.999   5.933   7.749 -0.2407 -0.1040 -0.0653
 6399TIP3   OH240831   0.444   3.041   0.276  0.2576 -0.2759 -0.3228
 6399TIP3    H140832   0.356   3.041   0.238  0.2907  1.0291 -0.4541
 6399TIP3    H240833   0.476   2.952   0.262 -0.8581 -0.6372 -0.7039
 6400TIP3   OH240834   4.103   3.380   0.617  0.5906 -0.2669  0.1936
 6400TIP3    H140835   4.147   3.433   0.550  1.5177 -1.4013 -0.1149
 6400TIP3    H240836   4.134   3.417   0.700  1.7620 -0.7305 -0.0212
 6401TIP3   OH240837   0.070   5.726   7.220  0.0186 -0.3382 -0.3253
 6401TIP3    H140838   0.047   5.817   7.240  1.3388 -0.0025 -0.2510
 6401TIP3    H240839   0.155   5.732   7.177  0.0008 -1.5278 -0.5498
 6402TIP3   OH240840   3.753   4.609   2.525  0.1142 -0.3301 -0.2345
 6402TIP3    H140841   3.789   4.652   2.448 -1.6976  0.4349 -0.6988
 6402TIP3    H240842   3.663   4.640   2.531  0.4314  0.3520  2.7294
 6403TIP3   OH240843   1.331   0.816   8.363 -0.5001 -0.0845 -0.2658
 6403TIP3    H140844   1.400   0.880   8.344  1.1392 -1.8796 -0.6448
 6403TIP3    H240845   1.251   0.857   8.331  0.2322  2.3398  0.7237
 6404TIP3   OH240846   3.404   5.106   8.378  0.7320  0.7480  0.1611
 6404TIP3    H140847   3.471   5.092   8.445 -0.0970 -1.7982  0.5916
 6404TIP3    H240848   3.437   5.060   8.301 -0.0618  0.2328  0.1060
 6405TIP3   OH240849   1.076   0.507   6.917  0.6992 -0.1319  0.0567
 6405TIP3    H140850   1.062   0.475   6.828 -2.5205  0.9521  0.0480
 6405TIP3    H240851   1.167   0.536   6.918  2.1634 -4.0675 -1.5154
 6406TIP3   OH240852   4.848   2.998   0.270 -0.1109  0.0276 -0.0010
 6406TIP3    H140853   4.905   2.949   0.211 -0.8734 -0.3564 -0.4379
 6406TIP3    H240854   4.858   3.089   0.243 -1.0394 -0.2181 -1.2710
 6407TIP3   OH240855   3.772   0.129   7.457 -0.7093 -0.3209 -0.0625
 6407TIP3    H140856   3.790   0.045   7.499  0.1996 -0.5681 -0.8988
 6407TIP3    H240857   3.838   0.188   7.493  0.6441 -0.7510 -1.7306
 6408TIP3   OH240858   0.948   3.622   0.512 -0.2335  0.3735 -0.1876
 6408TIP3    H140859   1.032   3.654   0.480  0.5578 -0.8368  0.5442
 6408TIP3    H240860   0.939   3.662   0.599 -0.3416  0.3972 -0.2104
 6409TIP3   OH240861   3.633   5.939   0.923 -0.1823 -0.9774 -0.3796
 6409TIP3    H140862   3.703   5.945   0.857  0.1918  3.1264  0.1532
 6409TIP3    H240863   3.556   5.975   0.880 -0.5233 -0.3771  0.6915
 6410TIP3   OH240864   2.360   4.136   1.459 -0.5446 -0.7825 -0.6273
 6410TIP3    H140865   2.292   4.108   1.398 -0.0652 -2.3002 -0.5096
 6410TIP3    H240866   2.430   4.171   1.403  0.0834 -2.5701 -1.0532
 6411TIP3   OH240867   5.066   6.485   6.449 -0.0017 -0.1203  0.1930
 6411TIP3    H140868   5.133   6.423   6.479  0.3720  0.2424  0.1227
 6411TIP3    H240869   5.024   6.442   6.375 -1.6483 -1.4953  1.8198
 6412TIP3   OH240870   3.438   0.369   7.105  0.2214  0.3652 -0.1684
 6412TIP3    H140871   3.371   0.322   7.155  0.2659  0.6095  0.1290
 6412TIP3    H240872   3.413   0.461   7.112 -0.5191  0.3067 -1.7306
 6413TIP3   OH240873   6.488   4.662   2.125 -0.2874  0.8059  0.1050
 6413TIP3    H140874   6.518   4.594   2.064 -0.3753  0.1887  0.7345
 6413TIP3    H240875   6.566   4.683   2.177 -0.4761  0.5694  0.4823
 6414TIP3   OH240876   2.573   3.034   1.829 -0.3634  0.6738 -0.3930
 6414TIP3    H140877   2.520   2.957   1.847  0.7703  0.2886  1.6537
 6414TIP3    H240878   2.528   3.106   1.874  0.2879  0.5399  0.4950
 6415TIP3   OH240879   5.722   5.439   7.652 -0.0225 -0.5334 -0.0134
 6415TIP3    H140880   5.683   5.526   7.660  0.5564 -0.1276 -1.2451
 6415TIP3    H240881   5.724   5.422   7.557  0.9844 -1.3658  0.1320
 6416TIP3   OH240882   0.478   4.964   1.406  0.1191  0.0459 -0.0311
 6416TIP3    H140883   0.522   5.043   1.373  1.0265 -0.3925  0.0994
 6416TIP3    H240884   0.501   4.896   1.342 -0.1014 -0.2635  0.2179
 6417TIP3   OH240885   6.556   4.416   1.285 -0.3636 -0.5777 -0.7248
 6417TIP3    H140886   6.565   4.331   1.242  1.0633 -2.0977  2.3100
 6417TIP3    H240887   6.477   4.454   1.246  0.6317 -1.8265 -4.3996
 6418TIP3   OH240888   3.688   0.531   0.716  0.9219 -0.2318  0.7317
 6418TIP3    H140889   3.678   0.518   0.810  1.1270  1.0332  0.9583
 6418TIP3    H240890   3.768   0.584   0.708  1.4827 -1.1739 -0.2379
 6419TIP3   OH240891   1.687   3.964   8.252  0.5730  0.4478 -0.0449
 6419TIP3    H140892   1.775   3.976   8.289  1.6900 -1.2719 -1.9283
 6419TIP3    H240893   1.648   3.896   8.305  0.1872  1.4833  1.0412
 6420TIP3   OH240894   5.882   2.727   8.163  0.0693 -0.2457 -0.3008
 6420TIP3    H140895   5.959   2.783   8.169 -1.0183  1.6142 -2.1369
 6420TIP3    H240896   5.910   2.653   8.109  1.1389 -0.7495  0.9146
 6421TIP3   OH240897   1.663   5.537   0.213  0.7556 -0.0896 -0.5942
 6421TIP3    H140898   1.567   5.536   0.206  0.7509  1.5909 -1.2080
 6421TIP3    H240899   1.679   5.580   0.298  0.9883 -2.2309  0.5096
 6422TIP3   OH240900   3.913   1.803   8.430  0.2090  0.0474  0.6271
 6422TIP3    H140901   3.890   1.714   8.402  0.4358  0.0285  0.5025
 6422TIP3    H240902   3.830   1.851   8.424  0.7802  0.9006 -3.3157
 6423TIP3   OH240903   2.419   2.363   7.484  0.0579  0.2475  0.0525
 6423TIP3    H140904   2.370   2.443   7.503  1.4160  0.5891  2.6567
 6423TIP3    H240905   2.502   2.394   7.447  0.9964  0.2243  1.9780
 6424TIP3   OH240906   0.453   4.287   7.206  0.0214  0.4192 -0.1946
 6424TIP3    H140907   0.439   4.359   7.267  1.2193  0.4349  0.0958
 6424TIP3    H240908   0.426   4.322   7.121 -2.8894 -0.0268  0.4484
 6425TIP3   OH240909   0.615   2.044   8.397  0.1964  0.3664  0.1529
 6425TIP3    H140910   0.567   1.989   8.460 -0.6501 -0.5022 -1.1950
 6425TIP3    H240911   0.667   1.982   8.346  0.1624  0.9577 -0.6070
 6426TIP3   OH240912   6.517   4.524   7.731  0.1658  0.1027 -0.6874
 6426TIP3    H140913   6.594   4.539   7.676  1.6217  0.8297  1.4127
 6426TIP3    H240914   6.510   4.604   7.784  0.6975 -1.6737  2.2498
 6427TIP3   OH240915   5.880   0.177   7.965 -0.3855  0.4759  0.1358
 6427TIP3    H140916   5.925   0.250   7.923  3.1329 -1.2687  0.5449
 6427TIP3    H240917   5.883   0.106   7.900 -0.5843 -0.3388  0.9890
 6428TIP3   OH240918   2.896   1.500   0.505  0.1263 -0.0566 -0.5400
 6428TIP3    H140919   2.813   1.532   0.542  0.3869  0.6785 -0.5680
 6428TIP3    H240920   2.875   1.414   0.471 -0.6762  0.1925 -0.7009
 6429TIP3   OH240921   5.231   5.646   1.400 -0.1223  0.1616 -0.1106
 6429TIP3    H140922   5.295   5.655   1.329  0.1022  0.2125  0.0987
 6429TIP3    H240923   5.149   5.673   1.361 -0.4164 -1.7986 -0.9995
 6430TIP3   OH240924   1.689   5.822   0.448 -0.2254 -0.1703 -0.3525
 6430TIP3    H140925   1.625   5.760   0.482 -0.1568 -0.3739 -0.5911
 6430TIP3    H240926   1.729   5.861   0.526  1.3809 -2.1072 -0.1319
 6431TIP3   OH240927   5.369   5.177   7.429  0.3948  0.0004 -0.4122
 6431TIP3    H140928   5.445   5.173   7.371  0.1153 -2.7876 -0.7236
 6431TIP3    H240929   5.392   5.121   7.503 -0.5061  0.9414  0.6210
 6432TIP3   OH240930   0.375   2.129   0.555  0.7436 -0.4469 -0.3619
 6432TIP3    H140931   0.456   2.097   0.514  1.9817  0.7991  1.0168
 6432TIP3    H240932   0.351   2.206   0.504  1.0053 -0.2184 -0.1395
 6433TIP3   OH240933   4.391   6.183   6.876  0.1258 -0.0731 -0.1121
 6433TIP3    H140934   4.367   6.238   6.801 -1.1400 -0.0435  0.2915
 6433TIP3    H240935   4.430   6.243   6.939 -0.6068  0.2550  0.0401
 6434TIP3   OH240936   4.268   0.907   1.333  0.0377  0.5452 -0.8300
 6434TIP3    H140937   4.309   0.989   1.304 -0.8772 -0.0027 -4.1545
 6434TIP3    H240938   4.318   0.839   1.288 -0.1539 -0.6487  0.7084
 6435TIP3   OH240939   5.847   0.038   1.413  0.4962  0.4248  0.2347
 6435TIP3    H140940   5.940   0.063   1.412  0.5322  0.3729  1.2756
 6435TIP3    H240941   5.844  -0.046   1.367  0.9953  0.3491  0.3336
 6436TIP3   OH240942   4.745   1.100   7.077 -0.0864  0.6155  0.2857
 6436TIP3    H140943   4.712   1.167   7.018  1.4228  0.3324 -0.9678
 6436TIP3    H240944   4.669   1.047   7.100 -0.7930  1.0525 -1.0023
 6437TIP3   OH240945   0.579   0.837   6.940 -0.0988  0.3263 -0.6920
 6437TIP3    H140946   0.609   0.929   6.940 -1.2773  0.7336  0.5066
 6437TIP3    H240947   0.648   0.790   6.893  0.9357  1.6972 -0.6173
 6438TIP3   OH240948   3.181   0.082   0.706 -0.2138 -0.7654 -0.4247
 6438TIP3    H140949   3.271   0.081   0.675  0.2826 -0.8130  0.9436
 6438TIP3    H240950   3.138   0.148   0.652  0.8470 -0.1777 -0.5818
 6439TIP3   OH240951   6.153   6.808   0.056 -0.5459  0.0911 -0.5307
 6439TIP3    H140952   6.198   6.781  -0.024  0.9669  2.0668 -0.4264
 6439TIP3    H240953   6.175   6.901   0.066 -1.8195  0.2446  1.4548
 6440TIP3   OH240954   4.826   3.029   7.112 -0.2431  0.2212  0.9057
 6440TIP3    H140955   4.818   3.109   7.163  0.3956  1.5688 -0.9978
 6440TIP3    H240956   4.905   3.042   7.059 -0.8410 -1.1090 -0.3828
 6441TIP3   OH240957   3.124   6.057   7.859 -0.0484 -0.0254 -0.1467
 6441TIP3    H140958   3.134   6.040   7.765  1.3448 -2.3159  0.3281
 6441TIP3    H240959   3.212   6.084   7.887 -0.5538  1.0444  0.4492
 6442TIP3   OH240960   1.130   6.661   0.815 -0.1624  0.1290 -0.4667
 6442TIP3    H140961   1.104   6.753   0.810  0.9807  0.3917 -2.8008
 6442TIP3    H240962   1.219   6.663   0.849 -0.8211 -0.3304  1.4500
 6443TIP3   OH240963   4.979   0.806   8.480 -0.1640  0.1635  0.3786
 6443TIP3    H140964   4.983   0.712   8.500  1.0379  0.3607  1.1387
 6443TIP3    H240965   4.885   0.825   8.473 -0.4418 -0.9759  0.7889
 6444TIP3   OH240966   0.321   3.850   1.837  0.1911  0.1816 -0.4215
 6444TIP3    H140967   0.294   3.935   1.803 -0.0096 -0.4141 -1.8068
 6444TIP3    H240968   0.245   3.819   1.886 -0.1324  0.3224 -0.8262
 6445TIP3   OH240969   5.369   6.120   0.047 -0.2059  0.8601 -0.4593
 6445TIP3    H140970   5.293   6.147   0.098  0.2326  0.5806  0.3545
 6445TIP3    H240971   5.440   6.175   0.078  0.4088 -0.3224  0.3237
 6446TIP3   OH240972   6.271   3.204   7.140 -0.0936  0.1481  0.5989
 6446TIP3    H140973   6.338   3.271   7.155  0.3170 -0.2274  0.4443
 6446TIP3    H240974   6.200   3.251   7.095  0.2284  0.4591  0.4141
 6447TIP3   OH240975   4.076   6.258   7.136 -0.1745 -0.3610  0.1171
 6447TIP3    H140976   4.063   6.347   7.169  1.4507 -0.0750  0.0776
 6447TIP3    H240977   3.995   6.237   7.089 -0.9116  0.7616  0.8505
 6448TIP3   OH240978   0.148   6.798   0.755 -0.6191 -0.2104 -0.2333
 6448TIP3    H140979   0.090   6.860   0.798  0.0756  1.9797 -2.2191
 6448TIP3    H240980   0.090   6.745   0.701 -1.0496 -0.0235  0.0424
 6449TIP3   OH240981   5.024   2.898   8.419 -0.7451  0.0728 -0.3505
 6449TIP3    H140982   5.060   2.813   8.445 -1.1735  0.1186  0.4344
 6449TIP3    H240983   4.929   2.886   8.421 -0.8349  0.7776  0.5503
 6450TIP3   OH240984   2.265   2.606   0.227 -0.1354  0.1924  0.2582
 6450TIP3    H140985   2.254   2.519   0.265 -1.7891 -0.2176 -1.0281
 6450TIP3    H240986   2.233   2.597   0.137 -1.0684  2.2787  0.3158
 6451TIP3   OH240987   0.770   5.736   8.579  0.5772  0.3486 -0.5669
 6451TIP3    H140988   0.779   5.809   8.641  2.0451 -0.3076  0.0586
 6451TIP3    H240989   0.685   5.749   8.538 -0.6990  0.5560  1.9659
 6452TIP3   OH240990   5.214   2.326   1.356  0.2866 -0.1729 -0.1015
 6452TIP3    H140991   5.178   2.346   1.442  1.7954  2.0277  0.1160
 6452TIP3    H240992   5.145   2.352   1.295  0.2783  1.0241  0.3875
 6453TIP3   OH240993   2.827   1.876   1.202 -0.3569  0.3321  0.3296
 6453TIP3    H140994   2.767   1.908   1.135 -0.5628  0.7198  0.6923
 6453TIP3    H240995   2.805   1.927   1.280  0.0220  0.0361  0.6347
 6454TIP3   OH240996   3.273   0.776   8.606  0.0294  0.1584  0.5549
 6454TIP3    H140997   3.234   0.745   8.688 -0.1251 -1.1720  0.0140
 6454TIP3    H240998   3.361   0.738   8.606  0.1059  0.3351  0.2141
 6455TIP3   OH240999   5.862   2.887   1.284  0.6213 -0.0513 -0.6459
 6455TIP3    H141000   5.853   2.983   1.282  0.3803 -0.0547 -0.1639
 6455TIP3    H241001   5.812   2.857   1.209  1.0806  0.2251 -1.0653
 6456TIP3   OH241002   4.735   2.441   2.118 -0.1793  0.3908 -0.2266
 6456TIP3    H141003   4.663   2.469   2.061  0.8990  0.3012 -1.6892
 6456TIP3    H241004   4.764   2.521   2.162 -0.8653  0.5069  0.0205
 6457TIP3   OH241005   1.956   4.037   8.296 -0.2749 -0.2506  0.0678
 6457TIP3    H141006   1.946   4.086   8.378 -0.5087 -1.3056  0.6922
 6457TIP3    H241007   2.045   4.001   8.300 -0.0802  0.1640 -0.4168
 6458TIP3   OH241008   5.039   6.352   1.117  0.1810 -0.1589  0.3071
 6458TIP3    H141009   4.991   6.303   1.184 -0.4036  0.9002  0.6706
 6458TIP3    H241010   4.972   6.399   1.068  0.8144  1.0186  0.5552
 6459TIP3   OH241011   5.948   5.131   2.033  0.2663  0.0543  0.7593
 6459TIP3    H141012   5.930   5.187   2.109  0.2239  1.0538  0.0261
 6459TIP3    H241013   5.884   5.060   2.040  1.0601 -0.5635  2.3292
 6460TIP3   OH241014   3.449   5.526   1.522 -0.5851 -0.1860 -0.4058
 6460TIP3    H141015   3.387   5.501   1.591  0.3676 -1.1965  0.1160
 6460TIP3    H241016   3.532   5.538   1.568 -0.0893 -0.1601 -1.2829
 6461TIP3   OH241017   4.754   5.717   1.702  0.7375  0.3031  0.0845
 6461TIP3    H141018   4.710   5.759   1.628 -0.9166 -2.3211 -0.5415
 6461TIP3    H241019   4.683   5.673   1.750  2.2694 -1.3099  0.9794
 6462TIP3   OH241020   1.632   2.198   8.321  0.3331 -0.5276  0.1758
 6462TIP3    H141021   1.684   2.121   8.344  0.6678 -0.6606 -0.9427
 6462TIP3    H241022   1.654   2.263   8.387  1.6005 -0.7292 -0.0210
 6463TIP3   OH241023   5.287   0.167   8.572 -0.0433  0.0416 -0.3525
 6463TIP3    H141024   5.269   0.203   8.659 -0.3412 -0.0153 -0.3900
 6463TIP3    H241025   5.362   0.218   8.540 -0.5982  0.7824 -0.4938
 6464TIP3   OH241026   2.397   6.183   7.582  0.3528 -0.8109  0.2729
 6464TIP3    H141027   2.315   6.174   7.630  0.7673  0.9048  1.4129
 6464TIP3    H241028   2.393   6.272   7.545  0.4755 -1.7296 -2.1241
 6465TIP3   OH241029   6.792   2.811   0.647 -0.0549 -0.5193 -0.6722
 6465TIP3    H141030   6.867   2.755   0.667  0.1709  0.8154  2.9198
 6465TIP3    H241031   6.798   2.827   0.553  3.7085 -1.0646 -0.6607
 6466TIP3   OH241032   2.899   5.550   6.922  0.1445  0.1512  0.2450
 6466TIP3    H141033   2.878   5.530   6.831 -0.3953 -1.7438  0.7293
 6466TIP3    H241034   2.938   5.469   6.956  1.3753  1.1837  1.4045
 6467TIP3   OH241035   0.102   5.166   1.738  0.4235 -0.0627  0.6765
 6467TIP3    H141036   0.139   5.170   1.826  1.7534 -0.8427  0.1804
 6467TIP3    H241037   0.178   5.158   1.680 -0.4518 -0.1075 -0.5149
 6468TIP3   OH241038   4.258   0.060   1.222  0.1528  0.1697 -0.3883
 6468TIP3    H141039   4.218  -0.002   1.161 -0.4337 -0.3157  0.4708
 6468TIP3    H241040   4.313   0.116   1.167 -0.5800 -0.0775 -1.3955
 6469TIP3   OH241041   1.223   2.330   7.469  0.1952 -0.1555 -0.2043
 6469TIP3    H141042   1.137   2.302   7.435  0.0863  1.7375 -1.7038
 6469TIP3    H241043   1.233   2.419   7.435  3.1646 -0.6397 -0.8103
 6470TIP3   OH241044   4.318   0.180   7.093  0.0967  0.1372  0.4033
 6470TIP3    H141045   4.328   0.131   7.175  0.8483 -1.1312 -0.4072
 6470TIP3    H241046   4.223   0.192   7.084  0.0436  0.8658  1.7661
 6471TIP3   OH241047   1.801   2.187   1.342  0.4623  0.2036  0.5894
 6471TIP3    H141048   1.889   2.155   1.360 -0.0551 -1.0172  1.0640
 6471TIP3    H241049   1.752   2.109   1.316 -0.4468  0.8900  0.1730
 6472TIP3   OH241050   5.769   1.166   1.289 -0.0165 -0.4574  0.4145
 6472TIP3    H141051   5.773   1.209   1.374 -1.3339 -1.6227  1.1122
 6472TIP3    H241052   5.678   1.179   1.260 -0.1356 -1.7656  0.1265
 6473TIP3   OH241053   3.452   0.856   0.281  0.4250  0.1816 -0.0545
 6473TIP3    H141054   3.531   0.814   0.247  0.5878  1.4746 -1.3859
 6473TIP3    H241055   3.473   0.880   0.371  0.6435 -1.7100  0.4302
 6474TIP3   OH241056   6.003   4.350   0.002 -0.6890  0.0778 -0.4465
 6474TIP3    H141057   6.082   4.400   0.022 -0.9698  1.0855 -1.7555
 6474TIP3    H241058   6.034   4.270  -0.040 -0.2963 -0.3872  0.6829
 6475TIP3   OH241059   3.015   4.004   0.748  0.9100 -0.4162 -0.8718
 6475TIP3    H141060   2.926   3.974   0.766  0.5361  1.2319  0.3071
 6475TIP3    H241061   3.068   3.924   0.746 -0.2407 -1.2789  0.7190
 6476TIP3   OH241062   5.560   5.905   6.865  0.3930 -0.6342 -0.3559
 6476TIP3    H141063   5.632   5.926   6.806 -0.0038 -1.0484 -1.0124
 6476TIP3    H241064   5.525   5.822   6.831 -2.3260  1.0378 -1.9430
 6477TIP3   OH241065   2.564   5.553   8.562 -0.3911  0.0438  0.0263
 6477TIP3    H141066   2.592   5.464   8.541  0.4920  0.4506 -0.5951
 6477TIP3    H241067   2.472   5.557   8.534 -0.9379 -1.1437  1.5566
 6478TIP3   OH241068   2.152   4.732   2.083 -0.0499  0.1683 -0.0856
 6478TIP3    H141069   2.248   4.734   2.079  0.0084 -0.2835  0.7978
 6478TIP3    H241070   2.129   4.818   2.119  0.0144  0.3334 -0.4364
 6479TIP3   OH241071   4.719   2.669   0.705 -0.1895  0.2949 -0.1121
 6479TIP3    H141072   4.716   2.673   0.801 -1.6753  0.9278 -0.1593
 6479TIP3    H241073   4.636   2.708   0.677  0.3222  0.3265 -1.6676
 6480TIP3   OH241074   3.871   5.084   0.510  0.2115 -0.2835 -0.2003
 6480TIP3    H141075   3.957   5.126   0.504  1.7395 -2.9189  1.1444
 6480TIP3    H241076   3.831   5.124   0.587  0.5610  0.4050 -0.3650
 6481TIP3   OH241077   0.587   4.109   7.790 -0.1835  0.1455  0.0185
 6481TIP3    H141078   0.553   4.141   7.706 -1.4896 -2.2889 -0.4849
 6481TIP3    H241079   0.556   4.173   7.854 -0.0003  1.5318 -1.2206
 6482TIP3   OH241080   2.131   0.599   2.083  0.4082 -0.0952 -0.4325
 6482TIP3    H141081   2.147   0.524   2.141  2.3994  0.7776  0.2608
 6482TIP3    H241082   2.079   0.659   2.136  0.0533 -0.3702 -0.4656
 6483TIP3   OH241083   0.338   5.963   0.691  0.1654 -0.3036 -0.0093
 6483TIP3    H141084   0.389   5.949   0.771 -0.6786 -1.9577  0.2937
 6483TIP3    H241085   0.255   6.000   0.722  0.5931  0.9656 -0.3448
 6484TIP3   OH241086   0.746   1.937   8.148 -0.0130 -0.0239 -0.3864
 6484TIP3    H141087   0.797   2.014   8.124  0.7594 -0.1142  0.8861
 6484TIP3    H241088   0.691   1.920   8.071 -0.6458  2.1342 -0.4846
 6485TIP3   OH241089   1.006   6.455   8.873  0.0399  0.3152  0.8102
 6485TIP3    H141090   0.994   6.462   8.778 -0.4381 -2.0372  0.6328
 6485TIP3    H241091   1.038   6.541   8.900  0.0627  1.0733 -1.4561
 6486TIP3   OH241092   2.756   0.650   1.213 -0.2683  0.3737  0.1101
 6486TIP3    H141093   2.696   0.720   1.188 -1.8152  0.0281  2.5788
 6486TIP3    H241094   2.700   0.577   1.238  1.2771 -2.0873 -2.8440
 6487TIP3   OH241095   0.360   1.272   1.970  0.1133 -0.1084 -0.2115
 6487TIP3    H141096   0.455   1.283   1.966  0.1340 -0.5511 -1.2670
 6487TIP3    H241097   0.341   1.200   1.909 -0.9010  0.0005 -0.0501
 6488TIP3   OH241098   5.142   0.256   6.453 -0.3591 -0.0522  0.3312
 6488TIP3    H141099   5.206   0.326   6.442 -0.6774  0.2978  0.6699
 6488TIP3    H241100   5.108   0.268   6.542 -1.9915  0.7066 -0.3562
 6489TIP3   OH241101   3.462   0.027   8.242  1.0794 -0.0932 -0.2605
 6489TIP3    H141102   3.404  -0.011   8.177 -0.1512  0.0095  0.7288
 6489TIP3    H241103   3.511  -0.047   8.277  0.5895 -0.3960 -0.1986
 6490TIP3   OH241104   2.339   3.206   8.011  0.4824  0.3614 -0.2520
 6490TIP3    H141105   2.317   3.123   8.052 -2.7937  0.5068 -1.3954
 6490TIP3    H241106   2.409   3.185   7.949  0.7918 -1.1827  0.5725
 6491TIP3   OH241107   0.684   4.223   7.522  0.2771  0.0898 -0.2085
 6491TIP3    H141108   0.732   4.198   7.443  0.9006 -2.9299  1.0027
 6491TIP3    H241109   0.752   4.249   7.584 -0.1248  1.2103 -0.2115
 6492TIP3   OH241110   3.741   2.732   1.220  0.0341  0.2628  0.1620
 6492TIP3    H141111   3.818   2.790   1.222  0.1767  0.0597  1.0606
 6492TIP3    H241112   3.668   2.790   1.244 -0.1042  0.4667 -0.7418
 6493TIP3   OH241113   1.362   5.711   7.366 -0.1137 -0.3755  0.3361
 6493TIP3    H141114   1.414   5.769   7.421 -0.3390  0.4693 -0.3294
 6493TIP3    H241115   1.404   5.714   7.280 -0.0211 -1.3472  0.3350
 6494TIP3   OH241116   0.579   2.509   7.751  0.0327 -0.3086  0.2021
 6494TIP3    H141117   0.547   2.420   7.768  0.2111 -0.6295 -1.0343
 6494TIP3    H241118   0.572   2.519   7.656 -1.4293  1.5579  0.4572
 6495TIP3   OH241119   4.905   5.554   0.167  0.6126  0.2342  0.3953
 6495TIP3    H141120   4.927   5.588   0.080  1.8260  1.8597  1.2848
 6495TIP3    H241121   4.819   5.591   0.186  0.1725 -0.4292 -0.2354
 6496TIP3   OH241122   4.820   0.776   7.589  0.6397  0.5373  0.1724
 6496TIP3    H141123   4.774   0.859   7.596 -1.6445 -0.6988  0.6265
 6496TIP3    H241124   4.877   0.786   7.512  0.6244  2.5680  0.3758
 6497TIP3   OH241125   0.724   0.356   7.959  0.2770  0.4178 -0.3167
 6497TIP3    H141126   0.666   0.319   7.892  1.7080 -0.2903 -1.2190
 6497TIP3    H241127   0.715   0.297   8.034  0.1668  0.0794 -0.5960
 6498TIP3   OH241128   6.716   4.022   0.756  0.1129 -0.4580  0.0090
 6498TIP3    H141129   6.697   4.115   0.767  0.4727 -0.1364 -1.6924
 6498TIP3    H241130   6.723   3.987   0.845  1.9625  1.5515  0.7349
 6499TIP3   OH241131   0.698   6.155   0.858 -0.5432  0.1884 -0.4339
 6499TIP3    H141132   0.616   6.110   0.881 -0.0029 -0.5301  0.1303
 6499TIP3    H241133   0.680   6.247   0.878 -1.2535  0.0592 -0.4243
 6500TIP3   OH241134   2.119   5.035   7.982 -0.8443 -0.4627 -0.2105
 6500TIP3    H141135   2.077   5.074   7.905 -0.6916 -1.6996 -0.9334
 6500TIP3    H241136   2.076   4.950   7.992  0.3549 -1.0603  0.0134
 6501TIP3   OH241137   2.089   5.189   7.744 -0.7456 -0.2151 -0.8314
 6501TIP3    H141138   2.066   5.280   7.764 -0.5455 -0.2287 -0.5423
 6501TIP3    H241139   2.176   5.195   7.704 -1.2947 -0.1480 -2.0619
 6502TIP3   OH241140   0.014   1.908   8.083  0.0546  0.3238  0.1029
 6502TIP3    H141141  -0.037   1.988   8.074 -0.2066  0.1847  0.3366
 6502TIP3    H241142   0.105   1.939   8.091 -0.1333  0.6564  1.1610
 6503TIP3   OH241143   6.650   5.547   1.061  0.2590  0.3779 -0.1243
 6503TIP3    H141144   6.684   5.551   0.972  0.5813 -0.4670 -0.0502
 6503TIP3    H241145   6.710   5.487   1.107 -0.3266  0.2336  0.4665
 6504TIP3   OH241146   3.396   4.286   2.218 -0.2401  0.1320  0.0978
 6504TIP3    H141147   3.309   4.246   2.226 -0.6997  1.2414  1.0755
 6504TIP3    H241148   3.395   4.329   2.133 -0.2021 -0.8495 -0.4109
 6505TIP3   OH241149   1.065   6.604   1.949 -0.4073 -0.1500 -0.4931
 6505TIP3    H141150   1.132   6.632   2.011 -1.9662  1.0476  0.7383
 6505TIP3    H241151   0.986   6.652   1.976 -0.7121  2.1309 -4.6793
 6506TIP3   OH241152   3.537   2.235   0.542 -0.1372 -0.0443  0.2281
 6506TIP3    H141153   3.627   2.203   0.539 -0.8663 -2.2321  0.0592
 6506TIP3    H241154   3.526   2.269   0.630  0.9891  0.7182  0.0920
 6507TIP3   OH241155   2.371   4.343   7.677 -0.4838 -0.0125  0.3360
 6507TIP3    H141156   2.440   4.297   7.726 -1.2008 -0.2450  1.1436
 6507TIP3    H241157   2.395   4.435   7.684 -1.0803  0.0543  1.9805
 6508TIP3   OH241158   6.411   3.463   0.598 -0.6254 -0.2335  0.0385
 6508TIP3    H141159   6.412   3.374   0.563  1.6406 -0.1851 -0.1284
 6508TIP3    H241160   6.503   3.484   0.615 -1.0887  2.1179 -0.0096
 6509TIP3   OH241161   3.569   6.025   8.214 -0.0524 -0.3726 -0.2567
 6509TIP3    H141162   3.639   5.998   8.274  0.8412 -0.0034 -1.0926
 6509TIP3    H241163   3.616   6.066   8.141 -1.2146  0.8997 -0.3192
 6510TIP3   OH241164   2.714   3.733   6.853  0.1134  0.2979 -0.0518
 6510TIP3    H141165   2.658   3.661   6.880  1.7977 -1.2089 -0.3660
 6510TIP3    H241166   2.702   3.738   6.758  1.3868 -0.8690 -0.3036
 6511TIP3   OH241167   3.298   2.673   1.199  0.0575  0.2804  0.6080
 6511TIP3    H141168   3.363   2.739   1.224 -0.2227  1.0256 -0.5427
 6511TIP3    H241169   3.261   2.643   1.283  0.9511  0.7954  1.2033
 6512TIP3   OH241170   6.633   3.663   7.433 -0.7268 -0.0010 -0.5109
 6512TIP3    H141171   6.597   3.599   7.494 -0.1164 -0.1756 -0.3239
 6512TIP3    H241172   6.693   3.612   7.378 -0.2258  0.4012 -0.3479
 6513TIP3   OH241173   2.715   4.298   8.696 -0.6153 -0.3304 -0.2786
 6513TIP3    H141174   2.653   4.341   8.755 -1.4238 -1.9917  0.1464
 6513TIP3    H241175   2.794   4.352   8.700 -1.0263  0.1890  1.4918
 6514TIP3   OH241176   0.853   4.842   6.418 -0.0779 -0.8010  0.3354
 6514TIP3    H141177   0.948   4.832   6.419 -0.1723 -2.4470 -1.5374
 6514TIP3    H241178   0.820   4.755   6.397 -2.0298 -0.2975  1.1210
 6515TIP3   OH241179   1.359   5.042   1.655 -0.0620 -0.1153 -0.9373
 6515TIP3    H141180   1.443   4.997   1.661 -0.4609 -0.7183  0.3131
 6515TIP3    H241181   1.293   4.972   1.657 -0.6306  0.4149 -0.7836
 6516TIP3   OH241182   3.162   1.934   7.440 -0.1998 -0.7471 -0.8133
 6516TIP3    H141183   3.242   1.965   7.481 -0.2163 -1.0073 -0.5741
 6516TIP3    H241184   3.191   1.886   7.363 -0.1597 -0.3698 -1.0335
 6517TIP3   OH241185   4.861   1.955   8.355 -0.7898 -0.0818 -0.4150
 6517TIP3    H141186   4.889   2.009   8.281  1.6440  0.7313  0.9691
 6517TIP3    H241187   4.928   1.887   8.362  1.6329  2.2827  3.4183
 6518TIP3   OH241188   2.315   2.390   0.394 -0.5052  0.2209 -0.3485
 6518TIP3    H141189   2.272   2.308   0.373  0.1466 -0.2248  0.0199
 6518TIP3    H241190   2.406   2.378   0.365 -0.1453  0.4106  0.6561
 6519TIP3   OH241191   4.426   0.878   2.124 -0.0536 -0.3851 -0.0571
 6519TIP3    H141192   4.352   0.906   2.071  0.1505  0.5038  0.1125
 6519TIP3    H241193   4.452   0.957   2.173  1.2683 -0.5668 -0.4431
 6520TIP3   OH241194   1.863   6.640   1.555 -0.0425 -0.3529 -0.1625
 6520TIP3    H141195   1.906   6.628   1.640  0.7827  0.8166 -0.3762
 6520TIP3    H241196   1.904   6.719   1.520 -2.4562  0.9193 -0.3478
 6521TIP3   OH241197   1.681   6.467   2.091  0.4610  0.2025  0.0196
 6521TIP3    H141198   1.710   6.411   2.018  0.3897 -0.6858  0.6502
 6521TIP3    H241199   1.586   6.456   2.092  0.4349  0.4323  0.0755
 6522TIP3   OH241200   4.874   5.180   1.084  0.3062 -0.6688 -0.4317
 6522TIP3    H141201   4.967   5.185   1.106  0.1445 -0.8195  0.2917
 6522TIP3    H241202   4.854   5.087   1.085  0.1126 -0.6277 -0.4307
 6523TIP3   OH241203   2.178   4.730   6.818  0.4263 -0.3617  0.4274
 6523TIP3    H141204   2.219   4.646   6.838 -0.4909 -1.1229 -0.7718
 6523TIP3    H241205   2.249   4.785   6.787  1.0198 -0.7170  1.1249
 6524TIP3   OH241206   3.558   0.893   6.978  0.3674 -0.0227 -0.5109
 6524TIP3    H141207   3.513   0.971   7.010  1.3726  0.9263 -1.3104
 6524TIP3    H241208   3.543   0.827   7.046 -3.2634 -0.2134 -1.3045
 6525TIP3   OH241209   4.132   6.443   1.139 -0.2400  0.4763 -0.0431
 6525TIP3    H141210   4.110   6.413   1.051 -0.7217  1.2167 -0.1905
 6525TIP3    H241211   4.202   6.385   1.168  1.1470  1.2759 -1.5876
 6526TIP3   OH241212   2.525   4.421   2.266  0.2622  0.2424  0.1152
 6526TIP3    H141213   2.542   4.328   2.255  0.9535  0.3460  0.2116
 6526TIP3    H241214   2.465   4.427   2.340  0.9096 -0.0816  0.6768
 6527TIP3   OH241215   2.903   0.741   6.835  0.3833 -0.6491  0.0837
 6527TIP3    H141216   2.903   0.681   6.761 -0.4937 -1.4627  0.7040
 6527TIP3    H241217   2.810   0.747   6.860 -0.0068  3.1607 -1.6408
 6528TIP3   OH241218   1.967   2.202   0.717  0.0475  0.0309  0.4411
 6528TIP3    H141219   1.946   2.296   0.724  1.2783  0.3237  0.3914
 6528TIP3    H241220   1.903   2.159   0.774  0.0117  0.9849  1.1461
 6529TIP3   OH241221   0.777   3.367   8.016 -0.0218  0.0014  0.4643
 6529TIP3    H141222   0.843   3.356   7.947  0.4268 -0.1122  0.9019
 6529TIP3    H241223   0.772   3.462   8.028 -0.0032  0.0153  0.3688
 6530TIP3   OH241224   5.783   6.021   6.341 -0.2417  0.2203 -0.4269
 6530TIP3    H141225   5.812   5.938   6.377  0.2734  0.6589  0.1859
 6530TIP3    H241226   5.763   6.075   6.417  0.4025  0.9940 -0.7915
 6531TIP3   OH241227   0.847   6.190   0.013 -0.1892 -0.2137  0.0682
 6531TIP3    H141228   0.897   6.112  -0.011 -1.7082 -1.0991 -0.3977
 6531TIP3    H241229   0.901   6.264  -0.017  0.9001 -1.1067 -0.2439
 6532TIP3   OH241230   2.890   6.717   8.712 -0.3728  0.0913 -0.7376
 6532TIP3    H141231   2.869   6.677   8.627 -0.7382 -0.4154 -0.4166
 6532TIP3    H241232   2.834   6.794   8.716 -1.7667 -0.8980 -0.1703
 6533TIP3   OH241233   4.712   2.450   8.790  0.5968 -0.0247  0.5888
 6533TIP3    H141234   4.805   2.427   8.786  0.2549 -1.3659 -0.5446
 6533TIP3    H241235   4.688   2.467   8.699 -0.2831  0.2801  0.8661
 6534TIP3   OH241236   4.618   2.149   7.992 -0.0360  0.4580 -0.2598
 6534TIP3    H141237   4.586   2.141   7.902 -0.9061 -0.7022  0.1331
 6534TIP3    H241238   4.704   2.107   7.991 -0.9200 -1.4761 -0.1323
 6535TIP3   OH241239   5.833   0.714   1.482  0.2560  0.5792 -0.0122
 6535TIP3    H141240   5.873   0.801   1.483 -0.0041  0.7082 -0.5231
 6535TIP3    H241241   5.814   0.697   1.390  4.5028 -1.9650 -0.7001
 6536TIP3   OH241242   1.207   6.366   0.899 -0.7201 -0.0020 -0.1184
 6536TIP3    H141243   1.214   6.372   0.804  0.5458 -1.3733 -0.1486
 6536TIP3    H241244   1.181   6.454   0.927 -1.4753  0.3248 -1.7446
 6537TIP3   OH241245   6.285   1.941   8.531 -0.0462 -0.2324  0.9735
 6537TIP3    H141246   6.287   2.018   8.588 -0.5620 -0.5122  1.3736
 6537TIP3    H241247   6.328   1.872   8.581  0.6562 -0.1387  0.5097
 6538TIP3   OH241248   6.586   2.378   0.420 -0.2154 -0.3143 -0.2194
 6538TIP3    H141249   6.578   2.467   0.454 -2.0348 -0.4497 -0.1893
 6538TIP3    H241250   6.495   2.348   0.410  0.3628 -2.2176 -0.1019
 6539TIP3   OH241251   3.710   4.498   2.060  0.0571  0.0263  0.3754
 6539TIP3    H141252   3.673   4.410   2.062 -0.4959  0.2729  1.7396
 6539TIP3    H241253   3.746   4.506   1.971  1.4161 -2.0887  0.6559
 6540TIP3   OH241254   5.845   1.433   8.341  0.8619  0.0111  0.2365
 6540TIP3    H141255   5.839   1.400   8.431  0.3790  1.1647  0.6528
 6540TIP3    H241256   5.785   1.378   8.291 -0.9353  1.0210  1.1693
 6541TIP3   OH241257   2.603   3.272   2.167 -0.0567  0.3127 -0.7969
 6541TIP3    H141258   2.580   3.191   2.213 -1.4072  0.7417 -0.6851
 6541TIP3    H241259   2.679   3.305   2.215 -1.6995  1.0002  1.5338
 6542TIP3   OH241260   5.926   0.600   0.322  0.4991  0.7825  0.3079
 6542TIP3    H141261   5.978   0.651   0.385 -0.6203  1.8997  0.3735
 6542TIP3    H241262   5.903   0.520   0.370  0.3060  1.2716  1.0590
 6543TIP3   OH241263   0.488   0.063   0.095  0.0981 -0.1897  0.0872
 6543TIP3    H141264   0.546   0.015   0.036 -0.3368 -0.2460 -0.3008
 6543TIP3    H241265   0.545   0.093   0.166  0.5005 -0.6878 -0.0224
 6544TIP3   OH241266   2.488   2.259   1.418  0.7081  0.2371  0.1827
 6544TIP3    H141267   2.450   2.331   1.468 -1.1318 -0.3701 -0.2642
 6544TIP3    H241268   2.549   2.218   1.479  0.1999  0.8861  1.1592
 6545TIP3   OH241269   3.597   1.467   1.047  0.5891  0.4835  0.6268
 6545TIP3    H141270   3.612   1.417   0.966  0.6315  0.5375  0.6011
 6545TIP3    H241271   3.603   1.558   1.020 -0.6609  0.5324  0.4439
 6546TIP3   OH241272   5.421   1.815   6.626 -0.2203  0.0846 -0.0429
 6546TIP3    H141273   5.348   1.877   6.618 -1.6062 -1.6311 -1.4903
 6546TIP3    H241274   5.477   1.834   6.551  0.7829  1.2328  0.9324
 6547TIP3   OH241275   6.497   1.796   1.914  0.0903  0.3927  0.6116
 6547TIP3    H141276   6.494   1.892   1.918 -0.4824  0.4637 -0.7484
 6547TIP3    H241277   6.531   1.777   1.826  3.0123 -0.6821  1.8327
 6548TIP3   OH241278   5.228   5.449   8.184  0.3079  0.0339 -0.0435
 6548TIP3    H141279   5.203   5.513   8.118 -1.0377 -0.4021  0.0104
 6548TIP3    H241280   5.293   5.393   8.140 -0.2055  0.0523 -0.8350
 6549TIP3   OH241281   2.005   0.257   0.728  0.3905 -0.0819 -0.0292
 6549TIP3    H141282   2.025   0.288   0.816  1.3338 -0.0246 -0.2546
 6549TIP3    H241283   1.916   0.288   0.711  0.9274  1.6132  0.1379
 6550TIP3   OH241284   4.470   2.348   8.725 -0.2959  0.2618 -0.0171
 6550TIP3    H141285   4.548   2.358   8.779 -0.8859 -1.7685  1.3241
 6550TIP3    H241286   4.499   2.300   8.648  0.2259  1.7577 -0.8028
 6551TIP3   OH241287   2.597   0.951   6.872 -0.1466  0.0971  0.2909
 6551TIP3    H141288   2.570   0.919   6.958 -0.2221 -0.4747  0.0575
 6551TIP3    H241289   2.566   0.885   6.810 -0.4098  0.6831 -0.2147
 6552TIP3   OH241290   4.037   4.751   0.895  0.0562  0.7803  0.3374
 6552TIP3    H141291   4.018   4.788   0.982 -0.0722  0.1823  0.5709
 6552TIP3    H241292   3.954   4.754   0.849  0.2552  1.6319  0.0286
 6553TIP3   OH241293   4.371   1.524   0.814 -0.2652 -0.2161  0.3433
 6553TIP3    H141294   4.420   1.606   0.816 -1.2342  0.3844  1.8435
 6553TIP3    H241295   4.311   1.533   0.740  1.9510 -1.0640 -1.6581
 6554TIP3   OH241296   3.680   5.122   0.247 -0.5173 -0.1414  0.1046
 6554TIP3    H141297   3.642   5.146   0.163  0.5367 -0.6147 -0.5382
 6554TIP3    H241298   3.618   5.153   0.312 -1.1987  0.5232 -0.8411
 6555TIP3   OH241299   6.560   2.895   0.062  0.3604 -0.3884 -0.2131
 6555TIP3    H141300   6.467   2.895   0.037  0.3524 -0.4102 -0.1817
 6555TIP3    H241301   6.607   2.895  -0.022  0.3374  2.1371 -0.3033
 6556TIP3   OH241302   4.797   0.636   8.582 -0.1472 -0.1665 -0.3928
 6556TIP3    H141303   4.751   0.581   8.519  1.8650 -0.6080 -1.5680
 6556TIP3    H241304   4.747   0.626   8.663 -1.8458 -0.9126 -1.4694
 6557TIP3   OH241305   5.598   3.950   1.339  0.0585  0.2707  0.3008
 6557TIP3    H141306   5.646   4.032   1.333  0.9382 -0.3045 -1.1943
 6557TIP3    H241307   5.619   3.916   1.426  1.1077  0.7883  0.2622
 6558TIP3   OH241308   3.723   2.163   8.627 -0.0636 -0.3479  0.2975
 6558TIP3    H141309   3.648   2.107   8.647 -0.8491 -0.0236 -1.5860
 6558TIP3    H241310   3.691   2.252   8.642  0.0904 -0.2340 -0.0521
 6559TIP3   OH241311   0.928   3.350   0.572  0.0143 -0.3350 -0.1138
 6559TIP3    H141312   0.933   3.353   0.668  0.0033 -2.1208 -0.0393
 6559TIP3    H241313   0.937   3.442   0.546 -1.1495  0.3489  1.6434
 6560TIP3   OH241314   6.403   3.499   8.314 -0.0067 -0.3017 -0.0132
 6560TIP3    H141315   6.429   3.420   8.267 -1.3664  0.3460 -1.9728
 6560TIP3    H241316   6.447   3.570   8.267 -0.0397  0.2335  0.7564
 6561TIP3   OH241317   4.452   5.185   0.974 -0.4198  0.6499  0.2348
 6561TIP3    H141318   4.451   5.269   0.927  2.4823 -0.5288 -2.3119
 6561TIP3    H241319   4.485   5.123   0.910  0.5087 -1.8539  2.9370
 6562TIP3   OH241320   0.876   4.193   6.787 -0.5173 -0.5333 -0.1103
 6562TIP3    H141321   0.962   4.236   6.779 -1.0343  0.2716 -1.7407
 6562TIP3    H241322   0.888   4.109   6.743  0.2420 -1.7991  2.3161
 6563TIP3   OH241323   4.432   6.050   8.237 -0.1628 -0.5549  1.2118
 6563TIP3    H141324   4.504   6.040   8.174 -1.5500  0.9892 -0.7302
 6563TIP3    H241325   4.441   6.139   8.271 -0.3709 -0.8278  2.0163
 6564TIP3   OH241326   1.285   5.222   7.306 -0.1778 -0.0632  0.0542
 6564TIP3    H141327   1.211   5.182   7.259 -0.1283  0.5963 -0.6049
 6564TIP3    H241328   1.249   5.301   7.345 -0.1624 -0.4957  0.9751
 6565TIP3   OH241329   0.715   2.885   1.580 -0.1275 -0.7583  0.2080
 6565TIP3    H141330   0.698   2.908   1.489 -2.9488 -1.6134  0.4242
 6565TIP3    H241331   0.809   2.898   1.591  0.0800  0.6558 -2.4288
 6566TIP3   OH241332   0.630   1.191   7.774 -0.2615 -0.4576 -0.2170
 6566TIP3    H141333   0.617   1.284   7.757 -1.9279 -0.3677  1.2426
 6566TIP3    H241334   0.652   1.187   7.867  1.5062 -1.4284 -0.6287
 6567TIP3   OH241335   4.554   1.061   0.714  0.1623 -0.3160 -0.1723
 6567TIP3    H141336   4.492   1.042   0.785  0.8869 -0.2308  0.4970
 6567TIP3    H241337   4.513   1.023   0.636 -0.4729 -0.7511  0.3573
 6568TIP3   OH241338   4.946   5.170   6.398 -0.0891  0.6571 -0.3018
 6568TIP3    H141339   4.906   5.095   6.442 -0.3380  0.4242 -0.9264
 6568TIP3    H241340   4.914   5.246   6.447  1.3886  0.3038  1.3163
 6569TIP3   OH241341   3.121   3.029   7.310  0.2636  0.4313 -0.2751
 6569TIP3    H141342   3.064   3.011   7.385 -1.6447 -1.0681 -1.9652
 6569TIP3    H241343   3.061   3.039   7.236  2.1245  0.3234 -1.8896
 6570TIP3   OH241344   2.813   4.058   7.536 -0.2608 -0.1612 -0.5570
 6570TIP3    H141345   2.779   4.022   7.454 -3.1738 -0.2638  0.5462
 6570TIP3    H241346   2.859   3.985   7.577  0.0820 -0.4900 -1.5012
 6571TIP3   OH241347   5.975   3.524   0.914 -0.9906  0.6044 -0.0029
 6571TIP3    H141348   5.948   3.436   0.941 -1.3208  0.1601 -1.6692
 6571TIP3    H241349   6.068   3.515   0.893 -0.5954  1.0789  1.4160
 6572TIP3   OH241350   1.602   6.282   1.546 -0.1309 -0.1514  0.0521
 6572TIP3    H141351   1.514   6.272   1.511  0.0296 -0.6552 -0.2237
 6572TIP3    H241352   1.613   6.208   1.606 -0.1233  0.2679  0.5665
 6573TIP3   OH241353   1.021   1.544   2.780 -0.1862  0.2394  0.2453
 6573TIP3    H141354   1.079   1.609   2.739 -0.0768 -0.6693 -1.1170
 6573TIP3    H241355   1.004   1.481   2.710 -2.2366  0.0937  0.8344
 6574TIP3   OH241356   6.394   0.130   0.559 -0.5765 -0.5207  0.5807
 6574TIP3    H141357   6.300   0.130   0.543 -0.3776  1.5989 -1.0987
 6574TIP3    H241358   6.414   0.220   0.585  1.0167 -0.8501  0.6001
 6575TIP3   OH241359   1.240   3.861   7.288  0.1094  0.4552 -0.4740
 6575TIP3    H141360   1.311   3.910   7.247  1.9814 -0.9030  0.9391
 6575TIP3    H241361   1.187   3.927   7.332  1.5084  1.3932 -0.1236
 6576TIP3   OH241362   1.133   3.337   7.547  0.1000 -0.0172 -0.2441
 6576TIP3    H141363   1.197   3.371   7.485  0.8074 -2.2150 -0.7904
 6576TIP3    H241364   1.048   3.366   7.512  0.5174 -0.7980 -2.0026
 6577TIP3   OH241365   3.489   4.700   1.211  0.4361 -0.3006  0.1474
 6577TIP3    H141366   3.545   4.651   1.151 -0.6558 -0.7131 -0.5622
 6577TIP3    H241367   3.454   4.634   1.271 -0.1873 -0.2328 -0.1350
 6578TIP3   OH241368   0.225   3.365   8.093 -0.8006  0.1019  0.9097
 6578TIP3    H141369   0.250   3.392   8.180  1.3156  0.9653  0.0872
 6578TIP3    H241370   0.275   3.285   8.077  0.1798  0.8787 -0.1048
 6579TIP3   OH241371   6.051   1.000   7.610  0.4047 -0.6843  0.4848
 6579TIP3    H141372   6.042   1.076   7.553  0.7313  0.5414  1.9962
 6579TIP3    H241373   6.075   0.928   7.552 -2.7113 -0.3466 -1.4066
 6580TIP3   OH241374   6.728   4.513   7.518 -0.4282  0.0770  0.0175
 6580TIP3    H141375   6.810   4.559   7.534 -0.0014 -0.3904 -0.7832
 6580TIP3    H241376   6.746   4.422   7.543 -0.6576 -0.0582 -0.3148
 6581TIP3   OH241377   6.284   1.918   7.355  0.0204  0.4281  0.5280
 6581TIP3    H141378   6.292   1.884   7.265  0.7064  1.7974  0.0448
 6581TIP3    H241379   6.260   2.010   7.343  0.1733  0.6350  1.7575
 6582TIP3   OH241380   2.988   2.794   8.677  0.5056  0.1024 -0.0876
 6582TIP3    H141381   3.049   2.731   8.715  1.5280  1.5992  0.8770
 6582TIP3    H241382   3.014   2.799   8.585  1.8054  0.6361  0.2861
 6583TIP3   OH241383   4.227   5.160   1.285  0.0028  0.4943  0.2044
 6583TIP3    H141384   4.196   5.138   1.373 -0.5187  1.2255  0.2190
 6583TIP3    H241385   4.158   5.217   1.250  0.0337 -0.0738 -0.8107
 6584TIP3   OH241386   4.679   3.565   0.750 -0.1900 -0.3774 -0.3565
 6584TIP3    H141387   4.684   3.490   0.809  3.3071 -0.7892 -0.9375
 6584TIP3    H241388   4.627   3.534   0.676 -2.0030 -0.8778  1.0480
 6585TIP3   OH241389   2.519   2.288   0.687 -0.0136  0.3628  0.0642
 6585TIP3    H141390   2.440   2.326   0.725  0.0524  0.5565  0.0075
 6585TIP3    H241391   2.591   2.344   0.719 -0.0803  1.3963 -1.4676
 6586TIP3   OH241392   5.502   1.099   6.653  0.4349 -0.8918 -0.3221
 6586TIP3    H141393   5.568   1.034   6.679  4.9365  1.9767 -3.2689
 6586TIP3    H241394   5.530   1.180   6.695 -1.9135  0.3287 -0.9194
 6587TIP3   OH241395   1.981   2.475   1.559 -0.5277 -0.4029  0.0829
 6587TIP3    H141396   2.008   2.566   1.576 -0.3922 -0.5244  0.5377
 6587TIP3    H241397   1.993   2.463   1.465  1.9698 -0.7739  0.3895
 6588TIP3   OH241398   2.441   1.646   1.520  0.6665  0.0631  0.4768
 6588TIP3    H141399   2.430   1.679   1.609  1.1087  1.6046 -0.0120
 6588TIP3    H241400   2.496   1.568   1.530 -0.2122 -0.4486  1.6385
 6589TIP3   OH241401   5.722   3.837   7.181 -0.5942 -0.0406  0.2885
 6589TIP3    H141402   5.768   3.920   7.193  0.7951 -0.6340 -0.7986
 6589TIP3    H241403   5.691   3.815   7.269  3.0009 -0.6379  1.5620
 6590TIP3   OH241404   6.375   6.271   7.782 -0.1873 -0.2556  0.2054
 6590TIP3    H141405   6.361   6.355   7.825 -0.3517 -0.5514  0.7280
 6590TIP3    H241406   6.296   6.221   7.800 -0.5110 -0.1901 -0.9097
 6591TIP3   OH241407   3.787   1.611   7.191  0.7626  0.9828 -0.3563
 6591TIP3    H141408   3.739   1.688   7.224  1.9757  1.6715 -0.1227
 6591TIP3    H241409   3.829   1.642   7.111  1.2506  0.5678 -0.2648
 6592TIP3   OH241410   1.142   3.121   6.512  0.1502 -0.2086 -0.5080
 6592TIP3    H141411   1.212   3.068   6.551  2.2901  0.8533 -2.6008
 6592TIP3    H241412   1.182   3.206   6.497 -2.0449  0.8618 -0.6349
 6593TIP3   OH241413   2.312   2.488   0.772  0.4859  0.3970  0.2618
 6593TIP3    H141414   2.262   2.549   0.826 -0.5790 -0.5099  0.3372
 6593TIP3    H241415   2.253   2.464   0.701  0.9676 -0.3845  0.1113
 6594TIP3   OH241416   3.735   6.129   6.739  0.2735  0.6628 -0.6959
 6594TIP3    H141417   3.654   6.104   6.782  1.1291 -0.3943  0.3855
 6594TIP3    H241418   3.774   6.047   6.709  1.4682  1.0176 -0.1920
 6595TIP3   OH241419   0.292   6.328   0.708 -0.0687 -0.1792  0.4876
 6595TIP3    H141420   0.213   6.365   0.749  0.0328 -1.9398  2.4674
 6595TIP3    H241421   0.278   6.233   0.710 -0.5875 -0.5032 -4.9248
 6596TIP3   OH241422   6.809   0.514   6.717  0.2285  0.5562 -0.4722
 6596TIP3    H141423   6.759   0.571   6.775 -0.6315  1.3599 -1.9315
 6596TIP3    H241424   6.786   0.544   6.629  1.4986 -0.5992 -1.2357
 6597TIP3   OH241425   3.130   6.549   8.298  0.2862  0.0779  0.0292
 6597TIP3    H141426   3.087   6.465   8.281  2.3023 -1.2014  0.8626
 6597TIP3    H241427   3.154   6.581   8.211  2.1775 -1.7797 -0.2367
 6598TIP3   OH241428   2.558   4.132   2.239  0.5890 -0.2597  0.0188
 6598TIP3    H141429   2.512   4.110   2.158  0.1724 -0.1943  0.2288
 6598TIP3    H241430   2.533   4.063   2.300 -1.2281  1.0415  0.8694
 6599TIP3   OH241431   0.689   5.499   7.034 -0.3060 -0.4381  0.2088
 6599TIP3    H141432   0.730   5.429   6.983  2.8932  0.5212  1.1807
 6599TIP3    H241433   0.669   5.567   6.970  1.8209 -0.0519 -0.1322
 6600TIP3   OH241434   1.823   4.866   0.846  0.6462  0.3865 -0.0732
 6600TIP3    H141435   1.871   4.861   0.764  2.5762 -1.6017  1.0736
 6600TIP3    H241436   1.773   4.785   0.851 -0.3824  1.0121  0.2165
 6601TIP3   OH241437   6.440   5.679   7.022  0.1027 -0.5266  0.0342
 6601TIP3    H141438   6.497   5.605   7.045 -0.4067 -0.8195  0.3593
 6601TIP3    H241439   6.459   5.695   6.929  0.4205 -0.8828  0.0345
 6602TIP3   OH241440   2.140   5.727   0.972  0.0749  0.3939 -0.2567
 6602TIP3    H141441   2.138   5.660   0.903 -1.5683 -0.8800  0.9453
 6602TIP3    H241442   2.105   5.683   1.049 -0.5691  2.5073  0.7301
 6603TIP3   OH241443   3.412   4.548   7.872  0.2215 -0.4330  0.1634
 6603TIP3    H141444   3.411   4.453   7.879 -2.7889 -0.4436  1.1113
 6603TIP3    H241445   3.410   4.578   7.963  0.6919  0.5330 -0.1327
 6604TIP3   OH241446   1.900   2.683   8.016  0.5418 -0.3985 -0.1337
 6604TIP3    H141447   1.953   2.756   7.983  0.0203  0.4253  0.8156
 6604TIP3    H241448   1.963   2.627   8.062  0.4972  0.9968  1.7046
 6605TIP3   OH241449   3.974   1.549   7.376  0.2555 -0.4811  0.7702
 6605TIP3    H141450   4.050   1.504   7.340  0.3336  0.4630 -0.3128
 6605TIP3    H241451   3.909   1.546   7.306 -0.2053 -0.0739  1.1707
 6606TIP3   OH241452   6.055   5.082   2.331  0.0825  0.4345 -0.6093
 6606TIP3    H141453   6.129   5.075   2.391 -0.4117  2.8766  0.3816
 6606TIP3    H241454   6.042   5.176   2.319 -3.1646  0.1536 -0.3123
 6607TIP3   OH241455   2.682   1.452   6.801  0.2894  0.3433 -0.0190
 6607TIP3    H141456   2.637   1.384   6.851 -0.1116  0.7994  0.2501
 6607TIP3    H241457   2.641   1.533   6.829  0.6314  0.6805 -0.4819
 6608TIP3   OH241458   0.022   1.320   8.561 -0.7877 -0.6544 -0.3755
 6608TIP3    H141459   0.066   1.283   8.484 -3.3582 -0.0725 -2.2719
 6608TIP3    H241460   0.079   1.392   8.588  0.2691 -0.9656 -1.6429
 6609TIP3   OH241461   0.955   5.710   1.768 -0.1616 -0.7729  0.0266
 6609TIP3    H141462   0.866   5.720   1.734 -0.7286 -0.1820  1.6112
 6609TIP3    H241463   0.944   5.698   1.862  1.4400 -0.6218  0.2609
 6610TIP3   OH241464   3.048   4.294   0.053  0.2916  0.2220  0.0514
 6610TIP3    H141465   2.954   4.314   0.054  0.4154  0.9006 -0.8784
 6610TIP3    H241466   3.059   4.233   0.126 -0.6713  1.0700  0.9739
 6611TIP3   OH241467   2.224   3.926   2.083 -0.2459  0.0137 -0.2935
 6611TIP3    H141468   2.301   3.975   2.056  0.6870 -1.1033  0.2299
 6611TIP3    H241469   2.188   3.891   2.002  0.2649 -0.1092 -0.4716
 6612TIP3   OH241470   6.388   5.997   7.711  0.1344  0.2725 -0.2684
 6612TIP3    H141471   6.397   6.078   7.760  0.1954 -0.1814  0.5001
 6612TIP3    H241472   6.449   6.005   7.638  1.0464  0.4077  0.4989
 6613TIP3   OH241473   6.701   4.859   2.281  0.1304 -0.3580 -0.2182
 6613TIP3    H141474   6.615   4.900   2.296  1.1393  1.8470 -0.0248
 6613TIP3    H241475   6.746   4.866   2.365 -0.3885 -4.0295  0.5106
 6614TIP3   OH241476   0.682   0.899   1.933 -0.2061  0.9792 -0.9049
 6614TIP3    H141477   0.728   0.960   1.991  0.6648 -0.0387 -0.4896
 6614TIP3    H241478   0.725   0.814   1.948 -0.3085  0.5732 -2.6399
 6615TIP3   OH241479   4.854   5.152   8.536 -0.2470 -0.2041  0.1910
 6615TIP3    H141480   4.794   5.223   8.515 -0.0875 -0.0640  0.2067
 6615TIP3    H241481   4.935   5.175   8.491 -0.2009 -0.3856  0.1805
 6616TIP3   OH241482   6.086   2.888   0.433 -0.0602  0.2328  0.0583
 6616TIP3    H141483   6.100   2.976   0.467 -1.7914  0.4893  0.1958
 6616TIP3    H241484   6.070   2.835   0.511  1.2836 -0.2949  0.0025
 6617TIP3   OH241485   0.209   4.787   1.733 -1.0723  0.3337  0.2899
 6617TIP3    H141486   0.115   4.803   1.725 -0.7307  1.9823 -0.8359
 6617TIP3    H241487   0.249   4.849   1.673  0.7492 -0.3856  0.7060
 6618TIP3   OH241488   1.069   0.894   7.669  0.2412 -0.3718  0.0247
 6618TIP3    H141489   1.149   0.892   7.616 -0.1140  0.6209 -0.5675
 6618TIP3    H241490   0.998   0.893   7.604 -0.2010  0.8508  0.4677
 6619TIP3   OH241491   0.911   0.087   1.604  0.0151 -0.7062 -0.0703
 6619TIP3    H141492   0.966   0.154   1.564  0.1237  0.3020  1.6591
 6619TIP3    H241493   0.848   0.063   1.535  0.8881  0.1076 -1.1809
 6620TIP3   OH241494   5.493   5.026   7.644 -0.2770 -0.2989  0.0400
 6620TIP3    H141495   5.504   5.049   7.736 -0.0517 -0.0987 -0.0367
 6620TIP3    H241496   5.575   4.984   7.619 -1.3189 -2.9790  0.6851
 6621TIP3   OH241497   6.640   1.728   0.532  0.2194  0.6780 -0.0872
 6621TIP3    H141498   6.694   1.806   0.521 -0.0729  0.8775 -0.1161
 6621TIP3    H241499   6.697   1.656   0.506  1.1155  0.7001  1.6778
 6622TIP3   OH241500   0.824   4.463   6.933 -0.0224 -0.0874  0.0406
 6622TIP3    H141501   0.905   4.459   6.881  0.5506  1.8784  0.6982
 6622TIP3    H241502   0.765   4.518   6.881 -0.5045 -0.4866  0.1526
 6623TIP3   OH241503   4.438   3.027   1.215  0.1860  0.0588  0.2652
 6623TIP3    H141504   4.353   2.987   1.230 -0.4589  0.9678 -0.7695
 6623TIP3    H241505   4.502   2.960   1.241 -0.8310 -0.4809  1.4272
 6624TIP3   OH241506   4.146   4.257   8.728  0.3001 -0.1955 -0.0581
 6624TIP3    H141507   4.187   4.327   8.778  0.3121 -1.1745  1.3471
 6624TIP3    H241508   4.088   4.302   8.666  1.0509  1.0725  0.1353
 6625TIP3   OH241509   4.747   1.449   0.869  0.1531 -0.2034 -0.4884
 6625TIP3    H141510   4.797   1.389   0.813  0.1542 -0.7335  0.0723
 6625TIP3    H241511   4.669   1.400   0.893  0.7210 -0.4551  0.9597
 6626TIP3   OH241512   4.870   1.310   1.513 -0.0083  0.0389  0.0623
 6626TIP3    H141513   4.820   1.230   1.496  0.5784  0.1012 -2.3476
 6626TIP3    H241514   4.808   1.367   1.560 -1.2154 -0.9710 -0.2308
 6627TIP3   OH241515   3.171   1.285   5.942 -0.5506  0.5479 -0.4227
 6627TIP3    H141516   3.077   1.268   5.943 -0.9629  2.3975  2.2892
 6627TIP3    H241517   3.206   1.226   6.009  0.1603  0.3216 -0.9838
 6628TIP3   OH241518   5.486   3.586   6.845  0.3554 -0.2401 -0.0174
 6628TIP3    H141519   5.538   3.528   6.899  1.4884  1.7225  1.1393
 6628TIP3    H241520   5.459   3.657   6.904 -0.6439  0.6057 -1.4083
 6629TIP3   OH241521   3.800   1.020   0.276  0.2194 -0.4407  0.0761
 6629TIP3    H141522   3.770   0.965   0.204 -1.3534  0.4429  0.0112
 6629TIP3    H241523   3.731   1.086   0.286  1.8635  1.3351  0.3565
 6630TIP3   OH241524   6.328   3.008   8.121 -0.0873 -1.0189 -0.4943
 6630TIP3    H141525   6.384   2.964   8.057  0.5472  0.5738 -1.0852
 6630TIP3    H241526   6.325   3.100   8.092 -0.5585 -0.4470  1.2295
 6631TIP3   OH241527   1.187   0.785   1.720  0.1098  0.6442  0.5290
 6631TIP3    H141528   1.215   0.785   1.628 -1.1019  0.2858  0.1398
 6631TIP3    H241529   1.233   0.711   1.759 -1.0779 -0.6261 -0.3715
 6632TIP3   OH241530   5.079   1.472   6.376 -0.0926  0.0395 -0.3269
 6632TIP3    H141531   5.124   1.439   6.298  0.2059  2.1591 -1.1201
 6632TIP3    H241532   5.150   1.493   6.437 -0.2701 -0.5705  0.0993
 6633TIP3   OH241533   5.141   3.098   0.829  0.0770 -0.1653  0.3807
 6633TIP3    H141534   5.071   3.065   0.886 -1.0900 -0.3053 -1.0557
 6633TIP3    H241535   5.107   3.181   0.796  0.9989  0.2153  0.3725
 6634TIP3   OH241536   2.419   3.486   7.139 -0.3548  0.2635 -0.1428
 6634TIP3    H141537   2.492   3.490   7.078 -0.3620  2.8765 -0.0799
 6634TIP3    H241538   2.461   3.479   7.225 -0.0453  2.6042 -0.0326
 6635TIP3   OH241539   4.440   5.621   6.488  0.1101 -0.1672  0.1457
 6635TIP3    H141540   4.532   5.600   6.500  0.1961  0.3547  0.4387
 6635TIP3    H241541   4.393   5.539   6.506  0.4919 -0.3481  0.3121
 6636TIP3   OH241542   4.987   4.832   0.621 -0.1052 -0.0947 -0.4066
 6636TIP3    H141543   4.942   4.842   0.537 -1.8954  0.7197  0.5884
 6636TIP3    H241544   4.934   4.770   0.670 -1.8600  2.8510  1.7901
 6637TIP3   OH241545   3.992   4.646   8.514  0.2442 -0.2319  0.4010
 6637TIP3    H141546   4.065   4.691   8.556 -0.7756  2.7256 -0.6913
 6637TIP3    H241547   3.918   4.707   8.523 -1.6303 -2.2986 -0.1179
 6638TIP3   OH241548   4.241   1.231   7.470  0.6225  0.4685  0.1130
 6638TIP3    H141549   4.147   1.248   7.457  0.5602  0.0644  0.0064
 6638TIP3    H241550   4.254   1.237   7.564  0.1397 -1.1395  0.3187
 6639TIP3   OH241551   6.046   1.577   8.580 -0.5607  0.2965 -0.0424
 6639TIP3    H141552   5.976   1.514   8.563 -0.9229  0.6644  0.0814
 6639TIP3    H241553   6.108   1.529   8.636 -0.8248  0.0433  0.0351
 6640TIP3   OH241554   3.203   4.485   0.147 -0.3500 -0.1737 -0.0200
 6640TIP3    H141555   3.227   4.513   0.058 -1.0825 -1.5406 -0.6793
 6640TIP3    H241556   3.160   4.401   0.135 -0.4743 -0.3861  1.6522
 6641TIP3   OH241557   3.580   5.652   6.959  0.4270  0.5205  0.0030
 6641TIP3    H141558   3.587   5.729   7.015 -0.7193 -1.4539  3.1298
 6641TIP3    H241559   3.544   5.685   6.877  2.2467  3.6012  0.2955
 6642TIP3   OH241560   1.853   3.844   1.016 -0.1840 -0.4180 -0.8493
 6642TIP3    H141561   1.771   3.856   0.969  0.5921  0.1316 -2.1153
 6642TIP3    H241562   1.881   3.755   0.994  1.0205  0.4000 -2.8867
 6643TIP3   OH241563   0.520   1.915   7.939  0.4734 -0.3128  0.3479
 6643TIP3    H141564   0.581   1.973   7.893 -1.2996  2.0836  0.7694
 6643TIP3    H241565   0.477   1.864   7.870 -0.9229  1.9999 -0.6329
 6644TIP3   OH241566   1.495   6.722   1.207  0.5934  0.0727  0.3433
 6644TIP3    H141567   1.473   6.783   1.137 -2.1295 -1.7639 -0.5430
 6644TIP3    H241568   1.475   6.769   1.288 -0.3611  0.7463 -0.2736
 6645TIP3   OH241569   4.851   0.611   8.100  0.1559  0.4822 -0.3217
 6645TIP3    H141570   4.826   0.569   8.018  1.0246  3.2858 -2.1690
 6645TIP3    H241571   4.770   0.647   8.135 -0.1330 -0.2794 -0.1794
 6646TIP3   OH241572   2.544   2.009   1.577  0.3850  0.2011  0.5706
 6646TIP3    H141573   2.473   1.970   1.526  0.0750 -0.5616  1.5486
 6646TIP3    H241574   2.501   2.041   1.656  1.1998 -0.8058  1.4580
 6647TIP3   OH241575   0.447   6.757   2.050  0.1668  0.4139 -0.6120
 6647TIP3    H141576   0.524   6.794   2.007 -0.2275  0.5943 -1.1769
 6647TIP3    H241577   0.400   6.711   1.981 -0.0845  0.0569 -0.2092
 6648TIP3   OH241578   1.132   5.240   0.674  0.6765 -0.6961  0.3005
 6648TIP3    H141579   1.208   5.272   0.723 -0.5381  0.4129  1.5558
 6648TIP3    H241580   1.166   5.222   0.586  1.9148  2.0865  0.0960
 6649TIP3   OH241581   2.447   3.001   6.961 -0.3675 -0.2586  0.1445
 6649TIP3    H141582   2.475   3.091   6.948  1.6022 -0.6842  1.0193
 6649TIP3    H241583   2.423   2.996   7.054 -0.3023 -0.6827  0.1424
 6650TIP3   OH241584   0.319   4.822   7.668 -0.0975 -0.1554  0.0402
 6650TIP3    H141585   0.324   4.872   7.750  1.1315 -2.2369  1.3141
 6650TIP3    H241586   0.362   4.878   7.604  0.3049  0.8786  1.1645
 6651TIP3   OH241587   1.075   5.019   1.102  1.1812 -0.5319  0.2188
 6651TIP3    H141588   1.056   5.045   1.192  2.1662  1.1828 -0.0391
 6651TIP3    H241589   1.086   5.101   1.055 -1.9330 -1.2670 -2.1158
 6652TIP3   OH241590   0.103   3.776   0.525  0.1228  0.1814 -0.9691
 6652TIP3    H141591   0.170   3.821   0.474 -0.7547  1.8210 -0.7632
 6652TIP3    H241592   0.151   3.733   0.595  1.3110 -1.8245 -2.9162
 6653TIP3   OH241593   3.088   3.309   0.322  0.8987  0.5377 -0.5380
 6653TIP3    H141594   3.181   3.314   0.343  0.8699 -0.8483  0.0593
 6653TIP3    H241595   3.055   3.237   0.376 -0.4427  0.7654 -1.0114
 6654TIP3   OH241596   0.451   3.512   7.651  0.4204 -0.2467  0.1433
 6654TIP3    H141597   0.392   3.470   7.713  0.1416  0.8685  0.6653
 6654TIP3    H241598   0.424   3.479   7.565  0.2000 -1.0867  0.5298
 6655TIP3   OH241599   0.321   2.215   7.582 -0.2130 -0.3445  0.4440
 6655TIP3    H141600   0.269   2.229   7.503  1.2633  0.5287 -0.4148
 6655TIP3    H241601   0.369   2.134   7.566 -0.4425 -0.5441  0.7536
 6656TIP3   OH241602   2.821   5.189   6.388 -0.1336  0.3530 -0.3659
 6656TIP3    H141603   2.833   5.110   6.336  0.0644  0.3508 -0.3185
 6656TIP3    H241604   2.891   5.186   6.454 -0.7008  0.1028  0.2263
 6657TIP3   OH241605   5.293   4.540   8.085  0.0987  0.1873 -0.2317
 6657TIP3    H141606   5.247   4.571   8.163  1.7760  3.3124 -0.2872
 6657TIP3    H241607   5.359   4.479   8.118 -1.1919 -0.9402  0.3521
 6658TIP3   OH241608   2.049   3.851   1.439  0.1792 -0.3149 -0.6158
 6658TIP3    H141609   2.123   3.843   1.500  0.4833 -1.0082 -1.0650
 6658TIP3    H241610   2.048   3.768   1.392 -2.2065 -1.1978  0.8456
 6659TIP3   OH241611   5.483   2.290   1.358 -0.2585  0.4897  0.2242
 6659TIP3    H141612   5.391   2.282   1.382 -0.5060  3.0170  0.3579
 6659TIP3    H241613   5.513   2.368   1.405  1.3548  0.9994 -1.5477
 6660TIP3   OH241614   1.584   4.391   7.452  0.1175  0.3788  0.2703
 6660TIP3    H141615   1.548   4.434   7.530  2.5571  2.8931  0.1669
 6660TIP3    H241616   1.678   4.394   7.465  0.5309 -3.4672 -0.6939
 6661TIP3   OH241617   3.715   6.429   0.156  0.1068  0.3810  0.4208
 6661TIP3    H141618   3.768   6.351   0.174  1.7836  1.2687 -0.4701
 6661TIP3    H241619   3.626   6.395   0.147  0.4372 -1.1250  2.2459
 6662TIP3   OH241620   2.202   0.052   1.990 -0.5493 -0.4405 -0.1922
 6662TIP3    H141621   2.267   0.022   2.054 -0.1780  0.3847 -0.1676
 6662TIP3    H241622   2.126   0.076   2.043 -0.0433  0.7789  0.0199
 6663TIP3   OH241623   4.041   6.562   0.208  0.3118  0.0905  0.5344
 6663TIP3    H141624   4.053   6.483   0.155 -1.8659  0.0332  0.0578
 6663TIP3    H241625   4.047   6.634   0.145  1.5453  0.2931  0.8542
 6664TIP3   OH241626   2.422   2.950   2.939 -0.1831  0.3128  0.6679
 6664TIP3    H141627   2.446   2.965   3.030  2.6705 -0.7859  0.2106
 6664TIP3    H241628   2.505   2.942   2.893 -1.5202  0.0997 -1.9448
 6665TIP3   OH241629   6.139   3.177   0.740 -0.0853  0.4186  0.6983
 6665TIP3    H141630   6.062   3.219   0.701  0.3064  0.5564  0.0636
 6665TIP3    H241631   6.116   3.084   0.744 -0.2824  0.4580  0.5110
 6666TIP3   OH241632   4.326   6.250   0.695  0.1656  0.0593 -0.2952
 6666TIP3    H141633   4.380   6.325   0.671 -0.0857  0.5492  0.6123
 6666TIP3    H241634   4.243   6.263   0.650  0.2040  0.2048 -0.3227
 6667TIP3   OH241635   5.697   1.267   8.142 -0.0441  0.0859 -0.1901
 6667TIP3    H141636   5.760   1.196   8.155  0.7542  1.1162  2.4131
 6667TIP3    H241637   5.622   1.244   8.196 -0.6590  0.2733 -0.9434
 6668TIP3   OH241638   3.224   0.008   7.054 -0.1827  0.1796  0.0266
 6668TIP3    H141639   3.197   0.034   6.966 -1.7591  0.0424  0.4297
 6668TIP3    H241640   3.183  -0.078   7.067  0.1686  0.1185  0.8280
 6669TIP3   OH241641   4.320   0.345   8.484  0.3155  0.0258 -0.3801
 6669TIP3    H141642   4.413   0.364   8.467  1.2458 -1.3356  2.4527
 6669TIP3    H241643   4.288   0.425   8.526  0.2600  0.3977 -1.1121
 6670TIP3   OH241644   1.560   0.311   1.645 -0.0178  0.5236  0.1691
 6670TIP3    H141645   1.655   0.301   1.641 -0.1061 -0.3252 -0.1537
 6670TIP3    H241646   1.541   0.323   1.738  0.3270 -0.3624  0.3686
 6671TIP3   OH241647   5.762   0.751   0.727 -0.2785  0.0594  0.7514
 6671TIP3    H141648   5.767   0.846   0.730 -1.8527  0.2258 -0.5488
 6671TIP3    H241649   5.670   0.731   0.741 -0.5868 -1.0559 -2.0993
 6672TIP3   OH241650   0.174   2.411   2.309 -0.4530  0.5676 -0.4560
 6672TIP3    H141651   0.170   2.470   2.233  0.4734  0.3068 -0.7155
 6672TIP3    H241652   0.196   2.468   2.383  0.1928  0.5921 -0.6623
 6673TIP3   OH241653   2.222   0.804   0.912  0.3319 -0.5795  0.0483
 6673TIP3    H141654   2.195   0.890   0.879 -2.4046 -0.6131  1.8383
 6673TIP3    H241655   2.180   0.742   0.853 -0.8504 -0.6322  0.9069
 6674TIP3   OH241656   3.361   0.283   1.181 -0.5106  0.1470 -0.0452
 6674TIP3    H141657   3.440   0.334   1.195 -0.0547 -0.4869 -0.3021
 6674TIP3    H241658   3.370   0.207   1.238 -1.2154  0.3709  0.3811
 6675TIP3   OH241659   4.966   0.276   8.051  0.3627  0.3907  0.7429
 6675TIP3    H141660   4.951   0.285   7.957  0.7861  0.1368  0.6482
 6675TIP3    H241661   4.910   0.204   8.078 -1.2654  1.7096  1.0672
 6676TIP3   OH241662   0.825   0.444   8.273  0.3720 -0.0259 -0.0212
 6676TIP3    H141663   0.820   0.468   8.180 -2.6041  0.2467  0.1156
 6676TIP3    H241664   0.890   0.504   8.310  0.7771  0.6251 -1.6987
 6677TIP3   OH241665   3.490   4.294   8.178 -0.7083  0.1423 -0.4730
 6677TIP3    H141666   3.401   4.266   8.199 -1.3567  2.5367  0.2733
 6677TIP3    H241667   3.493   4.293   8.082 -1.4752 -0.0986 -0.5032
 6678TIP3   OH241668   3.741   1.775   1.036  0.3078 -0.1147  0.0763
 6678TIP3    H141669   3.762   1.840   1.103 -0.3511  0.1144  0.0725
 6678TIP3    H241670   3.686   1.822   0.974  0.6480 -0.4138 -0.4571
 6679TIP3   OH241671   0.977   1.511   8.304 -0.2218  0.1776 -0.5327
 6679TIP3    H141672   1.011   1.487   8.390  2.6396 -1.1353 -1.9001
 6679TIP3    H241673   0.983   1.607   8.301  1.0508  0.1458  0.2533
 6680TIP3   OH241674   0.290   3.080   1.960  0.2873 -0.6731  0.7847
 6680TIP3    H141675   0.233   3.053   1.888  0.1954  0.8608  0.2419
 6680TIP3    H241676   0.283   3.009   2.024 -0.3145 -1.6538 -0.3290
 6681TIP3   OH241677   1.316   1.749   6.757  0.2415  0.0475 -0.3968
 6681TIP3    H141678   1.278   1.665   6.782  0.1737  0.5005  1.1366
 6681TIP3    H241679   1.260   1.814   6.801  0.4177  0.8852 -1.3769
 6682TIP3   OH241680   4.911   4.588   0.353 -0.3261  0.5984 -0.2949
 6682TIP3    H141681   4.877   4.613   0.440  1.2680  1.5051  0.1255
 6682TIP3    H241682   4.971   4.516   0.371 -1.1767 -0.2664 -0.8748
 6683TIP3   OH241683   2.740   5.929   1.982 -0.0535  0.4432 -0.1379
 6683TIP3    H141684   2.714   6.005   2.035 -0.9826  0.9145 -1.2085
 6683TIP3    H241685   2.791   5.874   2.041 -1.2932  0.8028  1.3256
 6684TIP3   OH241686   5.347   2.984   7.623 -0.4016  0.0916 -0.5838
 6684TIP3    H141687   5.289   3.050   7.662 -0.5622  0.1448 -0.9137
 6684TIP3    H241688   5.432   3.028   7.614  0.5516 -0.8148  2.5591
 6685TIP3   OH241689   2.458   2.749   6.867 -0.1881  0.3862 -0.4341
 6685TIP3    H141690   2.367   2.721   6.859 -0.3131 -0.4171  2.5003
 6685TIP3    H241691   2.453   2.834   6.910  0.4454  0.0569  0.3087
 6686TIP3   OH241692   1.150   4.865   1.650 -0.8404  0.1558 -0.3203
 6686TIP3    H141693   1.101   4.887   1.729 -0.1652  0.4296  0.0267
 6686TIP3    H241694   1.115   4.780   1.622 -0.7519 -0.1725  0.5418
 6687TIP3   OH241695   1.719   2.111   7.216  0.5840  0.4145 -0.2803
 6687TIP3    H141696   1.724   2.038   7.154  1.2365 -0.0119  0.2656
 6687TIP3    H241697   1.679   2.074   7.295  1.5382  0.4673  0.2380
 6688TIP3   OH241698   3.546   6.378   1.666 -0.0406  0.6952 -1.0974
 6688TIP3    H141699   3.601   6.406   1.592 -0.1949  3.1844 -0.3462
 6688TIP3    H241700   3.608   6.348   1.732  0.2360  0.6638 -1.3684
 6689TIP3   OH241701   3.887   1.306   8.822  0.6115  0.1627 -0.4772
 6689TIP3    H141702   3.836   1.293   8.902 -0.0468  1.2589 -0.6931
 6689TIP3    H241703   3.964   1.249   8.833  1.4829  1.6222  1.7838
 6690TIP3   OH241704   0.341   4.485   0.709  0.2101 -0.1462  0.4173
 6690TIP3    H141705   0.424   4.504   0.752  1.1470 -1.3489 -0.7736
 6690TIP3    H241706   0.309   4.569   0.678  2.6128  0.0313 -1.9170
 6691TIP3   OH241707   2.604   0.775   8.715 -0.0927  0.0300 -0.3441
 6691TIP3    H141708   2.554   0.696   8.694 -0.4337  0.8630 -2.9256
 6691TIP3    H241709   2.563   0.844   8.664  1.5130  1.4682  0.2293
 6692TIP3   OH241710   0.237   6.037   8.265 -0.1497  0.1276 -0.2172
 6692TIP3    H141711   0.266   6.032   8.174 -0.0219  0.3319 -0.1869
 6692TIP3    H241712   0.237   5.946   8.295  2.4430  0.2610  0.4157
 6693TIP3   OH241713   5.800   6.298   1.606 -0.1790 -0.3213  0.2889
 6693TIP3    H141714   5.871   6.235   1.622  0.6279  0.7914  1.2125
 6693TIP3    H241715   5.727   6.264   1.658 -0.0509 -0.9883  0.0512
 6694TIP3   OH241716   1.808   4.275   0.883 -0.1900  0.4307  0.0515
 6694TIP3    H141717   1.889   4.318   0.856 -0.2534  0.2595 -0.4239
 6694TIP3    H241718   1.767   4.248   0.801  0.4437 -1.6361  0.3466
 6695TIP3   OH241719   5.174   6.189   8.621  0.3532 -0.4395  0.1895
 6695TIP3    H141720   5.229   6.240   8.681 -1.4966  2.0605 -0.0985
 6695TIP3    H241721   5.229   6.175   8.544  1.6992 -1.0108  1.2018
 6696TIP3   OH241722   6.053   6.385   1.823  0.2891 -0.3470  0.1271
 6696TIP3    H141723   6.103   6.448   1.876  0.0661  0.3606 -0.4928
 6696TIP3    H241724   6.118   6.344   1.766  0.3958 -0.5185  0.3684
 6697TIP3   OH241725   1.739   5.401   1.292 -0.3510 -0.3129 -0.5576
 6697TIP3    H141726   1.834   5.389   1.291  0.7170  5.2793  1.0170
 6697TIP3    H241727   1.717   5.419   1.201  0.3451 -0.2002 -0.7149
 6698TIP3   OH241728   4.391   0.428   7.700  0.5659  0.5770  0.6322
 6698TIP3    H141729   4.304   0.396   7.723 -0.1115  0.6467 -1.5998
 6698TIP3    H241730   4.426   0.361   7.640  1.7359  0.9269  0.8982
 6699TIP3   OH241731   2.677   4.640   7.770  0.0329  0.3413 -0.4076
 6699TIP3    H141732   2.672   4.734   7.752  1.4328  1.1335  2.7630
 6699TIP3    H241733   2.767   4.616   7.746 -0.7452 -0.6717 -2.6876
 6700TIP3   OH241734   0.232   4.935   8.319 -1.0826  0.1494  0.4257
 6700TIP3    H141735   0.277   4.988   8.254  0.6829 -1.5005  0.1905
 6700TIP3    H241736   0.175   4.877   8.268 -2.1664  1.0335  0.6038
 6701TIP3   OH241737   3.145   2.423   7.689 -0.0680 -0.0424  0.0482
 6701TIP3    H141738   3.141   2.512   7.654  0.5639  0.1220  0.3778
 6701TIP3    H241739   3.235   2.395   7.672  0.0297 -0.2422  0.8489
 6702TIP3   OH241740   6.734   1.688   2.083 -0.0145 -0.8471 -0.2329
 6702TIP3    H141741   6.660   1.739   2.048  0.0824 -0.1624  0.5334
 6702TIP3    H241742   6.735   1.708   2.177  1.2091 -0.7531 -0.2453
 6703TIP3   OH241743   3.079   3.712   2.015 -0.4119 -0.0770 -0.1301
 6703TIP3    H141744   3.012   3.766   1.973  0.4677 -0.0904 -1.6052
 6703TIP3    H241745   3.109   3.764   2.089  1.4967  2.2774 -2.3428
 6704TIP3   OH241746   6.487   5.667   8.471  0.7217 -0.2231 -0.1431
 6704TIP3    H141747   6.503   5.761   8.463  1.0197 -0.3632 -1.3123
 6704TIP3    H241748   6.535   5.628   8.399  3.2514 -1.6269  2.1192
 6705TIP3   OH241749   4.973   0.883   8.789 -0.5307 -0.2513 -0.7613
 6705TIP3    H141750   4.966   0.792   8.818 -0.4711 -0.2388 -0.7059
 6705TIP3    H241751   5.018   0.878   8.705  1.6836 -0.0961  0.3628
 6706TIP3   OH241752   3.279   3.060   0.714 -0.1230 -0.0029 -1.3082
 6706TIP3    H141753   3.302   3.152   0.728 -0.4966 -0.2718  1.7808
 6706TIP3    H241754   3.183   3.058   0.720 -0.0487 -0.7291 -0.2371
 6707TIP3   OH241755   4.877   1.333   6.518  0.5366 -0.0815 -0.6035
 6707TIP3    H141756   4.939   1.390   6.473  2.2835 -0.5657  1.0301
 6707TIP3    H241757   4.930   1.259   6.547 -0.4721  0.1613  2.1340
 6708TIP3   OH241758   6.358   4.714   7.336 -0.2837 -0.1337  0.4033
 6708TIP3    H141759   6.295   4.646   7.311  0.3334 -0.7673  0.5648
 6708TIP3    H241760   6.443   4.673   7.326  0.3109  1.5461 -2.5631
 6709TIP3   OH241761   1.120   0.436   7.177  0.0187  0.5894 -0.3230
 6709TIP3    H141762   1.103   0.444   7.083 -0.4814  0.1091 -0.2767
 6709TIP3    H241763   1.136   0.342   7.190 -0.5081  0.5660  0.1724
 6710TIP3   OH241764   5.074   6.106   2.286 -0.3064 -0.3690  0.2431
 6710TIP3    H141765   4.999   6.056   2.255  1.0700 -1.2285 -1.9556
 6710TIP3    H241766   5.097   6.066   2.371 -1.4772 -0.9775  0.2876
 6711TIP3   OH241767   2.225   1.061   6.882 -0.0282  0.4661  0.1258
 6711TIP3    H141768   2.212   1.010   6.802  0.3174 -0.1899  0.4783
 6711TIP3    H241769   2.223   0.997   6.953 -0.5342  1.0649  0.6716
 6712TIP3   OH241770   4.910   5.472   7.205  0.3411 -0.5002  0.8678
 6712TIP3    H141771   4.994   5.502   7.241  0.6381  0.6963 -0.7637
 6712TIP3    H241772   4.932   5.391   7.159  0.6434 -0.0915  0.2865
 6713TIP3   OH241773   2.905   6.816   7.820 -1.1469  0.2354 -0.5054
 6713TIP3    H141774   2.869   6.877   7.884  0.3364 -0.8173  1.4627
 6713TIP3    H241775   2.961   6.758   7.872 -0.5376 -1.2222 -2.6634
 6714TIP3   OH241776   2.712   3.272   0.466 -0.2306  0.1840 -0.2564
 6714TIP3    H141777   2.629   3.223   0.470 -0.4635  0.6448  0.8750
 6714TIP3    H241778   2.688   3.362   0.490  0.5384  0.3920 -0.2504
 6715TIP3   OH241779   2.713   6.170   1.744 -0.3848 -0.3524 -0.1617
 6715TIP3    H141780   2.626   6.207   1.757  0.0081 -0.1338  2.3985
 6715TIP3    H241781   2.700   6.076   1.748 -0.5874 -0.3458 -0.5827
 6716TIP3   OH241782   4.883   0.463   0.641  0.5207 -0.1418  0.0872
 6716TIP3    H141783   4.798   0.483   0.682  0.6355  0.3157  0.1081
 6716TIP3    H241784   4.930   0.547   0.643  0.7036 -0.2306 -0.5678
 6717TIP3   OH241785   0.354   6.754   8.283  0.4089 -0.3914  0.4871
 6717TIP3    H141786   0.404   6.713   8.353 -0.2949 -0.7961  0.7608
 6717TIP3    H241787   0.411   6.825   8.252  0.5270  0.1151  1.7938
 6718TIP3   OH241788   1.357   3.184   8.747 -0.3487  0.2031 -0.2404
 6718TIP3    H141789   1.413   3.262   8.741  0.5695 -0.3553  0.7462
 6718TIP3    H241790   1.268   3.218   8.735 -0.0512  1.5509  1.0900
 6719TIP3   OH241791   2.169   6.250   7.726  0.0208 -0.2991 -0.1266
 6719TIP3    H141792   2.130   6.190   7.790  0.1465  1.7105  1.9721
 6719TIP3    H241793   2.094   6.297   7.689 -0.0846 -1.6984 -1.8264
 6720TIP3   OH241794   3.007   0.886   7.119 -0.3811  0.0300  0.1324
 6720TIP3    H141795   2.956   0.869   7.040 -1.2982 -1.0958  0.9274
 6720TIP3    H241796   2.956   0.950   7.168 -1.0356 -1.0175  0.8781
 6721TIP3   OH241797   2.846   2.597   0.236  0.2786 -0.2897  0.4095
 6721TIP3    H141798   2.912   2.584   0.304 -0.5007 -0.6833  1.1042
 6721TIP3    H241799   2.801   2.677   0.261 -0.6046 -0.9174  0.8597
 6722TIP3   OH241800   4.999   6.434   1.439  0.3591 -0.2778 -0.3167
 6722TIP3    H141801   5.029   6.457   1.527  0.0246 -0.4116 -0.1693
 6722TIP3    H241802   5.019   6.341   1.430  0.8104 -0.1629 -0.5530
 6723TIP3   OH241803   5.598   5.428   2.132  0.5169  0.7323 -0.1777
 6723TIP3    H141804   5.514   5.455   2.169  0.5298  0.2916  0.1838
 6723TIP3    H241805   5.575   5.365   2.064  0.6160 -1.6012  1.7827
 6724TIP3   OH241806   5.209   0.198   8.841 -0.1730  0.1361  0.2646
 6724TIP3    H141807   5.240   0.287   8.858 -0.6572  0.9552 -2.7080
 6724TIP3    H241808   5.269   0.142   8.892  1.8831  2.0114  0.0597
 6725TIP3   OH241809   5.655   3.805   1.575 -0.4820  0.2326  0.0218
 6725TIP3    H141810   5.722   3.745   1.542  1.6551  2.3426  0.2211
 6725TIP3    H241811   5.681   3.822   1.665 -1.2262  1.2176  0.0661
 6726TIP3   OH241812   4.539   6.397   0.917 -0.1708 -0.3299  0.0516
 6726TIP3    H141813   4.457   6.370   0.959 -0.5092  2.0524  1.0767
 6726TIP3    H241814   4.516   6.411   0.825 -1.1504  1.0801  0.4846
 6727TIP3   OH241815   5.123   1.341   7.476  0.3542 -0.3656  0.0831
 6727TIP3    H141816   5.110   1.422   7.428 -0.4173 -0.7058 -0.2962
 6727TIP3    H241817   5.039   1.296   7.471  0.3575 -0.5692  1.4656
 6728TIP3   OH241818   3.712   5.910   2.029 -0.1053  0.1268  0.2522
 6728TIP3    H141819   3.761   5.939   2.105 -1.2659  1.1974  0.6180
 6728TIP3    H241820   3.691   5.819   2.048 -1.6721  0.7774  1.9548
 6729TIP3   OH241821   3.476   1.358   1.638 -0.2505  0.5673  0.1008
 6729TIP3    H141822   3.423   1.398   1.707 -2.6852 -2.6572  0.3548
 6729TIP3    H241823   3.491   1.268   1.668  1.3353 -0.0237 -2.1817
 6730TIP3   OH241824   0.631   5.161   8.578  0.1312 -0.3970  0.8424
 6730TIP3    H141825   0.591   5.137   8.662  0.4728 -0.5730  0.9591
 6730TIP3    H241826   0.725   5.165   8.597  0.0611  1.4835  0.9486
 6731TIP3   OH241827   5.313   0.460   7.536  0.9512 -0.2389 -0.3867
 6731TIP3    H141828   5.317   0.385   7.478 -1.6705 -1.2682  0.6482
 6731TIP3    H241829   5.318   0.423   7.624  3.3379  1.1615  0.1637
 6732TIP3   OH241830   3.002   1.198   7.584 -0.6223  0.0789 -0.4441
 6732TIP3    H141831   3.004   1.141   7.507 -0.5046 -1.9032  0.9283
 6732TIP3    H241832   3.091   1.193   7.619 -0.8553  0.3611  0.2083
 6733TIP3   OH241833   0.426   2.875   6.905 -0.1747  0.1097  0.6270
 6733TIP3    H141834   0.363   2.940   6.935  1.7948  2.4647  0.0090
 6733TIP3    H241835   0.508   2.899   6.949  0.7680 -1.5774 -0.1047
 6734TIP3   OH241836   6.797   0.492   7.092 -0.1601  0.3787  0.2206
 6734TIP3    H141837   6.810   0.525   7.003 -0.3873  0.2701  0.1490
 6734TIP3    H241838   6.704   0.504   7.109 -0.1232  0.3637  0.4296
 6735TIP3   OH241839   3.493   3.441   1.839  0.5022  0.5235 -0.1827
 6735TIP3    H141840   3.442   3.488   1.905 -0.1370  0.4134 -0.5928
 6735TIP3    H241841   3.496   3.351   1.870  2.3787  0.9484  1.0006
 6736TIP3   OH241842   5.342   6.535   0.349 -0.6827 -0.2881  0.0786
 6736TIP3    H141843   5.355   6.538   0.444  0.6698 -0.3843 -0.0855
 6736TIP3    H241844   5.257   6.578   0.336  0.9063  3.5964  1.0164
 6737TIP3   OH241845   4.480   2.539   6.641  0.0999 -0.1974 -0.1931
 6737TIP3    H141846   4.523   2.531   6.726 -1.4653 -1.8612  0.5139
 6737TIP3    H241847   4.523   2.473   6.586  0.4365  0.1941 -0.4088
 6738TIP3   OH241848   2.108   0.793   6.397 -0.4580 -0.1775  0.0922
 6738TIP3    H141849   2.072   0.740   6.326 -0.1350  2.5058 -2.2870
 6738TIP3    H241850   2.036   0.804   6.459 -1.3121 -1.1751 -0.7071
 6739TIP3   OH241851   5.423   1.903   2.349  0.0784 -1.0028 -0.7262
 6739TIP3    H141852   5.347   1.901   2.291  0.2717 -1.6061 -0.9670
 6739TIP3    H241853   5.498   1.893   2.291  0.5810  2.2430 -0.8327
 6740TIP3   OH241854   2.297   2.624   7.147 -0.1390 -0.1229 -0.3072
 6740TIP3    H141855   2.254   2.546   7.182  1.5050 -2.4304 -2.9447
 6740TIP3    H241856   2.228   2.669   7.098 -0.9683 -0.2718  0.6931
 6741TIP3   OH241857   5.769   2.326   2.518  0.3187 -0.1980  0.1273
 6741TIP3    H141858   5.865   2.324   2.526  0.4449  0.6330 -0.9219
 6741TIP3    H241859   5.750   2.268   2.444 -0.2290 -2.2707  1.7851
 6742TIP3   OH241860   2.402   0.875   8.089  0.8174 -0.2024 -0.0494
 6742TIP3    H141861   2.426   0.799   8.035 -0.4328  0.0352 -0.9626
 6742TIP3    H241862   2.320   0.849   8.130  0.2740  0.7268 -0.5327
 6743TIP3   OH241863   1.657   1.740   1.934 -0.0650 -0.5034 -0.3391
 6743TIP3    H141864   1.738   1.710   1.976 -0.5761 -1.4377 -0.0108
 6743TIP3    H241865   1.587   1.700   1.985 -0.7217 -0.3546 -1.1136
 6744TIP3   OH241866   2.225   4.245   8.798  0.1192  0.3288 -0.0449
 6744TIP3    H141867   2.263   4.188   8.732 -0.2349  1.3004 -1.1249
 6744TIP3    H241868   2.188   4.318   8.748 -1.0558  0.5870  1.1422
 6745TIP3   OH241869   3.792   2.242   0.002 -0.1860  0.2768 -0.3758
 6745TIP3    H141870   3.707   2.264  -0.037 -0.2367  0.5878 -0.0976
 6745TIP3    H241871   3.779   2.156   0.040  0.1130 -0.4038 -1.7718
 6746TIP3   OH241872   1.209   2.639   0.964 -0.0466 -0.4914 -0.4913
 6746TIP3    H141873   1.224   2.575   1.033 -1.8553  0.6401  1.0301
 6746TIP3    H241874   1.297   2.663   0.934  0.7019 -2.5990 -0.1256
 6747TIP3   OH241875   0.644   1.574   0.176  0.2765 -0.1974 -0.2017
 6747TIP3    H141876   0.660   1.667   0.161 -2.1312  0.4664  0.8220
 6747TIP3    H241877   0.596   1.545   0.098  1.3198 -0.7061 -0.6763
 6748TIP3   OH241878   2.834   4.847   1.348  0.1313 -0.1796  0.1211
 6748TIP3    H141879   2.875   4.762   1.336 -0.6112 -0.3225 -1.7004
 6748TIP3    H241880   2.747   4.837   1.310 -0.6270  0.9009  1.4694
 6749TIP3   OH241881   1.064   3.750   1.401 -0.0099  0.3744 -0.3195
 6749TIP3    H141882   1.146   3.762   1.449  0.3451 -0.3045 -0.7413
 6749TIP3    H241883   1.087   3.691   1.329 -1.0674 -0.5461  0.0774
 6750TIP3   OH241884   6.016   4.868   7.561  0.0528  0.1142 -0.6348
 6750TIP3    H141885   6.070   4.940   7.592  1.1788  0.0215 -2.2536
 6750TIP3    H241886   6.072   4.791   7.570  0.0019 -0.0772 -1.7589
 6751TIP3   OH241887   4.987   0.821   7.389 -0.3459  0.5085 -0.3064
 6751TIP3    H141888   4.998   0.902   7.339 -1.5267 -0.1778 -1.7441
 6751TIP3    H241889   4.982   0.752   7.323  1.9024 -0.9708  0.8999
 6752TIP3   OH241890   5.510   0.355   0.570  0.4128  0.3118  0.2850
 6752TIP3    H141891   5.540   0.412   0.641 -1.4874  0.5580  0.9546
 6752TIP3    H241892   5.453   0.291   0.613 -1.1504  0.7490 -1.0169
 6753TIP3   OH241893   5.571   6.743   7.135 -0.2065 -0.2307  0.2928
 6753TIP3    H141894   5.506   6.673   7.147  0.8033 -1.0776  0.9414
 6753TIP3    H241895   5.630   6.734   7.210  0.7677  0.4130 -0.3756
 6754TIP3   OH241896   6.189   3.983   1.801 -0.3893 -1.0895  0.6238
 6754TIP3    H141897   6.272   3.971   1.755 -1.6165 -2.1083 -1.4827
 6754TIP3    H241898   6.142   3.901   1.787 -1.9087 -0.3901  1.4118
 6755TIP3   OH241899   5.098   3.002   8.166 -0.0996  0.1290  0.2215
 6755TIP3    H141900   5.087   2.996   8.261  1.9593  0.6471  0.5549
 6755TIP3    H241901   5.054   2.924   8.131 -0.5385 -0.2842  1.6258
 6756TIP3   OH241902   0.018   1.856   0.337 -0.4580  0.0439 -0.3972
 6756TIP3    H141903   0.028   1.921   0.406 -1.2842 -0.9771  0.7357
 6756TIP3    H241904   0.107   1.839   0.306 -0.2139  1.5388 -0.5942
 6757TIP3   OH241905   1.248   5.859   2.126 -0.1395 -0.0297 -0.3276
 6757TIP3    H141906   1.317   5.845   2.192  1.3526 -1.0761 -2.0208
 6757TIP3    H241907   1.284   5.926   2.068 -1.8758  1.6567  0.4023
 6758TIP3   OH241908   0.336   4.269   1.619  0.0740  0.0627  0.2423
 6758TIP3    H141909   0.258   4.232   1.578  1.0101  1.5879 -3.3080
 6758TIP3    H241910   0.360   4.206   1.686 -3.7608 -0.7963  1.0416
 6759TIP3   OH241911   6.506   6.705   0.609 -0.1654  0.2136 -0.1995
 6759TIP3    H141912   6.460   6.787   0.589  2.6573  2.3361  1.2721
 6759TIP3    H241913   6.533   6.672   0.523 -1.2596  0.8537 -0.8208
 6760TIP3   OH241914   6.074   0.211   7.273  0.4949  0.8634 -0.1116
 6760TIP3    H141915   6.061   0.305   7.280 -2.4979  0.5384  0.0047
 6760TIP3    H241916   6.103   0.197   7.183 -2.7239  1.7044 -1.4386
 6761TIP3   OH241917   4.445   1.532   2.306 -0.2820 -0.0771  0.0718
 6761TIP3    H141918   4.435   1.465   2.238 -0.8020  0.7761 -0.7107
 6761TIP3    H241919   4.469   1.611   2.258  0.7387  0.2081  1.0277
 6762TIP3   OH241920   2.108   3.457   8.198  0.4566 -0.1065 -0.5715
 6762TIP3    H141921   2.142   3.423   8.281 -2.4465  0.1479  0.8787
 6762TIP3    H241922   2.056   3.533   8.223 -1.1075 -0.4485 -2.5027
 6763TIP3   OH241923   0.525   3.427   0.793 -0.0088 -0.0358  0.4920
 6763TIP3    H141924   0.612   3.461   0.810  0.8530 -1.8052 -0.1188
 6763TIP3    H241925   0.538   3.333   0.778 -1.7098  0.0082 -1.8648
 6764TIP3   OH241926   0.784   4.412   0.951  0.5418  0.0549  0.4332
 6764TIP3    H141927   0.799   4.376   1.039  2.1483 -2.1355 -0.6369
 6764TIP3    H241928   0.855   4.375   0.898 -1.2671  0.0556 -2.1439
 6765TIP3   OH241929   5.169   4.249   6.463  0.0799  0.0158  0.1535
 6765TIP3    H141930   5.221   4.258   6.543 -1.1145 -0.1268  0.9701
 6765TIP3    H241931   5.120   4.330   6.457  0.0920 -0.0135 -0.3898
 6766TIP3   OH241932   1.055   3.119   2.849  0.8108  0.4751 -0.9569
 6766TIP3    H141933   0.977   3.066   2.831  0.6137  0.7887 -1.0306
 6766TIP3    H241934   1.125   3.055   2.863  0.5359  0.1920 -0.8703
 6767TIP3   OH241935   3.113   0.481   8.675  0.3351  0.1353  0.7494
 6767TIP3    H141936   3.030   0.522   8.651 -0.5071 -1.8559  0.0726
 6767TIP3    H241937   3.139   0.432   8.598  2.0781  0.5541  1.0238
 6768TIP3   OH241938   2.692   4.382   0.910  0.0594  0.3848  0.0429
 6768TIP3    H141939   2.607   4.425   0.900  0.7617  1.7849 -0.1449
 6768TIP3    H241940   2.754   4.441   0.868  1.3194  0.1051  1.4123
 6769TIP3   OH241941   6.624   6.124   1.700  0.0546  0.1722 -0.3130
 6769TIP3    H141942   6.538   6.162   1.715  0.7679  0.9825  2.1896
 6769TIP3    H241943   6.641   6.070   1.777  1.2452 -1.0808 -1.3912
 6770TIP3   OH241944   3.132   2.650   6.728  0.2446 -0.4340 -0.3348
 6770TIP3    H141945   3.104   2.570   6.682  1.3247 -1.0608  0.0500
 6770TIP3    H241946   3.228   2.642   6.732  0.2498  0.1494  1.0323
 6771TIP3   OH241947   5.301   1.641   1.254 -0.0297 -0.2981  0.5118
 6771TIP3    H141948   5.206   1.642   1.265 -0.2071  0.7212 -0.8271
 6771TIP3    H241949   5.333   1.709   1.314 -0.4837  1.5719 -1.2617
 6772TIP3   OH241950   0.022   6.588   6.299  0.3420  0.5695  0.1061
 6772TIP3    H141951   0.004   6.627   6.384  1.9233  2.1817 -0.2487
 6772TIP3    H241952   0.109   6.619   6.276 -0.5604  1.2672 -2.6990
 6773TIP3   OH241953   4.285   4.964   8.062 -0.0549  0.1098 -0.4619
 6773TIP3    H141954   4.341   5.033   8.096  1.4704 -1.2258 -0.1540
 6773TIP3    H241955   4.208   5.011   8.027  0.8735  1.9264 -0.1992
 6774TIP3   OH241956   4.805   2.742   1.927 -0.1533  0.6306  0.1066
 6774TIP3    H141957   4.711   2.725   1.914  0.3057 -1.1277 -1.4640
 6774TIP3    H241958   4.823   2.714   2.017 -0.8885 -0.4492 -0.0558
 6775TIP3   OH241959   1.456   3.365   1.308 -0.4191  0.2740  0.1178
 6775TIP3    H141960   1.549   3.385   1.319 -0.0321 -1.4059  0.0649
 6775TIP3    H241961   1.415   3.394   1.390  0.2782  0.2674  0.4732
 6776TIP3   OH241962   0.362   2.000   8.901  0.5279  0.4192  0.6340
 6776TIP3    H141963   0.435   1.948   8.868 -0.2685 -0.4881  0.2450
 6776TIP3    H241964   0.295   1.993   8.832 -0.6002 -0.2794  1.7609
 6777TIP3   OH241965   2.175   1.345   0.583  0.2938  0.5103  0.2521
 6777TIP3    H141966   2.105   1.291   0.545  1.1774 -0.2622 -0.3381
 6777TIP3    H241967   2.130   1.417   0.627 -0.8861 -0.3025  0.3982
 6778TIP3   OH241968   1.516   5.287   8.821 -0.4801  0.0456  0.2836
 6778TIP3    H141969   1.582   5.262   8.885  0.2690  0.5597 -0.2650
 6778TIP3    H241970   1.437   5.306   8.872 -0.5468 -1.6268  0.8659
 6779TIP3   OH241971   1.892   2.481   0.366 -0.1638  0.2613  0.2277
 6779TIP3    H141972   1.854   2.548   0.309  0.2244 -0.1135 -0.4796
 6779TIP3    H241973   1.972   2.522   0.400  1.0795 -0.4745 -1.6675
 6780TIP3   OH241974   4.679   0.255   7.494  0.2225 -0.3102  0.4723
 6780TIP3    H141975   4.662   0.262   7.588  1.0072 -1.7768  0.7468
 6780TIP3    H241976   4.654   0.165   7.472 -0.1437  0.0741 -0.7773
 6781TIP3   OH241977   4.993   5.846   7.674  0.2658  0.0481  0.2934
 6781TIP3    H141978   5.039   5.929   7.680  0.8844 -0.3234  0.9326
 6781TIP3    H241979   5.061   5.783   7.648 -0.7574  0.2102 -3.3454
 6782TIP3   OH241980   1.616   3.636   8.269 -0.2559  0.3089  0.0397
 6782TIP3    H141981   1.604   3.546   8.239 -1.3213  0.3856  0.2244
 6782TIP3    H241982   1.602   3.690   8.191 -1.3958  0.4087  0.2953
 6783TIP3   OH241983   3.337   2.971   8.788 -0.2810 -0.1307 -0.5349
 6783TIP3    H141984   3.345   3.045   8.728 -0.1725 -1.1939 -1.8896
 6783TIP3    H241985   3.252   2.983   8.830  0.7734  2.0599  1.1643
 6784TIP3   OH241986   0.794   2.846   0.115 -0.4622  0.9265  0.4509
 6784TIP3    H141987   0.728   2.874   0.052  0.6393  0.0752 -1.1666
 6784TIP3    H241988   0.830   2.765   0.078  0.9879  0.9881  1.6193
 6785TIP3   OH241989   2.046   3.907   8.710  0.5854  0.3139  0.5275
 6785TIP3    H141990   2.026   3.986   8.660 -2.0129  0.4521  1.6534
 6785TIP3    H241991   2.071   3.939   8.796 -1.7431 -0.0271  1.4010
 6786TIP3   OH241992   3.253   1.155   7.693  0.1230 -0.4441 -0.0671
 6786TIP3    H141993   3.295   1.078   7.655  0.5265  0.7944 -2.3294
 6786TIP3    H241994   3.322   1.198   7.744  0.9721  0.2204 -1.6801
 6787TIP3   OH241995   1.893   6.281   8.860  0.9161 -0.2164  0.3007
 6787TIP3    H141996   1.876   6.224   8.935 -1.6236 -0.7769 -0.5925
 6787TIP3    H241997   1.893   6.369   8.896 -0.3799 -0.4719  0.9742
 6788TIP3   OH241998   4.379   4.765   0.587  0.0782  0.1943 -0.2242
 6788TIP3    H141999   4.329   4.846   0.590  0.0549  0.1534  1.1515
 6788TIP3    H242000   4.317   4.698   0.614 -0.4089 -0.6122 -2.9794
 6789TIP3   OH242001   4.687   6.337   1.926  0.5391  0.1291 -0.6470
 6789TIP3    H142002   4.758   6.302   1.871  2.5947  0.6125  1.5730
 6789TIP3    H242003   4.679   6.274   1.998 -0.4129  0.7628 -0.1725
 6790TIP3   OH242004   4.427   0.969   8.225  0.1879  0.0832 -0.1024
 6790TIP3    H142005   4.434   0.970   8.129 -0.2024  0.3274 -0.1318
 6790TIP3    H242006   4.479   0.894   8.252 -1.7942 -1.5644 -0.6810
 6791TIP3   OH242007   1.742   2.679   0.656  0.2672 -0.0380 -0.2217
 6791TIP3    H142008   1.790   2.762   0.654  0.2525 -0.0056  0.6086
 6791TIP3    H242009   1.655   2.702   0.688 -0.1121 -0.1984 -1.1085
 6792TIP3   OH242010   1.559   4.904   7.830 -0.0101  0.5274  0.0595
 6792TIP3    H142011   1.465   4.908   7.812 -0.0328 -0.7497 -0.2157
 6792TIP3    H242012   1.587   4.820   7.792  0.7318 -0.3537  2.4119
 6793TIP3   OH242013   5.369   5.034   0.111  0.1051 -0.1870  0.4393
 6793TIP3    H142014   5.394   5.089   0.037 -0.9123  0.7995  0.8013
 6793TIP3    H242015   5.447   4.981   0.129  1.3406  1.5475  0.4507
 6794TIP3   OH242016   6.133   3.765   1.617  0.0480 -0.0574  0.6411
 6794TIP3    H142017   6.057   3.817   1.593 -1.0786 -1.4099  1.1499
 6794TIP3    H242018   6.167   3.731   1.534 -0.6306 -0.4057  0.4990
 6795TIP3   OH242019   6.291   1.563   2.438  0.6398 -0.1074 -0.3712
 6795TIP3    H142020   6.334   1.625   2.380  0.8564 -0.7079 -0.8578
 6795TIP3    H242021   6.199   1.564   2.411  0.7535 -0.4423 -0.7869
 6796TIP3   OH242022   0.647   0.039   8.352 -0.6936 -0.3671 -0.1454
 6796TIP3    H142023   0.585   0.102   8.389 -0.3287 -1.3482  2.3412
 6796TIP3    H242024   0.697   0.089   8.288 -2.1951  1.1524 -0.2096
 6797TIP3   OH242025   4.923   4.194   6.291  0.1592  0.3545  0.0926
 6797TIP3    H142026   4.963   4.246   6.361  1.9775 -1.9677  0.9113
 6797TIP3    H242027   4.991   4.132   6.265 -2.2601 -2.5663  0.1518
 6798TIP3   OH242028   0.908   6.415   0.233  0.0884 -0.3164 -0.4454
 6798TIP3    H142029   0.859   6.439   0.155  1.8118 -1.7278 -2.0505
 6798TIP3    H242030   0.977   6.482   0.239  0.5380 -0.7542 -0.7027
 6799TIP3   OH242031   3.795   1.900   8.810 -1.1539 -0.5322  0.5618
 6799TIP3    H142032   3.872   1.929   8.760  2.0170 -3.2119  3.3781
 6799TIP3    H242033   3.746   1.845   8.749 -0.8028  1.0708 -1.2562
 6800TIP3   OH242034   6.503   2.597   0.921 -0.1841 -0.4054  0.0283
 6800TIP3    H142035   6.564   2.668   0.937  1.9555 -1.8765 -1.0888
 6800TIP3    H242036   6.541   2.521   0.966 -0.4309 -1.6849 -1.7833
 6801TIP3   OH242037   0.644   2.138   8.728 -0.2884  0.1810 -0.2279
 6801TIP3    H142038   0.720   2.193   8.741 -0.1437  0.0783 -0.6541
 6801TIP3    H242039   0.656   2.099   8.642  0.3401 -1.6345  0.6295
 6802TIP3   OH242040   4.787   4.109   1.175 -0.7042  0.1667  0.2983
 6802TIP3    H142041   4.785   4.144   1.085 -2.3548 -2.2252 -0.7012
 6802TIP3    H242042   4.863   4.052   1.176 -0.5320  0.3980  0.5248
 6803TIP3   OH242043   5.281   0.989   7.145 -0.5855 -0.8760  0.7569
 6803TIP3    H142044   5.330   0.980   7.227 -1.2051  0.6730  1.3323
 6803TIP3    H242045   5.304   0.911   7.094  2.0610 -0.4737  1.2144
 6804TIP3   OH242046   0.181   2.513   8.692  0.3236 -0.1098  0.3176
 6804TIP3    H142047   0.234   2.514   8.613 -2.7148  1.0288 -1.8834
 6804TIP3    H242048   0.155   2.421   8.703  1.5693 -0.4407  0.6424
 6805TIP3   OH242049   4.757   2.094   1.292  0.7722 -0.0817  0.0920
 6805TIP3    H142050   4.787   2.115   1.380 -0.1432  0.4928  0.2818
 6805TIP3    H242051   4.662   2.108   1.295  0.8732  1.2262 -1.3401
 6806TIP3   OH242052   3.655   3.845   8.862  0.3016 -0.2263 -0.8118
 6806TIP3    H142053   3.647   3.765   8.914  0.2425 -0.3987 -1.0837
 6806TIP3    H242054   3.569   3.857   8.822  0.1661  0.2404 -0.3923
 6807TIP3   OH242055   1.958   6.688   6.523  0.2525 -0.1021 -0.1594
 6807TIP3    H142056   1.876   6.717   6.484  0.0835  0.4767  0.5930
 6807TIP3    H242057   1.939   6.684   6.617  1.2124  0.4873  0.0752
 6808TIP3   OH242058   5.196   4.878   0.237 -0.3081  0.4609  0.1641
 6808TIP3    H142059   5.152   4.955   0.272 -2.5293 -0.1669 -1.0611
 6808TIP3    H242060   5.253   4.912   0.169  0.0927  1.1618  0.8258
 6809TIP3   OH242061   5.811   6.382   7.538  0.0426  0.0695  0.1764
 6809TIP3    H142062   5.828   6.376   7.632 -0.2803  1.0801  0.3000
 6809TIP3    H242063   5.890   6.344   7.498 -0.7030 -2.3986  0.8511
 6810TIP3   OH242064   5.022   0.514   7.398  0.8277  0.3514 -0.0105
 6810TIP3    H142065   5.056   0.561   7.322 -1.2827  0.6698 -0.8297
 6810TIP3    H242066   5.004   0.426   7.366  0.8667  0.1928  0.3917
 6811TIP3   OH242067   5.637   5.797   0.732  0.5374  0.5109  0.0701
 6811TIP3    H142068   5.556   5.755   0.702 -0.4871  2.3683  0.1307
 6811TIP3    H242069   5.686   5.814   0.651  0.7151 -0.2435  0.0053
 6812TIP3   OH242070   4.836   2.608   7.571  0.3043 -0.4763 -0.4456
 6812TIP3    H142071   4.851   2.702   7.558 -0.8649 -0.2100 -0.0035
 6812TIP3    H242072   4.915   2.577   7.615 -0.1109  0.7230  1.2241
 6813TIP3   OH242073   3.042   5.158   7.705  0.1838  0.5039  0.2551
 6813TIP3    H142074   3.017   5.095   7.637 -0.3528 -1.1282  1.8740
 6813TIP3    H242075   3.133   5.134   7.727  0.2020  0.7192  0.4198
 6814TIP3   OH242076   0.464   0.617   0.434 -0.5486 -0.3233 -0.4205
 6814TIP3    H142077   0.402   0.628   0.506  0.1991 -0.1584  0.2087
 6814TIP3    H242078   0.460   0.524   0.413 -0.6742 -0.3940 -0.0851
 6815TIP3   OH242079   5.717   4.861   7.608 -0.3849 -0.3022 -0.0049
 6815TIP3    H142080   5.720   4.832   7.699  0.5840 -2.6151 -0.6933
 6815TIP3    H242081   5.808   4.857   7.578 -0.5952  1.0719 -0.9140
 6816TIP3   OH242082   5.422   4.640   1.603 -0.4383  0.0747 -0.1080
 6816TIP3    H142083   5.489   4.651   1.535  0.0294 -3.0724 -0.2936
 6816TIP3    H242084   5.469   4.657   1.685  0.1339 -0.3159 -0.3490
 6817TIP3   OH242085   5.278   6.411   7.527 -0.1322 -0.2722 -0.8785
 6817TIP3    H142086   5.268   6.365   7.443 -1.7609 -0.2837 -0.7060
 6817TIP3    H242087   5.195   6.400   7.571  1.2296 -1.7058  1.5291
 6818TIP3   OH242088   1.490   1.371   0.145 -0.1953 -0.0412 -0.4654
 6818TIP3    H142089   1.496   1.405   0.234  1.7363 -0.5372 -0.3534
 6818TIP3    H242090   1.398   1.380   0.121 -0.8636 -0.3727  1.7707
 6819TIP3   OH242091   0.036   6.613   7.640  0.2306  0.2618  0.0596
 6819TIP3    H142092   0.016   6.696   7.682 -0.9926  1.5662 -2.8504
 6819TIP3    H242093   0.132   6.607   7.644  0.4136  2.2254 -0.3530
 6820TIP3   OH242094   5.970   3.272   1.724  0.5182  0.1210  0.5285
 6820TIP3    H142095   6.059   3.237   1.718  0.0826 -1.0360  0.5305
 6820TIP3    H242096   5.982   3.367   1.729  1.7388 -0.0003  0.3179
 6821TIP3   OH242097   6.373   4.702   1.269 -0.8537 -0.4245 -0.3363
 6821TIP3    H142098   6.353   4.760   1.342  0.5861  0.5464 -0.6816
 6821TIP3    H242099   6.467   4.684   1.276 -0.9479 -1.4122 -1.1750
 6822TIP3   OH242100   1.853   5.282   0.681 -0.0452 -0.0683  0.1649
 6822TIP3    H142101   1.883   5.365   0.643 -0.9444  0.4865  0.6392
 6822TIP3    H242102   1.859   5.219   0.609  0.6506  0.4061 -0.2015
 6823TIP3   OH242103   3.759   2.243   2.383  0.3279  0.0878 -0.7126
 6823TIP3    H142104   3.813   2.172   2.349  0.1664  0.0868 -0.9628
 6823TIP3    H242105   3.811   2.323   2.368  0.5967  0.0063 -0.2524
 6824TIP3   OH242106   5.007   6.107   8.349  0.0101  0.5242  0.1677
 6824TIP3    H142107   4.960   6.189   8.360  0.3997  0.6652  0.8723
 6824TIP3    H242108   5.044   6.111   8.261 -1.2267  0.4383 -0.3692
 6825TIP3   OH242109   4.211   4.513   1.370 -0.2743  0.2046 -0.0164
 6825TIP3    H142110   4.257   4.588   1.331 -0.1517  1.0304  1.6334
 6825TIP3    H242111   4.120   4.524   1.343 -0.2110  0.8251 -0.0002
 6826TIP3   OH242112   4.159   3.877   1.550  0.4068  0.4881  0.1967
 6826TIP3    H142113   4.243   3.906   1.516  0.2789  0.7964  0.1499
 6826TIP3    H242114   4.152   3.920   1.635 -0.3247  1.5438 -0.3859
 6827TIP3   OH242115   6.267   2.207   7.865 -0.5371 -0.3173 -0.4015
 6827TIP3    H142116   6.197   2.159   7.909 -0.0384 -0.9850 -0.3196
 6827TIP3    H242117   6.234   2.222   7.776 -1.3346  0.5751  0.0294
 6828TIP3   OH242118   0.087   3.423   8.699 -0.4535 -0.0220 -0.1494
 6828TIP3    H142119   0.041   3.498   8.662  0.9856  0.0220 -2.0167
 6828TIP3    H242120   0.144   3.461   8.767 -1.1800  0.2725  0.3108
 6829TIP3   OH242121   1.355   0.838   7.951 -0.0033 -0.0525  0.0080
 6829TIP3    H142122   1.440   0.880   7.938 -0.1996 -0.0438 -1.3829
 6829TIP3    H242123   1.296   0.910   7.972 -0.3044  0.4254 -2.2073
 6830TIP3   OH242124   0.474   4.027   0.149  0.0272 -0.1794  0.5118
 6830TIP3    H142125   0.408   3.958   0.142  0.1149 -0.2467  0.3546
 6830TIP3    H242126   0.448   4.077   0.227 -1.3149  0.9553 -0.6043
 6831TIP3   OH242127   0.709   6.285   2.194 -0.4047  0.4961  0.4654
 6831TIP3    H142128   0.684   6.193   2.184  1.2871  0.1686 -1.4018
 6831TIP3    H242129   0.636   6.333   2.154 -0.6233 -0.1099  0.1173
 6832TIP3   OH242130   1.148   4.199   1.098  0.0385  0.8303  0.3435
 6832TIP3    H142131   1.239   4.227   1.089  0.5332 -0.7694 -0.0272
 6832TIP3    H242132   1.105   4.234   1.020  0.7897  0.0056 -0.4640
 6833TIP3   OH242133   1.834   6.469   7.468 -0.2401  0.3610  0.1450
 6833TIP3    H142134   1.772   6.399   7.451  1.9121 -1.9515  1.1405
 6833TIP3    H242135   1.845   6.513   7.384 -3.2045  0.9408 -0.0254
 6834TIP3   OH242136   4.489   3.707   6.992  0.0902  0.0062 -0.5934
 6834TIP3    H142137   4.444   3.754   7.062 -1.6776  0.3732 -1.9143
 6834TIP3    H242138   4.512   3.775   6.929  3.9081  0.0751  0.6270
 6835TIP3   OH242139   5.936   3.058   7.029  0.2138  0.3165  0.8616
 6835TIP3    H142140   5.930   3.142   7.073  0.8236  1.9332 -1.8743
 6835TIP3    H242141   6.030   3.037   7.031  0.2517  0.4240  0.3372
 6836TIP3   OH242142   0.819   3.583   8.905 -0.1085 -0.5121 -0.0864
 6836TIP3    H142143   0.855   3.605   8.819 -0.8074 -1.9943 -0.7884
 6836TIP3    H242144   0.831   3.488   8.912  0.8196 -0.2924  1.8776
 6837TIP3   OH242145   6.513   3.488   1.779  0.4757 -0.5460 -0.1142
 6837TIP3    H142146   6.548   3.479   1.690  0.4655 -1.8002 -0.0090
 6837TIP3    H242147   6.458   3.567   1.776  1.0276 -0.1871 -1.0306
 6838TIP3   OH242148   5.799   1.281   0.042  0.4644 -0.3149 -0.2303
 6838TIP3    H142149   5.810   1.194   0.079 -0.5818 -0.1811  0.4224
 6838TIP3    H242150   5.714   1.311   0.074 -0.1675  0.1021 -2.1788
 6839TIP3   OH242151   0.485   5.372   0.193 -0.0278 -0.0147  0.3757
 6839TIP3    H142152   0.512   5.306   0.256  0.8300 -0.5093 -0.4824
 6839TIP3    H242153   0.393   5.354   0.176 -0.1370 -0.1655  1.1233
 6840TIP3   OH242154   5.522   2.197   0.788 -0.1603 -0.1788  0.2471
 6840TIP3    H142155   5.539   2.274   0.733  1.5515 -0.7668 -0.1126
 6840TIP3    H242156   5.454   2.226   0.849 -1.1256  0.9349 -1.2688
 6841TIP3   OH242157   4.981   3.189   0.076  0.5514 -0.1536  0.2718
 6841TIP3    H142158   4.996   3.283   0.076  1.4972 -0.2809 -1.0285
 6841TIP3    H242159   5.054   3.152   0.027 -1.2748 -1.3078 -1.7734
 6842TIP3   OH242160   0.321   6.419   1.762  0.0142 -0.2775  0.3495
 6842TIP3    H142161   0.288   6.451   1.677  0.2761  0.0767  0.3788
 6842TIP3    H242162   0.332   6.498   1.814  1.3022 -0.3501  0.2040
 6843TIP3   OH242163   5.977   2.762   7.099  0.2507 -0.0080  0.4419
 6843TIP3    H142164   5.962   2.851   7.070  0.0826  0.0199  0.6093
 6843TIP3    H242165   6.072   2.751   7.098  0.2545 -0.9985 -3.0804
 6844TIP3   OH242166   5.770   2.538   1.278 -0.7187 -0.3526 -0.3504
 6844TIP3    H142167   5.834   2.467   1.276  2.8083  2.4338  1.3262
 6844TIP3    H242168   5.766   2.571   1.188 -0.7101 -1.2973 -0.6995
 6845TIP3   OH242169   0.061   6.240   6.893  0.1082  0.5672  0.4810
 6845TIP3    H142170   0.120   6.313   6.911  0.6911 -0.3688  2.6191
 6845TIP3    H242171   0.041   6.249   6.800  0.7537  2.9906  0.4994
 6846TIP3   OH242172   4.966   4.401   1.221  0.1464  0.4045  0.3916
 6846TIP3    H142173   4.874   4.378   1.234 -0.0765  2.3415  3.2273
 6846TIP3    H242174   4.966   4.461   1.146 -1.2229  1.6887  1.3498
 6847TIP3   OH242175   3.071   1.772   7.168 -0.0516 -0.3749  0.4241
 6847TIP3    H142176   3.007   1.831   7.207  1.5296  0.4376  1.9226
 6847TIP3    H242177   3.104   1.818   7.091 -0.1320 -0.1049  0.5513
 6848TIP3   OH242178   0.321   3.475   8.354 -0.2013  0.0861 -0.1057
 6848TIP3    H142179   0.262   3.527   8.409  1.4778  0.6091  1.3024
 6848TIP3    H242180   0.369   3.540   8.303 -2.1866 -0.4038 -2.8371
 6849TIP3   OH242181   4.182   1.703   6.807  0.2845  0.4731 -0.4385
 6849TIP3    H142182   4.176   1.746   6.721  0.7960  0.4588 -0.4863
 6849TIP3    H242183   4.269   1.726   6.839  0.4984 -0.3877 -0.3902
 6850TIP3   OH242184   6.269   5.089   0.115  0.3736  0.0747 -0.3329
 6850TIP3    H142185   6.298   5.027   0.048  1.3411  0.8798 -0.6752
 6850TIP3    H242186   6.228   5.161   0.066  0.0742  0.1466  0.0150
 6851TIP3   OH242187   3.284   6.780   0.010  0.0408  0.4730  0.1737
 6851TIP3    H142188   3.198   6.742  -0.008 -0.9795  2.5525  0.2851
 6851TIP3    H242189   3.300   6.761   0.103 -0.0154 -0.4093  0.0124
 6852TIP3   OH242190   0.627   3.707   1.742  0.3585  0.2039 -0.3356
 6852TIP3    H142191   0.683   3.641   1.701 -1.1317 -1.6641  0.4874
 6852TIP3    H242192   0.547   3.706   1.689  0.0339  0.8259  0.1347
 6853TIP3   OH242193   2.476   1.515   2.474  0.3089  0.2887  0.3311
 6853TIP3    H142194   2.400   1.568   2.499 -0.2651 -0.1480 -0.4813
 6853TIP3    H242195   2.470   1.438   2.530 -0.1009  0.0438 -0.0466
 6854TIP3   OH242196   3.351   2.702   1.790 -0.8447  0.1709  0.0621
 6854TIP3    H142197   3.308   2.728   1.708  0.6257  2.6273 -0.0033
 6854TIP3    H242198   3.322   2.766   1.854 -0.4455 -0.5751  1.0073
 6855TIP3   OH242199   6.171   0.917   0.822  0.0646 -0.2402 -0.2611
 6855TIP3    H142200   6.097   0.931   0.882  1.3168  1.5536  0.9626
 6855TIP3    H242201   6.188   0.823   0.827 -2.1589 -0.7241 -0.6498
 6856TIP3   OH242202   3.460   3.820   7.426  0.6454 -0.1486  0.2790
 6856TIP3    H142203   3.541   3.796   7.471  0.2092 -2.7709 -0.1770
 6856TIP3    H242204   3.489   3.856   7.342  1.3696  0.0407  0.6063
 6857TIP3   OH242205   4.894   0.563   8.898 -0.2025 -0.0836  0.5238
 6857TIP3    H142206   4.942   0.533   8.821  1.4496  0.3327  1.3398
 6857TIP3    H242207   4.938   0.520   8.972 -0.7942  0.6749  1.3400
 6858TIP3   OH242208   3.043   6.023   1.895  0.1325 -0.0625  0.4533
 6858TIP3    H142209   2.955   6.046   1.924 -0.0986  0.7117 -0.8051
 6858TIP3    H242210   3.073   6.099   1.846  0.4094 -1.3754 -1.5101
 6859TIP3   OH242211   1.636   5.230   0.145  0.2412  0.1174 -0.0562
 6859TIP3    H142212   1.561   5.177   0.171 -1.6847  2.5945 -0.2937
 6859TIP3    H242213   1.649   5.292   0.216 -1.1446  2.8975 -2.0529
 6860TIP3   OH242214   3.437   3.095   1.415  0.2282 -0.0387 -0.4979
 6860TIP3    H142215   3.480   3.171   1.376  0.5387 -0.0893 -0.2572
 6860TIP3    H242216   3.492   3.072   1.490  0.1450 -0.5099 -0.5783
 6861TIP3   OH242217   3.830   5.199   1.372 -0.0437  0.6538  0.0356
 6861TIP3    H142218   3.788   5.151   1.443 -3.6008  1.1118 -1.5783
 6861TIP3    H242219   3.817   5.291   1.394  0.1465  0.8157 -0.5048
 6862TIP3   OH242220   3.822   6.497   1.761  0.1073 -0.3419 -0.1066
 6862TIP3    H142221   3.906   6.491   1.808  0.1144 -0.9258 -0.1866
 6862TIP3    H242222   3.756   6.482   1.828  0.1069 -0.9094 -0.2333
 6863TIP3   OH242223   3.598   1.969   0.885 -0.0820 -0.2222  0.5687
 6863TIP3    H142224   3.588   1.954   0.791 -0.4352  0.2581  0.5217
 6863TIP3    H242225   3.532   2.035   0.905  0.3871  0.1166  1.0393
 6864TIP3   OH242226   0.852   6.001   7.690 -0.5309 -0.7842 -0.2818
 6864TIP3    H142227   0.779   6.007   7.627  1.2557 -0.2773 -2.4520
 6864TIP3    H242228   0.930   5.999   7.635  1.2097  0.4000  1.9743
 6865TIP3   OH242229   0.448   4.851   7.172  0.6873 -0.3818 -0.3123
 6865TIP3    H142230   0.463   4.772   7.119 -0.4126 -0.7099 -0.1426
 6865TIP3    H242231   0.483   4.922   7.118 -1.0550 -0.6184 -1.8298
 6866TIP3   OH242232   3.108   0.787   8.118 -0.8791 -0.0393  0.0405
 6866TIP3    H142233   3.125   0.881   8.124 -1.8380  0.1685 -0.3388
 6866TIP3    H242234   3.142   0.752   8.200 -0.9837  0.7196  0.4216
 6867TIP3   OH242235   5.670   3.866   7.447 -0.5143 -0.4894 -0.0946
 6867TIP3    H142236   5.581   3.832   7.445 -0.5219 -0.5421  0.6891
 6867TIP3    H242237   5.660   3.961   7.450 -0.5447 -0.4948 -0.0188
 6868TIP3   OH242238   5.514   4.430   7.198  0.5889 -0.0615  0.2743
 6868TIP3    H142239   5.458   4.463   7.268 -0.9210 -0.1870 -0.8044
 6868TIP3    H242240   5.474   4.464   7.118  0.0526 -2.8759 -0.7809
 6869TIP3   OH242241   4.222   6.398   7.428  0.1101 -0.2157 -0.3065
 6869TIP3    H142242   4.258   6.310   7.432  0.0915 -0.2214 -0.2538
 6869TIP3    H242243   4.235   6.433   7.516  0.9045  0.1460 -0.5603
 6870TIP3   OH242244   1.570   2.245   1.482  0.0093  0.8079  0.7371
 6870TIP3    H142245   1.657   2.261   1.447  0.1965  2.0264  1.6826
 6870TIP3    H242246   1.582   2.173   1.545  0.2230  0.6092  0.4715
 6871TIP3   OH242247   0.079   1.956   8.747  0.1822  0.1309  0.3597
 6871TIP3    H142248   0.024   1.922   8.676  2.1793  1.7842 -2.1180
 6871TIP3    H242249   0.032   2.033   8.778  0.2050  0.5077 -0.5127
 6872TIP3   OH242250   3.392   4.445   6.655 -0.0832 -0.0515 -0.3334
 6872TIP3    H142251   3.323   4.478   6.713  0.3817  0.4984 -0.0825
 6872TIP3    H242252   3.345   4.411   6.579 -0.6136  0.7826 -0.3952
 6873TIP3   OH242253   4.462   5.449   0.884 -0.0426 -0.2866 -0.2621
 6873TIP3    H142254   4.548   5.486   0.907 -0.4263  0.7300 -0.4136
 6873TIP3    H242255   4.399   5.514   0.916 -0.7220 -0.6217 -0.9072
 6874TIP3   OH242256   0.182   3.065   0.195  0.4744  0.0904  0.2822
 6874TIP3    H142257   0.137   3.136   0.240 -0.4474  0.6567 -1.4352
 6874TIP3    H242258   0.150   3.070   0.105  2.3564 -0.8647 -0.4920
 6875TIP3   OH242259   5.779   3.712   6.317 -0.1990 -0.0226  0.0769
 6875TIP3    H142260   5.703   3.655   6.329  0.4707 -0.8927  0.3118
 6875TIP3    H242261   5.826   3.706   6.401  1.0574 -0.9192 -0.6576
 6876TIP3   OH242262   3.789   4.790   8.663  0.5577 -0.1454  0.7441
 6876TIP3    H142263   3.740   4.873   8.663  0.5124 -0.1377 -0.8413
 6876TIP3    H242264   3.728   4.726   8.699 -0.5887 -0.0862 -0.9827
 6877TIP3   OH242265   0.143   1.918   2.544  0.2069 -0.0412 -0.3710
 6877TIP3    H142266   0.160   2.012   2.540 -1.4864  0.3875  1.1937
 6877TIP3    H242267   0.079   1.908   2.614 -0.1272 -2.3092 -0.9194
 6878TIP3   OH242268   3.480   4.810   1.858 -0.2698  0.0860  0.5857
 6878TIP3    H142269   3.439   4.746   1.916  0.4907 -0.0450  0.9819
 6878TIP3    H242270   3.406   4.855   1.816 -0.8148 -0.2966  1.1230
 6879TIP3   OH242271   2.245   3.440   7.937  0.2602  0.0583  0.3410
 6879TIP3    H142272   2.262   3.349   7.962  1.3350  0.1772  0.0954
 6879TIP3    H242273   2.200   3.477   8.013 -2.1480 -1.2157 -0.3776
 6880TIP3   OH242274   5.603   3.508   7.149 -0.0737 -0.2166  0.2179
 6880TIP3    H142275   5.652   3.517   7.230  1.6902 -1.3671 -0.6716
 6880TIP3    H242276   5.641   3.573   7.090  0.9338 -1.5873 -0.7053
 6881TIP3   OH242277   6.718   0.212   7.539  0.4984  0.3472 -0.4497
 6881TIP3    H142278   6.650   0.204   7.472 -0.6225  0.9148  0.5813
 6881TIP3    H242279   6.792   0.164   7.503 -0.1438  0.4316 -1.9890
 6882TIP3   OH242280   3.954   2.332   8.282 -0.1559 -0.0588  0.0769
 6882TIP3    H142281   4.040   2.338   8.325  0.4498 -1.1307 -0.9273
 6882TIP3    H242282   3.905   2.269   8.334 -0.2293  0.3202  0.4724
 6883TIP3   OH242283   6.197   5.303   8.868  0.3323  0.0962  0.1709
 6883TIP3    H142284   6.198   5.347   8.782 -0.3477 -0.8216 -0.3202
 6883TIP3    H242285   6.232   5.369   8.928 -1.7322  1.7665 -0.3292
 6884TIP3   OH242286   5.688   2.555   8.870 -0.4254  0.2997  0.0496
 6884TIP3    H142287   5.620   2.498   8.836  0.7085 -1.5425  0.7209
 6884TIP3    H242288   5.702   2.525   8.960 -1.2176  3.0306  1.2073
 6885TIP3   OH242289   4.636   0.324   1.607 -0.8647  0.2960  0.8377
 6885TIP3    H142290   4.558   0.299   1.559 -1.4757  0.8723  1.5056
 6885TIP3    H242291   4.672   0.241   1.640 -2.5347  0.1850  2.5363
 6886TIP3   OH242292   4.476   0.135   0.641  0.1634 -0.0139  0.0702
 6886TIP3    H142293   4.487   0.218   0.596  2.7974 -0.7634 -0.8362
 6886TIP3    H242294   4.564   0.112   0.671 -0.7790 -1.6838  1.7657
 6887TIP3   OH242295   6.585   2.807   7.926  0.1888  0.1443  0.0447
 6887TIP3    H142296   6.666   2.771   7.961 -0.6419 -0.3638  1.5309
 6887TIP3    H242297   6.523   2.735   7.929 -0.0035  0.1266 -2.3770
 6888TIP3   OH242298   6.189   1.441   1.869 -0.3907  0.1169  0.0374
 6888TIP3    H142299   6.239   1.476   1.943  1.3936  1.2549 -1.5899
 6888TIP3    H242300   6.248   1.377   1.828 -1.3541 -0.5262 -0.3843
 6889TIP3   OH242301   0.629   2.621   1.555  0.5081 -0.0838 -0.0385
 6889TIP3    H142302   0.681   2.541   1.561  0.2084 -0.6420 -3.1028
 6889TIP3    H242303   0.680   2.678   1.497 -2.0731 -0.6422 -3.1364
 6890TIP3   OH242304   6.482   0.309   8.008  0.0486 -0.2053  0.2212
 6890TIP3    H142305   6.451   0.263   7.931  0.4153  1.4825 -0.9861
 6890TIP3    H242306   6.452   0.256   8.082  1.0968 -2.7437 -1.0832
 6891TIP3   OH242307   4.634   1.541   8.086 -0.0370  0.7662  0.1083
 6891TIP3    H142308   4.634   1.629   8.047 -0.5157  0.6387 -0.1743
 6891TIP3    H242309   4.660   1.556   8.177 -0.2072  1.2136  0.0856
 6892TIP3   OH242310   1.695   2.450   8.517  0.1988 -0.1278  0.2220
 6892TIP3    H142311   1.638   2.458   8.593 -0.5525  0.1080 -0.3524
 6892TIP3    H242312   1.654   2.505   8.450  2.8958  2.8630  0.8048
 6893TIP3   OH242313   2.003   5.440   7.817  0.2161  0.2621  0.2843
 6893TIP3    H142314   2.003   5.519   7.763  0.1126 -0.1761 -0.3613
 6893TIP3    H242315   1.924   5.448   7.870 -0.2722  0.1669 -0.4182
 6894TIP3   OH242316   4.883   5.189   0.671  0.5633 -0.2767 -0.1464
 6894TIP3    H142317   4.977   5.176   0.687  0.0797 -1.0579  2.6928
 6894TIP3    H242318   4.857   5.251   0.740 -1.0602 -0.2851 -0.7351
 6895TIP3   OH242319   4.671   0.556   6.995 -0.7169  0.5898  0.4540
 6895TIP3    H142320   4.664   0.597   7.081 -0.5953  1.9763 -0.1686
 6895TIP3    H242321   4.682   0.630   6.934  0.3747 -0.4257 -0.6261
 6896TIP3   OH242322   5.687   0.026   8.219  0.1862 -0.2346  0.1474
 6896TIP3    H142323   5.781   0.044   8.207  0.5387 -2.0485 -0.0115
 6896TIP3    H242324   5.653   0.024   8.130  0.1297 -0.2841  0.1709
 6897TIP3   OH242325   3.024   4.899   0.760  0.6658  0.3243  0.5818
 6897TIP3    H142326   3.033   4.807   0.735 -0.1888  0.3471  0.1526
 6897TIP3    H242327   3.114   4.931   0.765  1.0121 -0.7502  1.6107
 6898TIP3   OH242328   3.953   1.126   1.836 -0.7837  0.0101 -0.7735
 6898TIP3    H142329   3.939   1.051   1.894  1.6545  0.3881  0.4118
 6898TIP3    H242330   3.884   1.189   1.860  1.7948  1.4352  4.0401
 6899TIP3   OH242331   6.761   0.370   2.578 -0.0804  0.5292  0.4579
 6899TIP3    H142332   6.794   0.453   2.613 -0.1129 -0.0636  1.9702
 6899TIP3    H242333   6.792   0.304   2.640  0.8896 -0.7483 -1.3065
 6900TIP3   OH242334   5.060   0.976   8.303 -0.5310  0.1591  0.0058
 6900TIP3    H142335   5.137   0.949   8.254 -1.2026  0.1884 -1.0905
 6900TIP3    H242336   5.047   0.906   8.367  0.1321 -0.0702 -0.1010
 6901TIP3   OH242337   3.023   6.388   7.613 -0.2272  0.7313  0.0715
 6901TIP3    H142338   3.065   6.310   7.577  1.8170  1.8829 -0.1911
 6901TIP3    H242339   2.951   6.407   7.553  0.4476  0.1484 -0.9496
 6902TIP3   OH242340   5.769   2.020   7.812  0.4229 -0.5113  0.0014
 6902TIP3    H142341   5.728   2.007   7.726 -0.3361  0.7728  0.1553
 6902TIP3    H242342   5.721   2.091   7.852  1.7245 -0.0912  0.8987
 6903TIP3   OH242343   5.949   0.645   7.636 -0.3545 -0.4227 -0.3414
 6903TIP3    H142344   5.872   0.658   7.581  0.3985 -0.4590 -1.4483
 6903TIP3    H242345   5.926   0.684   7.721 -1.7774 -0.9460 -0.4749
 6904TIP3   OH242346   0.555   3.749   7.761 -1.1298  0.0601 -0.1231
 6904TIP3    H142347   0.478   3.806   7.756 -1.9590 -1.0970 -3.1533
 6904TIP3    H242348   0.527   3.668   7.718  1.2927 -1.0249  0.2081
 6905TIP3   OH242349   6.059   6.219   8.520  0.2014 -0.0541  0.2520
 6905TIP3    H142350   5.990   6.213   8.585 -0.8856  0.2618 -0.8283
 6905TIP3    H242351   6.024   6.175   8.443  0.2448  2.0789 -1.0725
 6906TIP3   OH242352   4.213   5.843   1.415  0.1751  0.7369  0.2692
 6906TIP3    H142353   4.123   5.828   1.386  0.3484  0.0480  0.0770
 6906TIP3    H242354   4.211   5.827   1.509 -0.0484  1.4349  0.3962
 6907TIP3   OH242355   3.125   3.473   1.442 -0.1429  0.6122 -0.5973
 6907TIP3    H142356   3.138   3.379   1.431 -0.0506  0.5859 -0.2783
 6907TIP3    H242357   3.126   3.508   1.353 -0.9166  0.2172 -0.7742
 6908TIP3   OH242358   1.881   6.332   7.809  0.3302 -0.3434  0.2344
 6908TIP3    H142359   1.881   6.248   7.856 -2.3521 -0.4473  0.2206
 6908TIP3    H242360   1.874   6.308   7.717  1.3382 -0.0907  0.0811
 6909TIP3   OH242361   4.578   0.928   0.007 -0.4327 -0.8538  0.1773
 6909TIP3    H142362   4.498   0.965   0.045 -0.6920 -2.8879  1.7742
 6909TIP3    H242363   4.548   0.850  -0.040 -0.0013  1.0401 -3.6660
 6910TIP3   OH242364   5.024   1.128   8.594  0.8383  0.3197 -0.1795
 6910TIP3    H142365   5.003   1.203   8.538  2.1246 -0.4885 -1.8397
 6910TIP3    H242366   4.939   1.092   8.618  0.2342  0.6594 -1.6867
 6911TIP3   OH242367   2.147   6.627   0.109 -0.0371  0.5945 -0.1247
 6911TIP3    H142368   2.164   6.685   0.183  0.5021 -0.1682  0.3788
 6911TIP3    H242369   2.227   6.575   0.102  0.4322  1.5065 -2.0626
 6912TIP3   OH242370   5.509   0.206   7.533 -0.1440 -0.0333  0.5528
 6912TIP3    H142371   5.477   0.129   7.486  1.3795 -0.3596  0.0001
 6912TIP3    H242372   5.578   0.242   7.477  0.1918  0.8614  1.5019
 6913TIP3   OH242373   6.497   0.981   8.030  0.5422  0.1769  0.1903
 6913TIP3    H142374   6.427   0.945   7.975 -0.6568  0.8480  1.2313
 6913TIP3    H242375   6.452   1.035   8.094  2.1835  2.9772 -0.8375
 6914TIP3   OH242376   2.783   5.685   1.845 -0.2277  0.1823  0.3289
 6914TIP3    H142377   2.774   5.772   1.884  0.2899  0.7818 -0.8380
 6914TIP3    H242378   2.876   5.678   1.823 -0.4796 -0.1729 -0.6712
 6915TIP3   OH242379   5.234   6.688   6.334  0.5893 -0.7199  0.5230
 6915TIP3    H142380   5.267   6.647   6.254 -2.0701  0.5706 -1.3634
 6915TIP3    H242381   5.169   6.627   6.367  0.8007 -0.6762  1.0315
 6916TIP3   OH242382   1.282   3.528   1.487 -0.0644  0.2486 -0.3304
 6916TIP3    H142383   1.366   3.533   1.532 -0.1369 -0.9266 -0.0413
 6916TIP3    H242384   1.217   3.551   1.553  0.0291  1.2676 -0.5836
 6917TIP3   OH242385   4.628   5.160   7.028  0.2655 -0.2724  0.1693
 6917TIP3    H142386   4.589   5.119   6.950  1.3844 -0.7907 -0.1342
 6917TIP3    H242387   4.631   5.253   7.007 -0.4703 -0.2676  0.0571
 6918TIP3   OH242388   1.618   0.786   0.876 -0.0226 -0.3547  0.1042
 6918TIP3    H142389   1.636   0.863   0.822  0.9850  0.0370  0.9457
 6918TIP3    H242390   1.704   0.747   0.891 -0.3865 -0.9545  0.6830
 6919TIP3   OH242391   1.653   3.762   7.266  0.3950  0.2043  0.2759
 6919TIP3    H142392   1.735   3.769   7.316 -0.5448  1.4516  1.7613
 6919TIP3    H242393   1.669   3.692   7.204  2.1616 -0.4479  1.3750
 6920TIP3   OH242394   3.444   5.618   8.161 -0.2080  1.0737  0.3496
 6920TIP3    H142395   3.499   5.646   8.088  3.2929 -0.6259  2.1168
 6920TIP3    H242396   3.476   5.667   8.236  0.7451 -1.7405  1.9237
 6921TIP3   OH242397   1.990   1.913   7.371  0.8475  0.0486  0.2894
 6921TIP3    H142398   1.908   1.919   7.322 -1.3362 -0.7865  3.4968
 6921TIP3    H242399   2.058   1.901   7.304 -1.9164 -1.7637 -2.4416
 6922TIP3   OH242400   1.705   0.736   1.892 -0.4035 -0.1075 -0.5412
 6922TIP3    H142401   1.610   0.747   1.896 -0.5007 -1.2157  1.1434
 6922TIP3    H242402   1.740   0.824   1.906 -1.1190  0.7237 -3.2842
 6923TIP3   OH242403   3.458   4.472   1.383  0.5517 -0.4781 -0.5774
 6923TIP3    H142404   3.473   4.384   1.416  0.9858 -0.9657 -2.0186
 6923TIP3    H242405   3.376   4.500   1.424  1.2275 -0.9114  1.1356
 6924TIP3   OH242406   5.817   1.982   8.271 -0.5725 -0.1296 -0.5311
 6924TIP3    H142407   5.904   2.003   8.306 -1.7513  1.4976  1.6780
 6924TIP3    H242408   5.806   1.889   8.288  0.3273 -0.1186  0.1886
 6925TIP3   OH242409   4.169   2.304   1.489 -0.5870 -0.1720  0.6640
 6925TIP3    H142410   4.257   2.335   1.470 -0.3035  0.2010  2.4116
 6925TIP3    H242411   4.123   2.309   1.405  0.9052  0.0797 -0.1716
 6926TIP3   OH242412   2.537   0.229   7.951  0.2689 -0.4057  0.3115
 6926TIP3    H142413   2.618   0.279   7.940 -0.1043  0.5547  1.6990
 6926TIP3    H242414   2.475   0.270   7.890  0.1909  0.3274  0.8761
 6927TIP3   OH242415   2.616   3.683   1.730 -0.2697 -0.4831  0.0854
 6927TIP3    H142416   2.633   3.772   1.700 -2.4514  0.2552  0.8369
 6927TIP3    H242417   2.592   3.635   1.651 -0.7268  0.0519 -0.1073
 6928TIP3   OH242418   1.713   1.734   1.466  0.2211  0.2669  0.0050
 6928TIP3    H142419   1.796   1.693   1.442 -0.6837 -0.3589 -2.3707
 6928TIP3    H242420   1.689   1.787   1.389 -2.7299 -1.5258 -0.4579
 6929TIP3   OH242421   6.221   1.182   1.101  0.6341 -0.5994 -0.3048
 6929TIP3    H142422   6.198   1.218   1.187  0.9909 -0.7635 -0.1391
 6929TIP3    H242423   6.139   1.182   1.053  0.7374  1.1489 -0.5753
 6930TIP3   OH242424   2.038   2.585   6.386  0.2767 -0.1891 -0.3043
 6930TIP3    H142425   2.123   2.628   6.397  0.9152 -1.4523 -0.1253
 6930TIP3    H242426   2.029   2.530   6.463 -0.8019  0.0655 -0.2338
 6931TIP3   OH242427   1.092   0.239   8.290 -0.0238 -0.2029  0.6725
 6931TIP3    H142428   1.148   0.289   8.232 -2.3659  0.5084 -1.1406
 6931TIP3    H242429   1.071   0.298   8.362  1.1143 -0.3181  1.1118
 6932TIP3   OH242430   6.525   1.341   1.497 -0.2692 -0.7003  0.0365
 6932TIP3    H142431   6.555   1.272   1.556  0.7423 -2.4083 -2.3063
 6932TIP3    H242432   6.533   1.303   1.410 -0.6952  2.0417 -1.3068
 6933TIP3   OH242433   2.163   0.210   1.743  0.5044  0.5733  0.3015
 6933TIP3    H142434   2.074   0.243   1.753 -0.6100 -1.8178 -0.7857
 6933TIP3    H242435   2.188   0.181   1.830 -0.8950 -1.1407  0.1925
 6934TIP3   OH242436   2.097   2.656   7.428  0.2288 -0.0813 -0.2092
 6934TIP3    H142437   2.176   2.668   7.480  1.0421  1.6892 -1.7338
 6934TIP3    H242438   2.025   2.665   7.491  1.1995 -0.4117  0.9787
 6935TIP3   OH242439   3.888   2.796   8.906  0.1398  0.4973  0.3936
 6935TIP3    H142440   3.813   2.737   8.912 -0.2780  0.9235 -0.4221
 6935TIP3    H242441   3.879   2.855   8.981 -0.0535  0.2217  0.5867
 6936TIP3   OH242442   2.266   0.903   6.638  0.4917  0.0201 -0.0375
 6936TIP3    H142443   2.340   0.851   6.670 -0.3369  0.2557  2.4494
 6936TIP3    H242444   2.222   0.845   6.575  2.5520 -0.2268 -1.3500
 6937TIP3   OH242445   6.761   3.066   0.800 -0.3219  0.0926 -0.6521
 6937TIP3    H142446   6.777   3.131   0.732 -0.1147 -1.3744 -2.0664
 6937TIP3    H242447   6.780   2.982   0.758 -0.5302 -0.8919  1.1226
 6938TIP3   OH242448   1.437   0.107   8.418  0.2146 -0.4253 -1.0278
 6938TIP3    H142449   1.505   0.129   8.481  0.7527 -0.0126 -1.7404
 6938TIP3    H242450   1.435   0.011   8.417  1.0439 -0.4460 -1.2825
 6939TIP3   OH242451   6.436   5.092   7.075 -0.1076 -0.3856  0.0719
 6939TIP3    H142452   6.488   5.109   7.153 -1.1417 -1.3138  1.0020
 6939TIP3    H242453   6.347   5.121   7.098 -0.4350 -0.6844 -0.7516
 6940TIP3   OH242454   6.225   1.723   8.376 -0.6475  0.5683 -0.0652
 6940TIP3    H142455   6.225   1.818   8.387 -3.1166  0.9168 -2.1231
 6940TIP3    H242456   6.161   1.691   8.440 -1.6371  0.6268 -0.9840
 6941TIP3   OH242457   2.729   2.728   8.083 -0.0472  0.2147  0.3384
 6941TIP3    H142458   2.723   2.823   8.076  1.2440  0.3225  0.5350
 6941TIP3    H242459   2.639   2.697   8.068 -0.7324  1.5271  1.5123
 6942TIP3   OH242460   4.945   0.260   7.360  0.1386  0.2123  0.6912
 6942TIP3    H142461   4.962   0.166   7.347  1.3329  0.4617  0.3361
 6942TIP3    H242462   4.853   0.264   7.386  0.4724 -1.2079  2.2652
 6943TIP3   OH242463   5.535   1.864   6.859  0.6009 -0.1417 -0.8877
 6943TIP3    H142464   5.514   1.952   6.828  1.6155  0.3143 -0.3223
 6943TIP3    H242465   5.504   1.806   6.790 -1.1700  0.5697 -0.7277
 6944TIP3   OH242466   5.937   3.337   0.591  0.6095  0.6335 -0.0894
 6944TIP3    H142467   5.857   3.284   0.601  2.4679 -2.3338  0.3323
 6944TIP3    H242468   5.976   3.306   0.510  1.0523  2.5490 -0.6541
 6945TIP3   OH242469   5.640   2.279   1.847  0.2520  0.4177  0.2316
 6945TIP3    H142470   5.671   2.189   1.834 -0.5205  0.1273  0.3401
 6945TIP3    H242471   5.654   2.295   1.941  0.9700  0.6447  0.0952
 6946TIP3   OH242472   2.454   2.489   1.607 -0.5619 -0.4985  0.5052
 6946TIP3    H142473   2.382   2.429   1.626 -0.9073 -0.0274  0.7001
 6946TIP3    H242474   2.497   2.501   1.692 -2.7734  2.4866  1.3530
 6947TIP3   OH242475   1.693   0.189   8.854  0.4018 -0.0706 -0.0872
 6947TIP3    H142476   1.694   0.122   8.924  1.5844 -1.4944 -1.3838
 6947TIP3    H242477   1.766   0.247   8.876  0.9697 -0.6957 -0.2576
 6948TIP3   OH242478   5.356   5.558   0.451  0.3750 -0.3337  0.2182
 6948TIP3    H142479   5.365   5.637   0.399 -0.5911  0.3709  1.0696
 6948TIP3    H242480   5.264   5.532   0.440  0.0479  0.0350  1.7885
 6949TIP3   OH242481   1.474   2.803   7.821  0.1178 -0.1716 -0.1074
 6949TIP3    H142482   1.523   2.737   7.870 -0.5508 -2.3629 -2.2204
 6949TIP3    H242483   1.383   2.791   7.849  0.2365  1.5787  1.2619
 6950TIP3   OH242484   1.983   6.287   0.763  0.3422 -0.0105  0.2011
 6950TIP3    H142485   1.972   6.242   0.679 -1.3504 -0.5584  0.6885
 6950TIP3    H242486   2.050   6.235   0.809 -0.3253 -1.0189  0.0576
 6951TIP3   OH242487   5.259   4.079   1.967  0.1401  0.3720 -0.0441
 6951TIP3    H142488   5.203   4.156   1.969 -0.3098  0.0347  0.9541
 6951TIP3    H242489   5.329   4.101   1.906 -0.8055  0.9888 -0.9236
 6952TIP3   OH242490   3.627   2.643   7.374 -0.3154  0.6450  0.3505
 6952TIP3    H142491   3.603   2.732   7.348 -3.0860  0.5751  2.3478
 6952TIP3    H242492   3.545   2.594   7.375  1.0850 -1.9452 -0.4242
 6953TIP3   OH242493   2.817   0.996   6.428 -0.2798  0.3913  0.1331
 6953TIP3    H142494   2.891   1.026   6.375 -0.7924  1.8128  0.1977
 6953TIP3    H242495   2.759   0.954   6.365  0.0485  0.2733 -0.0961
 6954TIP3   OH242496   6.787   4.919   1.761  0.9100  0.3025 -0.3928
 6954TIP3    H142497   6.783   4.891   1.853  3.3362 -0.8624 -0.5682
 6954TIP3    H242498   6.816   5.010   1.765  1.1973  0.1976  0.0063
 6955TIP3   OH242499   3.057   3.470   0.662 -0.5836 -0.0408 -0.4523
 6955TIP3    H142500   3.070   3.510   0.576 -0.3092 -1.0859 -0.9116
 6955TIP3    H242501   3.119   3.397   0.664  0.1081  0.5475  1.0260
 6956TIP3   OH242502   3.663   5.116   8.455  0.5510 -0.6957  0.4325
 6956TIP3    H142503   3.737   5.176   8.463 -0.5142  0.3906  4.8730
 6956TIP3    H242504   3.704   5.031   8.437  2.3409  0.6023 -2.4062
 6957TIP3   OH242505   6.677   0.772   1.325  0.1960  0.1288 -0.0443
 6957TIP3    H142506   6.608   0.829   1.358  0.5596 -0.3235  1.5892
 6957TIP3    H242507   6.758   0.818   1.347  0.4875 -0.9522  1.2049
 6958TIP3   OH242508   3.281   4.944   0.391 -0.2712 -1.1527 -0.1328
 6958TIP3    H142509   3.309   4.933   0.482  0.2295  1.5271  0.1012
 6958TIP3    H242510   3.209   5.006   0.396  2.4077  2.4239 -1.7795
 6959TIP3   OH242511   2.192   1.457   1.464 -0.6507 -0.2416 -0.1586
 6959TIP3    H142512   2.127   1.429   1.529  0.9383 -2.4106  0.6583
 6959TIP3    H242513   2.217   1.545   1.491  0.3056 -1.2559  2.5420
 6960TIP3   OH242514   3.654   3.741   6.798 -0.5381 -0.0298  0.5397
 6960TIP3    H142515   3.606   3.666   6.832  0.2462 -0.0668  1.6364
 6960TIP3    H242516   3.746   3.722   6.818 -0.3213  1.2224  0.8620
 6961TIP3   OH242517   2.646   4.230   8.295  0.6100 -0.0304 -0.6058
 6961TIP3    H142518   2.609   4.210   8.381 -1.2127  0.3869 -1.2412
 6961TIP3    H242519   2.613   4.317   8.274 -1.7424 -1.3625 -3.0669
 6962TIP3   OH242520   3.216   2.702   7.008 -0.0796 -0.4515  0.1751
 6962TIP3    H142521   3.124   2.676   7.007 -0.1720 -0.1652  0.9607
 6962TIP3    H242522   3.235   2.726   6.917 -2.1088  4.0547  0.6959
 6963TIP3   OH242523   4.658   2.971   8.666  0.6242  0.6382  0.3304
 6963TIP3    H142524   4.644   2.936   8.754  0.5450 -0.5785 -0.1403
 6963TIP3    H242525   4.750   2.956   8.648  0.4670  0.1428 -0.0908
 6964TIP3   OH242526   4.163   1.194   8.221  0.2073 -0.2063 -0.5663
 6964TIP3    H142527   4.236   1.143   8.254  0.4322  0.6297  0.2683
 6964TIP3    H242528   4.159   1.271   8.278 -0.5336  0.3803 -1.3730
 6965TIP3   OH242529   6.142   2.503   6.906  0.1217  0.4563 -0.1849
 6965TIP3    H142530   6.114   2.415   6.884  0.6508  0.3447 -0.4255
 6965TIP3    H242531   6.236   2.504   6.888  0.2707  0.8331  0.5537
 6966TIP3   OH242532   4.709   0.849   0.653  0.4431 -0.1429 -0.0797
 6966TIP3    H142533   4.724   0.876   0.562  0.5132 -0.7120 -0.2397
 6966TIP3    H242534   4.671   0.926   0.695  1.1641  0.3948 -0.3898
 6967TIP3   OH242535   2.702   5.110   0.336  0.4266 -0.2194 -0.5909
 6967TIP3    H142536   2.760   5.134   0.409  0.7400  1.6447 -1.4005
 6967TIP3    H242537   2.679   5.193   0.296 -1.0479 -1.1028 -1.6509
 6968TIP3   OH242538   6.226   6.661   1.977 -0.0533  0.2170  0.1495
 6968TIP3    H142539   6.299   6.664   2.039 -0.6379  1.6869  0.8118
 6968TIP3    H242540   6.150   6.636   2.031  0.1116 -2.6647 -0.7586
 6969TIP3   OH242541   0.204   4.031   0.909 -0.4110  0.2605  0.0436
 6969TIP3    H142542   0.211   3.978   0.830 -1.8308  0.7460 -0.4403
 6969TIP3    H242543   0.195   4.121   0.877 -0.6240  0.5073  0.7658
 6970TIP3   OH242544   5.535   4.356   1.260  0.6697  0.6476  0.5373
 6970TIP3    H142545   5.451   4.325   1.292 -0.1104  3.0615  1.0001
 6970TIP3    H242546   5.543   4.445   1.294  1.3789  2.1473 -3.1247
 6971TIP3   OH242547   5.748   6.502   8.314  0.0728 -0.1508 -1.0407
 6971TIP3    H142548   5.759   6.524   8.407 -0.5617 -1.1398 -0.7097
 6971TIP3    H242549   5.660   6.533   8.293 -0.0097 -0.4552 -1.1490
 6972TIP3   OH242550   6.594   2.700   7.618  0.2719 -0.1071  0.5314
 6972TIP3    H142551   6.652   2.719   7.691 -0.8894 -1.8569  1.9948
 6972TIP3    H242552   6.508   2.731   7.648 -0.0052  0.3032 -0.6351
 6973TIP3   OH242553   5.046   1.764   0.985  0.0635  0.0289 -0.0454
 6973TIP3    H142554   4.993   1.712   0.925 -0.6614 -0.2130  0.7839
 6973TIP3    H242555   5.024   1.855   0.965 -2.5247 -0.0796  1.8522
 6974TIP3   OH242556   4.337   3.087   8.412 -0.0066  0.0810 -0.5464
 6974TIP3    H142557   4.269   3.128   8.465 -1.0566 -0.3814 -1.5021
 6974TIP3    H242558   4.312   2.995   8.408  1.4076 -0.3686  0.1788
 6975TIP3   OH242559   6.133   5.731   0.098  0.1754  0.0133  0.0558
 6975TIP3    H142560   6.068   5.661   0.104 -1.1980  1.2723  0.2647
 6975TIP3    H242561   6.161   5.746   0.189  0.2726 -0.0754  0.0411
 6976TIP3   OH242562   4.238   6.752   6.950 -0.3401 -0.5274  0.1494
 6976TIP3    H142563   4.264   6.753   6.858 -0.7671 -0.3421  0.0310
 6976TIP3    H242564   4.186   6.832   6.962 -1.8591 -1.4658  0.0890
 6977TIP3   OH242565   5.044   2.411   7.038  0.1820 -0.0991 -0.9117
 6977TIP3    H142566   5.027   2.451   7.123 -0.8056 -1.4767 -0.4239
 6977TIP3    H242567   5.045   2.484   6.977  0.6306  0.8838  0.2323
 6978TIP3   OH242568   4.806   5.023   8.774 -0.1390  0.6722 -0.2059
 6978TIP3    H142569   4.827   5.084   8.703 -1.8773  1.6888  0.0854
 6978TIP3    H242570   4.761   4.951   8.730  0.3376  0.4596 -0.3446
 6979TIP3   OH242571   4.388   4.359   6.971  0.1725  0.0753  0.3952
 6979TIP3    H142572   4.365   4.415   6.896  1.8075  0.1099 -0.1373
 6979TIP3    H242573   4.424   4.280   6.931  1.8706  0.4472  1.0941
 6980TIP3   OH242574   1.002   0.486   7.560 -0.5865 -0.1901  0.0724
 6980TIP3    H142575   1.010   0.448   7.648  1.2681 -1.3855 -0.5264
 6980TIP3    H242576   1.068   0.556   7.558 -0.8807  0.0788 -0.2434
 6981TIP3   OH242577   5.143   1.867   0.390  0.3951  0.1381  0.2974
 6981TIP3    H142578   5.202   1.936   0.360  1.3418  0.6377  2.9887
 6981TIP3    H242579   5.057   1.893   0.357  1.2706  0.6050 -1.8014
 6982TIP3   OH242580   4.521   4.661   2.229  0.1949  0.2860  0.1341
 6982TIP3    H142581   4.587   4.639   2.163 -0.5018  0.3370 -0.5835
 6982TIP3    H242582   4.531   4.593   2.296 -1.6601 -2.0950 -1.8559
 6983TIP3   OH242583   6.281   2.267   1.736 -0.1568  0.8535  0.4707
 6983TIP3    H142584   6.191   2.250   1.709 -0.2157  1.4564  0.2762
 6983TIP3    H242585   6.282   2.243   1.829 -0.6284  1.2326  0.5812
 6984TIP3   OH242586   1.116   3.550   8.392 -0.2396 -0.2287 -0.2753
 6984TIP3    H142587   1.044   3.588   8.443 -2.1023 -1.1925 -2.0651
 6984TIP3    H242588   1.100   3.579   8.302  2.7183  1.0889 -0.5136
 6985TIP3   OH242589   3.712   5.522   8.643  0.2338 -0.3515  0.2711
 6985TIP3    H142590   3.802   5.553   8.638  1.1246 -2.5395  1.3245
 6985TIP3    H242591   3.677   5.533   8.555  2.0814 -0.9303 -0.5714
 6986TIP3   OH242592   1.143   1.535   2.101  0.3099  0.2887 -0.2827
 6986TIP3    H142593   1.066   1.572   2.059 -1.8178 -1.5983  1.6700
 6986TIP3    H242594   1.148   1.578   2.186  0.7044 -0.4103  0.0624
 6987TIP3   OH242595   0.048   3.516   7.399  0.4377  0.0929  0.8266
 6987TIP3    H142596   0.053   3.512   7.303 -1.3134  0.9043  0.6553
 6987TIP3    H242597   0.050   3.424   7.427  2.1490 -0.1136  0.1212
 6988TIP3   OH242598   5.001   0.438   0.192 -0.1989 -0.1889  0.1036
 6988TIP3    H142599   4.956   0.355   0.209 -1.9465  0.6968  0.0690
 6988TIP3    H242600   4.970   0.496   0.262 -0.4289  0.9313 -0.8884
 6989TIP3   OH242601   1.707   1.202   1.616 -0.4281 -0.4933 -0.3158
 6989TIP3    H142602   1.689   1.294   1.636  0.7287 -0.1054 -0.9625
 6989TIP3    H242603   1.747   1.168   1.696  1.3335  0.2230 -0.8455
 6990TIP3   OH242604   0.593   5.375   1.085  0.5522  0.0771 -0.0731
 6990TIP3    H142605   0.607   5.468   1.066 -0.3906  0.0010 -1.2600
 6990TIP3    H242606   0.542   5.343   1.011  1.7220 -1.6360 -0.1944
 6991TIP3   OH242607   6.560   6.617   8.383  0.3207  0.1440  0.0630
 6991TIP3    H142608   6.599   6.606   8.297  0.7286  0.0360  0.2600
 6991TIP3    H242609   6.631   6.600   8.445 -0.2209 -0.8309  0.4422
 6992TIP3   OH242610   6.148   3.096   2.545 -0.1783  0.0385 -0.4225
 6992TIP3    H142611   6.117   3.132   2.461  0.5197 -0.8779 -1.0965
 6992TIP3    H242612   6.121   3.161   2.610 -0.0961  1.1422 -1.4453
 6993TIP3   OH242613   1.595   2.632   2.716  0.0591  0.4445  0.2067
 6993TIP3    H142614   1.687   2.657   2.714  0.0747  0.3489 -1.3523
 6993TIP3    H242615   1.583   2.575   2.640 -1.1894  0.0941  0.6358
 6994TIP3   OH242616   1.614   1.827   0.068 -0.3163 -0.0928  0.2281
 6994TIP3    H142617   1.524   1.860   0.077 -1.0191 -1.1453 -2.0610
 6994TIP3    H242618   1.609   1.765  -0.005  2.5476  0.7738 -0.8167
 6995TIP3   OH242619   6.468   5.240   0.724 -0.4416 -0.3276  0.6208
 6995TIP3    H142620   6.512   5.311   0.677 -1.5928 -0.7824 -1.2893
 6995TIP3    H242621   6.521   5.225   0.802  0.5289  1.7545  0.4166
 6996TIP3   OH242622   1.664   1.364   2.039 -0.5140  0.2391  0.4097
 6996TIP3    H142623   1.753   1.345   2.009 -1.3420 -0.2553 -1.9361
 6996TIP3    H242624   1.674   1.387   2.131  1.9510 -0.4787  0.3835
 6997TIP3   OH242625   1.413   2.906   0.153  0.3876 -0.0855  0.0274
 6997TIP3    H142626   1.453   2.844   0.093 -0.7867 -1.7786  0.8887
 6997TIP3    H242627   1.325   2.921   0.117 -0.1679 -0.7722  1.0520
 6998TIP3   OH242628   3.757   6.672   7.973 -0.2015 -0.1415  0.0494
 6998TIP3    H142629   3.836   6.628   8.008 -0.0383 -0.0121 -0.1572
 6998TIP3    H242630   3.762   6.761   8.007 -0.2738 -0.1421  0.0602
 6999TIP3   OH242631   1.102   6.756   7.067  0.4225  0.0502  0.2878
 6999TIP3    H142632   1.008   6.756   7.084  0.2413  1.2487 -0.5243
 6999TIP3    H242633   1.121   6.669   7.032 -0.3299 -0.2925  0.7295
 7000TIP3   OH242634   4.610   0.827   8.425 -0.2089 -0.3943  0.2189
 7000TIP3    H142635   4.686   0.774   8.402  1.7138  1.4234  1.9210
 7000TIP3    H242636   4.626   0.912   8.383 -0.5583  0.4585  1.7479
 7001TIP3   OH242637   6.037   6.249   0.960  0.7301  0.4530  0.1960
 7001TIP3    H142638   6.102   6.219   1.024  1.7409  0.6397 -0.7178
 7001TIP3    H242639   5.967   6.184   0.965  1.8846 -0.8914 -0.1879
 7002TIP3   OH242640   1.369   4.571   0.773 -0.1641  0.4942  0.0404
 7002TIP3    H142641   1.368   4.503   0.706 -0.0458 -0.0598  0.5938
 7002TIP3    H242642   1.360   4.653   0.724  2.9389  0.3756 -0.9429
 7003TIP3   OH242643   1.330   4.751   0.354  0.2526  0.3038  0.4460
 7003TIP3    H142644   1.248   4.760   0.306 -0.7109 -1.1988  1.7381
 7003TIP3    H242645   1.376   4.680   0.309 -0.5107 -0.8853  1.4545
 7004TIP3   OH242646   1.491   3.097   1.191  0.5217 -0.1239 -0.3290
 7004TIP3    H142647   1.467   3.185   1.221 -0.8099 -0.3501 -0.6567
 7004TIP3    H242648   1.438   3.038   1.245 -0.5160 -0.6049 -1.8015
 7005TIP3   OH242649   5.359   3.075   8.123 -0.3949  0.2394  0.0996
 7005TIP3    H142650   5.339   3.164   8.093 -2.0123 -0.4551 -1.0557
 7005TIP3    H242651   5.273   3.035   8.138  0.2719 -1.3528 -0.0971
 7006TIP3   OH242652   5.508   2.538   7.740 -0.1879 -0.4747 -0.2838
 7006TIP3    H142653   5.484   2.630   7.730 -0.1126 -0.6211 -2.1482
 7006TIP3    H242654   5.595   2.532   7.699  0.1658 -1.2255  0.5548
 7007TIP3   OH242655   2.282   4.023   0.385 -0.2447 -0.4557  0.1401
 7007TIP3    H142656   2.307   4.075   0.310  0.7377 -1.8304 -0.5209
 7007TIP3    H242657   2.186   4.022   0.383 -0.2672  0.9264 -0.0719
 7008TIP3   OH242658   1.296   3.961   7.759  0.3244  0.7562 -0.9311
 7008TIP3    H142659   1.326   3.906   7.687  0.2653  0.1127 -0.4704
 7008TIP3    H242660   1.375   3.982   7.807  0.2106  0.1449 -0.4684
 7009TIP3   OH242661   6.794   5.088   8.490  0.0975  0.5883 -0.2675
 7009TIP3    H142662   6.853   5.041   8.549 -1.7413  0.9749  2.0232
 7009TIP3    H242663   6.821   5.179   8.497  0.0140  0.6069 -0.1907
 7010TIP3   OH242664   0.238   5.805   0.470 -0.1138  0.2587  0.4034
 7010TIP3    H142665   0.299   5.845   0.531 -1.1565  0.4993  1.3273
 7010TIP3    H242666   0.286   5.732   0.432 -0.2044 -1.6001  3.5034
 7011TIP3   OH242667   0.355   2.826   0.521  0.2075  0.1345 -0.0114
 7011TIP3    H142668   0.434   2.879   0.534  1.2821 -1.4366  0.1823
 7011TIP3    H242669   0.387   2.745   0.483 -1.5208  0.0234 -1.3456
 7012TIP3   OH242670   3.479   1.001   7.663  0.2157 -1.2107 -0.4367
 7012TIP3    H142671   3.558   1.054   7.677 -1.4764  2.5030 -3.1237
 7012TIP3    H242672   3.447   0.983   7.751 -0.4063  4.9127  1.0975
 7013TIP3   OH242673   0.872   6.550   6.874 -0.5429  0.0614  0.4048
 7013TIP3    H142674   0.952   6.599   6.852 -0.5883  0.3619  0.8841
 7013TIP3    H242675   0.900   6.459   6.879  0.0594  0.2891  1.8042
 7014TIP3   OH242676   0.182   4.816   2.326 -0.4191 -0.3986 -0.3736
 7014TIP3    H142677   0.151   4.841   2.413  0.8562 -1.1884  0.3230
 7014TIP3    H242678   0.261   4.867   2.312 -1.3396  0.7556 -1.6783
 7015TIP3   OH242679   5.304   5.827   8.168 -0.1082  0.4021  0.0063
 7015TIP3    H142680   5.343   5.778   8.095  2.0489  0.6457  0.9217
 7015TIP3    H242681   5.296   5.916   8.135  1.7659  0.7249  0.3257
 7016TIP3   OH242682   3.418   1.714   1.035 -0.0147 -0.3179 -0.7475
 7016TIP3    H142683   3.372   1.798   1.035 -2.1497 -1.4043  0.1167
 7016TIP3    H242684   3.446   1.702   1.126  1.9455  0.2450 -1.2295
 7017TIP3   OH242685   0.487   6.776   0.935 -0.1951  0.1304 -0.6366
 7017TIP3    H142686   0.466   6.726   1.014  0.4762 -0.5791 -0.8925
 7017TIP3    H242687   0.409   6.829   0.919  0.2986  1.6450  1.4946
 7018TIP3   OH242688   2.384   6.623   7.056 -0.3967  0.0031  0.2764
 7018TIP3    H142689   2.340   6.652   6.976  2.5360  0.4644 -1.2925
 7018TIP3    H242690   2.465   6.583   7.026  1.3377  1.1391  3.0668
 7019TIP3   OH242691   3.066   3.054   1.029  0.1889 -0.3539  0.4007
 7019TIP3    H142692   3.061   3.062   1.124 -1.4409 -0.4447  0.3391
 7019TIP3    H242693   3.023   3.132   0.995  1.6522  0.1921 -0.3038
 7020TIP3   OH242694   2.032   0.743   7.443  0.2940 -0.1416  0.0786
 7020TIP3    H142695   1.939   0.724   7.431  0.9270 -2.5114 -1.6273
 7020TIP3    H242696   2.059   0.689   7.517  1.0109 -2.2615 -1.6422
 7021TIP3   OH242697   0.341   2.799   7.527  0.0791  0.0377 -0.0387
 7021TIP3    H142698   0.280   2.739   7.484  0.4712  0.0506 -0.6303
 7021TIP3    H242699   0.349   2.872   7.465  0.3364  0.2535  0.2482
 7022TIP3   OH242700   1.964   2.747   1.652  0.1270  0.2771  0.1999
 7022TIP3    H142701   2.017   2.801   1.593 -0.3674  1.8471  1.1412
 7022TIP3    H242702   1.874   2.762   1.624 -0.0675  0.5792  0.9658
 7023TIP3   OH242703   5.627   2.106   8.834 -0.1181  0.3276  0.2130
 7023TIP3    H142704   5.700   2.045   8.828  0.3721  1.0417 -1.7484
 7023TIP3    H242705   5.620   2.144   8.746 -0.1850  3.3261  1.3961
 7024TIP3   OH242706   1.950   1.204   7.875 -0.0371  0.2992  0.1081
 7024TIP3    H142707   1.911   1.157   7.950  1.7260 -1.1853  0.1728
 7024TIP3    H242708   2.043   1.211   7.897  0.6513 -0.7374 -2.1836
 7025TIP3   OH242709   3.636   2.406   8.741 -0.3167 -0.1387  0.0089
 7025TIP3    H142710   3.672   2.471   8.801  1.5552 -1.1326  0.0295
 7025TIP3    H242711   3.541   2.422   8.743 -0.0791  1.4185  1.3437
 7026TIP3   OH242712   5.043   4.822   8.273 -0.0883  0.1902 -0.0165
 7026TIP3    H142713   5.123   4.869   8.296  0.4943 -1.3146  1.2180
 7026TIP3    H242714   4.973   4.873   8.314  0.2025  1.4603 -1.0153
 7027TIP3   OH242715   5.202   4.012   0.947  0.4948  0.3626  0.5342
 7027TIP3    H142716   5.285   4.036   0.906  0.3170 -1.7005 -1.2206
 7027TIP3    H242717   5.146   4.088   0.935  0.9996  0.4520 -1.6595
 7028TIP3   OH242718   3.459   4.448   2.461 -0.2003 -0.2172  0.3420
 7028TIP3    H142719   3.437   4.375   2.403 -1.0312 -2.0989  2.8300
 7028TIP3    H242720   3.513   4.409   2.530 -1.4896  1.2650  2.3044
 7029TIP3   OH242721   0.482   4.365   1.418 -0.4531  0.3702 -0.0304
 7029TIP3    H142722   0.564   4.402   1.450 -0.3689  0.4880 -0.3802
 7029TIP3    H242723   0.439   4.332   1.497 -1.3534  2.7526  0.5607
 7030TIP3   OH242724   5.110   4.479   7.003  0.1320 -0.1352  0.4732
 7030TIP3    H142725   5.088   4.484   6.910  0.1910  0.5923  0.4913
 7030TIP3    H242726   5.155   4.561   7.021 -0.4980  0.0380  1.3082
 7031TIP3   OH242727   4.998   6.138   7.210  0.5372  0.5367  0.3367
 7031TIP3    H142728   5.033   6.150   7.298  1.1486  2.1673 -0.1035
 7031TIP3    H242729   5.070   6.100   7.160  0.2516 -0.2082  0.4801
 7032TIP3   OH242730   3.811   1.486   8.081  0.4392  0.0636 -0.7020
 7032TIP3    H142731   3.810   1.448   7.993  0.2818 -0.8784 -0.2975
 7032TIP3    H242732   3.901   1.519   8.091  1.2368 -2.0670 -0.2948
 7033TIP3   OH242733   4.542   6.123   0.433 -0.0299 -0.2965  0.4641
 7033TIP3    H142734   4.601   6.098   0.362  0.6614 -1.2325  1.3336
 7033TIP3    H242735   4.601   6.148   0.504 -0.6940 -0.4703  1.0837
 7034TIP3   OH242736   6.037   3.895   0.091  0.1865  0.8227  0.2642
 7034TIP3    H142737   5.995   3.950   0.158 -1.3218  0.4258 -0.3023
 7034TIP3    H242738   5.970   3.885   0.024  0.4940 -1.4879  0.2291
 7035TIP3   OH242739   0.113   6.087   0.743  0.2055  0.0720  0.1731
 7035TIP3    H142740   0.055   6.144   0.692 -0.2057 -1.3695 -1.0523
 7035TIP3    H242741   0.056   6.049   0.810  0.2675  0.3693  0.3981
 7036TIP3   OH242742   4.918   5.407   7.881  0.6636  0.0332 -0.1822
 7036TIP3    H142743   4.936   5.386   7.972  2.8505  0.0255 -0.5558
 7036TIP3    H242744   5.001   5.442   7.848  0.4409 -1.4672 -2.5714
 7037TIP3   OH242745   1.796   1.801   7.201 -0.4440  0.1075  0.5122
 7037TIP3    H142746   1.852   1.786   7.125 -0.1566  0.6028  0.6192
 7037TIP3    H242747   1.717   1.752   7.183 -0.1066 -0.3247  0.2007
 7038TIP3   OH242748   1.301   4.086   8.417  0.1665 -0.1116 -0.1024
 7038TIP3    H142749   1.356   4.013   8.388  1.7133  1.1770 -0.5547
 7038TIP3    H242750   1.347   4.164   8.387 -1.5680  1.0685  0.1517
 7039TIP3   OH242751   1.417   4.367   0.986 -0.4287 -0.1694 -0.0922
 7039TIP3    H142752   1.428   4.414   1.068 -0.3105  1.0823 -0.8088
 7039TIP3    H242753   1.389   4.433   0.924 -0.6247 -1.1223 -1.0447
 7040TIP3   OH242754   2.875   3.982   0.388  0.3662  0.2502  0.3786
 7040TIP3    H142755   2.866   3.934   0.471  0.9501  0.0711  0.3454
 7040TIP3    H242756   2.803   4.044   0.388 -0.4586 -0.6884  0.3924
 7041TIP3   OH242757   1.891   2.503   6.890 -0.1633  0.4304 -0.0533
 7041TIP3    H142758   1.878   2.591   6.925  0.5210 -0.4497  2.6576
 7041TIP3    H242759   1.807   2.460   6.902 -0.7963  0.9172 -2.2789
 7042TIP3   OH242760   5.860   5.126   7.963 -0.0264 -0.2480  0.6120
 7042TIP3    H142761   5.935   5.185   7.973 -0.1808 -0.0561  0.6349
 7042TIP3    H242762   5.785   5.184   7.953 -0.3156 -0.4340  1.6415
 7043TIP3   OH242763   0.533   3.799   8.609 -0.4287 -0.1811 -0.3576
 7043TIP3    H142764   0.477   3.846   8.671 -1.2268 -0.0181 -1.1835
 7043TIP3    H242765   0.515   3.840   8.525  0.8124 -0.2537 -0.6759
 7044TIP3   OH242766   4.525   3.036   2.552  0.5139  0.6641 -0.5851
 7044TIP3    H142767   4.529   3.125   2.585 -0.8917  0.3321  0.6096
 7044TIP3    H242768   4.561   2.982   2.623 -0.6420  0.1159 -0.3812
 7045TIP3   OH242769   4.407   6.128   2.355  0.1737  0.0402  0.3239
 7045TIP3    H142770   4.481   6.186   2.334  0.8895 -0.4445  1.4521
 7045TIP3    H242771   4.438   6.041   2.332 -0.2947 -0.0998  0.2126
 7046TIP3   OH242772   1.494   2.667   2.291 -0.5299  0.1172 -0.0839
 7046TIP3    H142773   1.509   2.596   2.354 -1.0559 -1.1855 -1.3686
 7046TIP3    H242774   1.451   2.735   2.342 -1.0768 -0.9646  0.9604
 7047TIP3   OH242775   2.166   4.123   2.333  0.2605  0.4565 -0.7246
 7047TIP3    H142776   2.202   4.080   2.256  0.7807  1.1675 -0.8828
 7047TIP3    H242777   2.199   4.072   2.407 -1.0542 -0.8527 -0.9686
 7048TIP3   OH242778   1.910   6.164   7.583 -0.1359  0.1700 -0.1211
 7048TIP3    H142779   1.970   6.090   7.572 -0.1141  0.3066 -1.0457
 7048TIP3    H242780   1.827   6.124   7.607 -0.1813 -0.1873 -0.8386
 7049TIP3   OH242781   5.503   3.040   0.084  0.4324  0.3792  0.1346
 7049TIP3    H142782   5.542   3.041  -0.004  2.3440 -0.1786  0.9383
 7049TIP3    H242783   5.415   3.005   0.069  0.6573  0.4155 -1.5794
 7050TIP3   OH242784   2.854   0.588   8.688  0.4892  0.2373 -0.2382
 7050TIP3    H142785   2.793   0.592   8.615  1.2666  0.0572 -0.9177
 7050TIP3    H242786   2.863   0.678   8.718 -0.2940  0.2299  0.0319
 7051TIP3   OH242787   2.233   2.782   0.570  0.1925 -0.6102 -0.2657
 7051TIP3    H142788   2.192   2.862   0.603  0.1017 -1.4477  1.7532
 7051TIP3    H242789   2.305   2.765   0.630  2.7630  0.0495 -2.9045
 7052TIP3   OH242790   0.217   3.005   7.670 -0.1194 -0.0573 -0.3728
 7052TIP3    H142791   0.168   3.018   7.752  0.2470 -0.0904 -0.1441
 7052TIP3    H242792   0.213   2.911   7.655 -0.6393  0.0113 -0.6804
 7053TIP3   OH242793   2.210   5.981   6.828 -0.2033 -0.5486  0.2720
 7053TIP3    H142794   2.213   5.961   6.734  1.7088  0.3744  0.0971
 7053TIP3    H242795   2.222   5.896   6.871  1.3630 -0.6906 -0.3742
 7054TIP3   OH242796   1.524   1.536   1.546  0.0066  0.2500  0.7020
 7054TIP3    H142797   1.552   1.514   1.635  2.3341  1.3592  0.3320
 7054TIP3    H242798   1.594   1.593   1.512 -1.0456  0.2665 -1.6653
 7055TIP3   OH242799   3.583   2.186   7.494  0.4471  0.3275 -0.0524
 7055TIP3    H142800   3.639   2.122   7.538  1.1192  0.5121 -0.6160
 7055TIP3    H242801   3.612   2.185   7.403 -0.5007  0.4024 -0.3670
 7056TIP3   OH242802   6.781   3.663   8.313  0.2942 -0.3450  0.2158
 7056TIP3    H142803   6.816   3.748   8.337 -0.7550  0.4992 -1.1177
 7056TIP3    H242804   6.745   3.675   8.225  2.2202 -2.7636 -1.0315
 7057TIP3   OH242805   6.308   0.426   0.640  0.0801 -0.0867 -0.2407
 7057TIP3    H142806   6.295   0.360   0.708 -0.6494 -1.5402 -1.7085
 7057TIP3    H242807   6.249   0.498   0.664  0.8387  0.0388  1.3550
 7058TIP3   OH242808   4.625   2.460   8.140 -0.3300 -0.4469  0.2693
 7058TIP3    H142809   4.552   2.397   8.144 -0.8436 -0.1248 -2.2822
 7058TIP3    H242810   4.698   2.409   8.104  0.5332 -0.5711  2.0992
 7059TIP3   OH242811   0.190   2.509   1.947  0.2642 -0.4571 -0.0399
 7059TIP3    H142812   0.179   2.585   1.890  2.5097 -0.3654 -0.4597
 7059TIP3    H242813   0.104   2.494   1.984 -0.2653  2.3319  0.0812
 7060TIP3   OH242814   2.356   6.666   8.270  0.3033 -0.3039 -0.9114
 7060TIP3    H142815   2.365   6.755   8.235  0.8007 -0.7236 -1.8796
 7060TIP3    H242816   2.427   6.617   8.230 -0.2039 -1.2418 -0.6958
 7061TIP3   OH242817   5.677   0.471   8.595 -0.3159 -0.1346  0.1133
 7061TIP3    H142818   5.639   0.410   8.532  1.1028 -2.1818  1.1359
 7061TIP3    H242819   5.661   0.558   8.557 -1.5401 -1.1695 -1.8861
 7062TIP3   OH242820   5.137   4.254   1.696 -0.1031 -0.5744  0.1322
 7062TIP3    H142821   5.216   4.302   1.723  0.7341 -1.1235 -1.2246
 7062TIP3    H242822   5.074   4.323   1.675 -0.3713 -0.1359  2.2498
 7063TIP3   OH242823   3.265   0.008   1.810 -0.0494  0.6049 -0.0298
 7063TIP3    H142824   3.293   0.065   1.738  0.5246  0.3123 -0.0390
 7063TIP3    H242825   3.249  -0.077   1.770 -1.9416  1.0009 -0.2065
 7064TIP3   OH242826   4.705   3.496   1.532 -0.7580 -0.2890  0.6272
 7064TIP3    H142827   4.724   3.589   1.544 -1.9275 -0.0608  0.7977
 7064TIP3    H242828   4.646   3.473   1.604  2.0543 -2.0124  2.6210
 7065TIP3   OH242829   1.063   5.165   8.500  0.1677  0.1049  0.5925
 7065TIP3    H142830   1.149   5.208   8.497  0.4102 -0.4046 -0.5641
 7065TIP3    H242831   1.007   5.225   8.549  0.8009  1.1758  0.0399
 7066TIP3   OH242832   5.170   6.470   7.012 -0.2903  0.4372  0.7608
 7066TIP3    H142833   5.111   6.533   7.055 -0.7040  1.0221 -0.6271
 7066TIP3    H242834   5.257   6.508   7.023 -0.4571  0.8872  0.5608
 7067TIP3   OH242835   5.590   0.017   1.274  0.3771 -0.1253 -0.1855
 7067TIP3    H142836   5.673   0.053   1.308  0.2546 -0.0014 -0.0147
 7067TIP3    H242837   5.569  -0.054   1.334  0.8014 -0.7225 -0.7273
 7068TIP3   OH242838   0.860   0.215   7.414  0.3920 -0.7764  1.1725
 7068TIP3    H142839   0.948   0.253   7.418  0.1001 -0.0866  1.1983
 7068TIP3    H242840   0.809   0.267   7.477 -1.4632  2.6006 -2.6917
 7069TIP3   OH242841   1.812   4.263   1.592  0.5113 -0.6885  0.5181
 7069TIP3    H142842   1.819   4.305   1.678  0.6822  0.7865 -0.1793
 7069TIP3    H242843   1.903   4.259   1.560  0.5387 -1.9530  0.7219
 7070TIP3   OH242844   0.620   4.412   0.271  0.2987  0.1342 -0.6355
 7070TIP3    H142845   0.699   4.422   0.218  0.1879 -0.5025 -0.9240
 7070TIP3    H242846   0.652   4.396   0.360  0.5326 -1.5886 -0.9964
 7071TIP3   OH242847   6.340   2.696   7.720  0.2142  0.3837 -0.0420
 7071TIP3    H142848   6.267   2.635   7.729 -0.4980  1.1994 -0.1587
 7071TIP3    H242849   6.302   2.782   7.738  1.4700  0.6800  1.4252
 7072TIP3   OH242850   3.900   0.934   2.019  0.3292 -0.1284  0.0224
 7072TIP3    H142851   3.830   0.870   2.017 -0.0614  0.3129 -0.5759
 7072TIP3    H242852   3.896   0.971   2.107  2.4966 -3.0162  1.5179
 7073TIP3   OH242853   2.784   2.862   0.255  0.4076 -0.2930 -0.0766
 7073TIP3    H142854   2.783   2.895   0.345 -1.4848 -2.4885  0.8014
 7073TIP3    H242855   2.824   2.932   0.205 -1.8356  2.6357  1.8728
 7074TIP3   OH242856   0.950   3.777   0.124 -0.1464 -0.3025 -0.0462
 7074TIP3    H142857   0.915   3.856   0.082  0.6595 -0.0284 -0.2253
 7074TIP3    H242858   0.899   3.705   0.086 -0.3396  0.0625 -0.4918
 7075TIP3   OH242859   3.863   3.558   0.640 -0.5027  0.0950 -0.8210
 7075TIP3    H142860   3.841   3.548   0.733 -4.2115 -1.2145 -1.6882
 7075TIP3    H242861   3.916   3.481   0.619  1.9129  1.2847  0.4831
 7076TIP3   OH242862   3.370   6.602   8.461 -0.2771 -0.4963  0.3513
 7076TIP3    H142863   3.294   6.587   8.404 -0.2778  0.2426  0.1518
 7076TIP3    H242864   3.340   6.572   8.548 -0.5999 -0.7406  0.1598
 7077TIP3   OH242865   5.513   5.586   7.964 -0.2819 -0.2375  0.3673
 7077TIP3    H142866   5.596   5.629   7.941  1.8237 -4.3137 -0.5800
 7077TIP3    H242867   5.529   5.545   8.048 -0.6107 -2.5871 -0.6449
 7078TIP3   OH242868   5.456   4.920   6.537  0.4953 -0.4767 -0.0324
 7078TIP3    H142869   5.531   4.861   6.544  1.2227  0.3853 -0.3734
 7078TIP3    H242870   5.467   4.963   6.452 -0.1309  0.0132  0.1285
 7079TIP3   OH242871   5.886   2.643   1.511 -0.6373  0.4514  1.1257
 7079TIP3    H142872   5.862   2.603   1.427 -0.2565 -0.7110  1.5481
 7079TIP3    H242873   5.946   2.714   1.488 -0.6099  0.2012  0.4030
 7080TIP3   OH242874   3.059   3.868   7.361 -0.1940 -0.5532  0.3261
 7080TIP3    H142875   3.135   3.907   7.317 -0.7019 -0.4469 -0.4871
 7080TIP3    H242876   3.076   3.878   7.454 -0.0272  1.0527  0.1389
 7081TIP3   OH242877   0.907   2.605   0.034 -0.2998 -0.1261 -0.3005
 7081TIP3    H142878   0.921   2.585  -0.059 -0.5331 -0.0033 -0.3615
 7081TIP3    H242879   0.939   2.527   0.080 -1.2714 -0.6803 -0.5425
 7082TIP3   OH242880   1.071   3.492   0.132  0.2172 -0.1134  0.2880
 7082TIP3    H142881   1.048   3.572   0.180 -1.0551 -0.7109  0.7316
 7082TIP3    H242882   1.064   3.423   0.198 -0.4112 -0.8029 -0.4820
 7083TIP3   OH242883   0.126   5.662   8.805 -0.0471 -0.8881 -0.2577
 7083TIP3    H142884   0.083   5.730   8.857 -0.2775 -0.1271 -1.4123
 7083TIP3    H242885   0.220   5.681   8.813 -0.0704 -0.9093  0.0599
 7084TIP3   OH242886   0.976   3.534   1.974 -0.1434  0.1586 -0.4972
 7084TIP3    H142887   0.906   3.475   1.947 -1.1452 -0.2936  2.6520
 7084TIP3    H242888   1.028   3.482   2.036 -0.2905  2.1098  1.3644
 7085TIP3   OH242889   6.355   5.710   0.926  0.3425  0.2805 -0.4862
 7085TIP3    H142890   6.436   5.685   0.970  0.9546  1.3566 -0.9629
 7085TIP3    H242891   6.296   5.637   0.942  1.3584 -0.4659 -0.0081
 7086TIP3   OH242892   5.692   2.136   1.543 -0.5245 -0.0466 -0.3312
 7086TIP3    H142893   5.646   2.090   1.613 -1.5741 -1.2151 -1.7256
 7086TIP3    H242894   5.625   2.194   1.505  0.5725  2.1271  0.8993
 7087TIP3   OH242895   0.679   2.928   7.026  0.6112 -0.1122  0.1579
 7087TIP3    H142896   0.699   2.838   7.003  2.0753 -0.0183  0.9166
 7087TIP3    H242897   0.761   2.976   7.010  0.0586  0.9462  0.3784
 7088TIP3   OH242898   2.096   4.581   8.187 -0.4625  0.1229  0.5487
 7088TIP3    H142899   2.139   4.597   8.104  4.2595  2.8716  3.0982
 7088TIP3    H242900   2.050   4.663   8.207 -0.2952  0.0484  1.2865
 7089TIP3   OH242901   6.177   3.901   8.630 -0.0599 -0.2090  0.0951
 7089TIP3    H142902   6.219   3.949   8.559 -0.6039 -0.5509 -0.4730
 7089TIP3    H242903   6.204   3.811   8.617  0.1702 -0.2066  0.5683
 7090TIP3   OH242904   3.114   3.295   7.663  1.0301  0.2455  0.2160
 7090TIP3    H142905   3.193   3.316   7.713  1.3233  0.5165 -0.3445
 7090TIP3    H242906   3.113   3.360   7.592 -0.0325  0.6503  0.5734
 7091TIP3   OH242907   3.571   1.709   1.472 -0.6056  0.5303 -0.3458
 7091TIP3    H142908   3.617   1.657   1.407 -0.2375 -0.3113  0.5665
 7091TIP3    H242909   3.490   1.661   1.488 -1.0406  1.1208 -0.6976
 7092TIP3   OH242910   0.584   5.632   6.816 -0.2792 -0.3137  0.2679
 7092TIP3    H142911   0.620   5.708   6.770 -0.6009  0.4520  1.2540
 7092TIP3    H242912   0.611   5.557   6.763 -0.6505  0.5375 -1.1739
 7093TIP3   OH242913   6.239   1.899   7.676 -0.3393  0.8545 -0.2694
 7093TIP3    H142914   6.188   1.929   7.601 -2.3434 -0.5491  0.4347
 7093TIP3    H242915   6.175   1.894   7.747  0.6124 -1.5548  0.5015
 7094TIP3   OH242916   0.394   4.986   7.459  0.0804  0.8161  0.0924
 7094TIP3    H142917   0.432   5.003   7.373  1.5571  0.8443  0.7138
 7094TIP3    H242918   0.388   5.072   7.500  0.6422  0.6690  0.5006
 7095TIP3   OH242919   4.428   1.825   6.471 -0.3075  0.2141  0.5021
 7095TIP3    H142920   4.427   1.823   6.376  0.4705  0.3221  0.4911
 7095TIP3    H242921   4.340   1.795   6.496 -1.1163  1.8151 -0.2607
 7096TIP3   OH242922   5.731   0.321   7.347  0.0710 -0.0499  0.4638
 7096TIP3    H142923   5.783   0.357   7.275 -0.3300 -1.3206 -0.4830
 7096TIP3    H242924   5.793   0.271   7.399  0.0752 -0.3838  0.1403
 7097TIP3   OH242925   3.527   6.065   0.278 -0.2680  0.1428 -0.0488
 7097TIP3    H142926   3.558   6.031   0.362 -0.2506 -0.8623 -0.4476
 7097TIP3    H242927   3.432   6.069   0.288 -0.2193  0.6074  0.2293
 7098TIP3   OH242928   4.589   1.685   0.807  0.6265 -0.2534 -0.3408
 7098TIP3    H142929   4.639   1.755   0.850  1.4237 -0.8159 -0.3273
 7098TIP3    H242930   4.617   1.605   0.852  0.5912 -0.7115 -1.1229
 7099TIP3   OH242931   0.696   5.815   6.626  0.4114  0.0972 -0.3273
 7099TIP3    H142932   0.671   5.905   6.603 -0.6181  0.0417  0.4752
 7099TIP3    H242933   0.781   5.824   6.668  0.4888  0.6614 -0.5957
 7100TIP3   OH242934   1.692   6.576   7.861  0.4730  0.1542  0.0387
 7100TIP3    H142935   1.624   6.541   7.803  0.0938  1.9494 -0.6760
 7100TIP3    H242936   1.766   6.517   7.850 -0.0693 -0.3229 -1.2501
 7101TIP3   OH242937   1.828   3.600   8.002  0.0143  0.2827  0.1613
 7101TIP3    H142938   1.778   3.661   8.056 -0.1493 -0.4164  0.8097
 7101TIP3    H242939   1.918   3.608   8.034  0.0532  0.4293  0.0167
 7102TIP3   OH242940   0.009   3.981   7.709  0.3440  0.3129 -0.2707
 7102TIP3    H142941   0.081   3.958   7.767  0.3233  1.4382  0.2236
 7102TIP3    H242942  -0.042   4.046   7.758 -0.5904  0.0764 -0.9055
 7103TIP3   OH242943   1.509   0.450   7.901 -0.2440 -0.2858 -0.2391
 7103TIP3    H142944   1.508   0.442   7.806 -0.2858 -0.5758 -0.2162
 7103TIP3    H242945   1.435   0.507   7.922  0.0911  0.2158 -0.4168
 7104TIP3   OH242946   1.658   3.206   0.634  0.3038  0.0183 -0.4098
 7104TIP3    H142947   1.607   3.126   0.619 -0.4811  0.6806 -1.4503
 7104TIP3    H242948   1.627   3.267   0.566 -0.3134  1.7766  1.3644
 7105TIP3   OH242949   0.573   0.891   1.224 -0.1967  0.1400 -0.4571
 7105TIP3    H142950   0.571   0.975   1.271  0.0579 -0.0567 -0.0803
 7105TIP3    H242951   0.528   0.908   1.142 -0.6898  0.4881 -0.1217
 7106TIP3   OH242952   6.000   0.987   1.412  0.0487 -0.4251 -0.3368
 7106TIP3    H142953   5.999   1.073   1.370 -0.4419 -0.1520  0.2269
 7106TIP3    H242954   5.935   0.993   1.482  0.5279 -1.0199  0.1779
 7107TIP3   OH242955   1.483   6.378   0.800 -0.3483  0.6170  0.4193
 7107TIP3    H142956   1.572   6.381   0.835 -0.1301 -1.4081  0.1794
 7107TIP3    H242957   1.483   6.441   0.728  1.2275 -0.0833 -0.2473
 7108TIP3   OH242958   6.043   4.239   1.815  0.8043 -0.2344  0.6218
 7108TIP3    H142959   6.111   4.172   1.803  1.4921  0.0873  2.3592
 7108TIP3    H242960   6.090   4.322   1.811  0.4448  0.0150  1.2821
 7109TIP3   OH242961   5.339   2.480   7.484 -0.1224  0.3767  0.0926
 7109TIP3    H142962   5.403   2.547   7.461 -0.2754  0.4737 -0.0612
 7109TIP3    H242963   5.387   2.417   7.538  0.2069  0.2254 -0.3713
 7110TIP3   OH242964   4.545   2.636   1.932  0.0139  0.0555 -0.3319
 7110TIP3    H142965   4.490   2.621   1.855  0.3969  2.0161 -1.0258
 7110TIP3    H242966   4.501   2.587   2.002  0.0839 -2.4493 -1.9009
 7111TIP3   OH242967   0.221   6.190   2.284  0.3943  0.8452  0.1537
 7111TIP3    H142968   0.139   6.156   2.318  0.5143  2.3710  2.1791
 7111TIP3    H242969   0.267   6.225   2.361  2.7015  0.5543 -0.9870
 7112TIP3   OH242970   2.467   4.489   0.820 -0.5914  0.2145 -0.1201
 7112TIP3    H142971   2.386   4.440   0.834 -1.6208  1.7725 -0.3855
 7112TIP3    H242972   2.441   4.581   0.824  0.7179  0.7884 -2.4860
 7113TIP3   OH242973   3.593   1.741   8.659 -0.5186 -0.3220  0.2568
 7113TIP3    H142974   3.518   1.773   8.709 -0.7710 -1.6467  0.7717
 7113TIP3    H242975   3.566   1.655   8.628  0.1949 -0.1462 -0.9352
 7114TIP3   OH242976   2.994   3.416   8.771 -0.7990 -0.0903  0.0220
 7114TIP3    H142977   3.048   3.353   8.725  0.2779  1.5381 -1.0565
 7114TIP3    H242978   3.036   3.426   8.856 -0.6154 -0.3499 -0.0375
 7115TIP3   OH242979   1.773   5.967   1.459  0.4103  0.4211  0.1752
 7115TIP3    H142980   1.848   6.019   1.431  0.0607  0.8575  0.0456
 7115TIP3    H242981   1.800   5.927   1.542  0.8173  0.4976  0.0795
 7116TIP3   OH242982   6.694   3.551   8.545  0.3969  0.4858  0.2017
 7116TIP3    H142983   6.726   3.603   8.472 -1.0165  0.2693 -0.6005
 7116TIP3    H242984   6.656   3.615   8.606  1.5314  0.6604  0.7553
 7117TIP3   OH242985   4.146   3.103   0.612  0.1880  0.0662 -0.1275
 7117TIP3    H142986   4.124   3.195   0.620 -1.7267 -0.5057  2.1749
 7117TIP3    H242987   4.242   3.101   0.608  0.2212  2.2562 -3.3592
 7118TIP3   OH242988   5.104   2.906   0.637 -0.4184  0.6545  0.3153
 7118TIP3    H142989   5.025   2.944   0.675 -0.2464  3.0574 -1.4883
 7118TIP3    H242990   5.172   2.972   0.652  0.9125 -0.6916  0.4675
 7119TIP3   OH242991   2.574   0.556   6.886  0.3521  0.1392 -0.1901
 7119TIP3    H142992   2.601   0.487   6.826  0.7933  1.0514 -1.0656
 7119TIP3    H242993   2.559   0.632   6.830 -0.1136  0.7625  0.7584
 7120TIP3   OH242994   5.132   4.933   0.820 -0.0090 -0.2620 -0.6567
 7120TIP3    H142995   5.080   4.896   0.749 -1.5385  0.6484 -0.0726
 7120TIP3    H242996   5.118   4.873   0.894 -0.0501 -0.1393 -0.5638
 7121TIP3   OH242997   3.836   5.908   8.682  0.4311  0.2536 -0.2504
 7121TIP3    H142998   3.903   5.878   8.743 -1.0492  0.3818  1.5205
 7121TIP3    H242999   3.754   5.899   8.730 -0.7103  1.1889 -1.9312
 7122TIP3   OH243000   4.963   1.379   6.785 -0.2380  0.2081  0.4001
 7122TIP3    H143001   4.970   1.474   6.776 -0.0492  0.1780  0.2343
 7122TIP3    H243002   4.872   1.360   6.762 -0.6957  0.5102  1.8652
 7123TIP3   OH243003   2.262   5.716   6.643  0.5049  0.3562  0.0784
 7123TIP3    H143004   2.348   5.734   6.681  0.3289 -0.7275  1.0680
 7123TIP3    H243005   2.267   5.624   6.616 -0.9014 -0.2957  1.8507
 7124TIP3   OH243006   2.587   4.263   7.817 -0.5273  0.0758 -0.3972
 7124TIP3    H143007   2.644   4.288   7.744 -0.9349  0.7175 -0.5039
 7124TIP3    H243008   2.606   4.328   7.885  0.2117 -0.8095  0.2635
 7125TIP3   OH243009   1.916   0.347   1.405 -0.0418  0.3185 -0.4496
 7125TIP3    H143010   1.847   0.412   1.386 -0.9110 -0.8523 -1.4434
 7125TIP3    H243011   1.997   0.391   1.380 -0.5061  1.3910 -0.1529
 7126TIP3   OH243012   1.231   4.318   1.485 -0.3884 -0.0200 -0.1629
 7126TIP3    H143013   1.234   4.413   1.494 -1.6962 -0.0530  0.7400
 7126TIP3    H243014   1.284   4.285   1.558  3.1505  0.0019 -2.4512
 7127TIP3   OH243015   4.881   4.965   7.321  0.0979 -0.2958 -0.0972
 7127TIP3    H143016   4.976   4.957   7.312  0.2382 -0.2680  1.1435
 7127TIP3    H243017   4.861   4.922   7.404 -1.2163 -1.8414 -1.1506
 7128TIP3   OH243018   2.871   0.720   0.673 -0.0297  0.3886  0.0098
 7128TIP3    H143019   2.954   0.728   0.720  1.1196 -2.5700 -1.2351
 7128TIP3    H243020   2.812   0.678   0.736  0.2822  0.0484  0.0814
 7129TIP3   OH243021   3.195   5.812   7.492  0.1206  0.4071  0.5534
 7129TIP3    H143022   3.247   5.775   7.563  1.3700  0.0856 -0.5004
 7129TIP3    H243023   3.111   5.833   7.533  1.1645  1.2723  2.3920
 7130TIP3   OH243024   4.141   2.732   8.786  0.1070 -0.2191  0.3098
 7130TIP3    H143025   4.059   2.770   8.818 -0.6610 -2.8008  1.7059
 7130TIP3    H243026   4.127   2.637   8.791  3.0263 -0.7605  0.1185
 7131TIP3   OH243027   4.078   6.312   0.081  0.6141 -0.8447  0.3896
 7131TIP3    H143028   3.983   6.298   0.078  0.4801 -1.7157  4.3282
 7131TIP3    H243029   4.115   6.226   0.098  2.0082 -0.2841  0.3635
 7132TIP3   OH243030   5.457   3.700   7.429  0.3554 -0.2761  0.2614
 7132TIP3    H143031   5.373   3.711   7.474  0.6741 -1.5514  1.2152
 7132TIP3    H243032   5.471   3.605   7.427  1.2705 -0.1356 -0.8403
 7133TIP3   OH243033   0.240   2.641   1.319 -0.2536 -0.3318  0.2132
 7133TIP3    H143034   0.253   2.715   1.260 -1.4716  0.3881  0.8022
 7133TIP3    H243035   0.291   2.663   1.397 -0.4402 -0.2005  0.3009
 7134TIP3   OH243036   3.557   3.363   2.283 -0.7078  0.3673  0.5029
 7134TIP3    H143037   3.557   3.297   2.353 -0.4661 -1.0138 -0.7497
 7134TIP3    H243038   3.563   3.447   2.329  2.7008 -0.5642  2.0824
 7135TIP3   OH243039   5.797   1.569   0.886  0.1647  0.4316  0.2940
 7135TIP3    H143040   5.719   1.565   0.831  0.8211  0.6597 -0.6727
 7135TIP3    H243041   5.765   1.548   0.974 -0.4961 -2.6119 -0.5428
 7136TIP3   OH243042   1.104   0.203   0.022  0.3231 -0.7854  0.2282
 7136TIP3    H143043   1.053   0.257   0.081 -1.6775 -0.3549 -1.7628
 7136TIP3    H243044   1.185   0.252   0.007 -0.3794  0.4425  0.3997
 7137TIP3   OH243045   1.335   2.133   8.349 -0.5396  0.3584  0.4942
 7137TIP3    H143046   1.427   2.160   8.341 -0.5574  0.5725  0.9663
 7137TIP3    H243047   1.336   2.039   8.329  0.0000  0.0609  1.8073
 7138TIP3   OH243048   3.220   0.918   8.347 -0.0897  0.4425 -0.0062
 7138TIP3    H143049   3.268   0.858   8.405 -0.3699  2.1039  2.0784
 7138TIP3    H243050   3.127   0.900   8.366 -0.4744 -2.4437 -3.6826
 7139TIP3   OH243051   0.892   6.053   1.141 -0.4407 -0.3439 -0.2913
 7139TIP3    H143052   0.845   6.113   1.083  0.5500 -1.5461 -2.4916
 7139TIP3    H243053   0.973   6.099   1.163 -1.7403  1.0173  2.0852
 7140TIP3   OH243054   1.600   3.572   6.819  0.0961  0.4102 -0.1228
 7140TIP3    H143055   1.625   3.549   6.909 -0.4719  1.2678  0.2689
 7140TIP3    H243056   1.629   3.662   6.808 -0.0436  0.3856 -0.7254
 7141TIP3   OH243057   0.892   1.447   1.802  0.1501  0.6115  0.2775
 7141TIP3    H143058   0.925   1.363   1.831 -0.3608  0.4548  0.4215
 7141TIP3    H243059   0.967   1.491   1.763  0.1611 -0.3761 -0.8697
 7142TIP3   OH243060   2.283   1.743   2.217 -0.4581  0.3530  0.3431
 7142TIP3    H143061   2.189   1.730   2.232 -0.3501  1.0773  1.8226
 7142TIP3    H243062   2.326   1.701   2.291  0.2162  2.4552  1.2348
 7143TIP3   OH243063   3.818   5.779   8.303  0.0601 -0.2779  0.2251
 7143TIP3    H143064   3.834   5.761   8.211 -0.0633 -0.4267  0.2323
 7143TIP3    H243065   3.870   5.857   8.322 -0.7256  0.3763 -0.2379
 7144TIP3   OH243066   0.584   4.568   0.863 -0.2206 -0.2809 -0.1048
 7144TIP3    H143067   0.572   4.601   0.952  2.0543 -1.3805  0.7047
 7144TIP3    H243068   0.653   4.502   0.871 -1.0080 -1.5197 -2.4617
 7145TIP3   OH243069   3.592   6.786   1.153 -0.1538 -0.1097  0.1870
 7145TIP3    H143070   3.504   6.813   1.180 -1.2081 -2.6473 -0.3682
 7145TIP3    H243071   3.603   6.700   1.192  2.8172  0.8016  1.5829
 7146TIP3   OH243072   6.249   4.649   0.989 -0.1785 -0.3076 -0.3637
 7146TIP3    H143073   6.208   4.734   1.007 -2.4340 -1.0603 -1.5147
 7146TIP3    H243074   6.311   4.637   1.060 -0.4755  1.8739  0.3593
 7147TIP3   OH243075   6.100   2.850   1.451 -0.5403 -0.3997  0.5070
 7147TIP3    H143076   6.033   2.866   1.384 -1.7848  1.5757  2.1236
 7147TIP3    H243077   6.173   2.907   1.426 -1.2823  0.8821  1.1459
 7148TIP3   OH243078   1.127   6.384   1.800 -0.1945 -0.4832  0.3740
 7148TIP3    H143079   1.094   6.455   1.857  0.5670  0.3522 -0.1935
 7148TIP3    H243080   1.222   6.396   1.800 -0.1720 -0.5265 -0.9936
 7149TIP3   OH243081   1.378   0.839   7.211 -0.2103  0.2317 -0.0328
 7149TIP3    H143082   1.384   0.745   7.191 -0.5350  0.2780 -0.3475
 7149TIP3    H243083   1.463   0.859   7.252  0.0842 -0.0769 -0.4779
 7150TIP3   OH243084   3.988   5.838   7.028  0.3254  0.3811 -0.7195
 7150TIP3    H143085   4.057   5.897   6.997  0.4388 -0.3629 -1.9212
 7150TIP3    H243086   3.930   5.827   6.953  0.2432 -0.9492 -0.4840
 7151TIP3   OH243087   1.105   3.985   1.845  0.0806  0.1359 -0.2758
 7151TIP3    H143088   1.037   4.048   1.822 -1.6639 -1.5926 -0.1661
 7151TIP3    H243089   1.061   3.924   1.905  1.5131 -1.4325 -0.7403
 7152TIP3   OH243090   4.392   1.655   7.620 -0.4508 -0.7270 -0.1391
 7152TIP3    H143091   4.419   1.596   7.549  0.3335 -1.0030  0.3713
 7152TIP3    H243092   4.315   1.700   7.586 -0.9723 -1.9194 -0.6126
 7153TIP3   OH243093   0.670   4.793   7.347 -0.2447  0.7264  0.2988
 7153TIP3    H143094   0.614   4.762   7.276  0.9228  0.0346 -0.3660
 7153TIP3    H243095   0.677   4.887   7.333 -1.7399  0.9264  0.7833
 7154TIP3   OH243096   5.569   3.000   1.002  0.4207 -0.4496 -0.4006
 7154TIP3    H143097   5.605   3.075   0.954 -0.8313  0.1557 -0.4258
 7154TIP3    H243098   5.483   3.029   1.031  0.3303 -1.5326  0.4756
 7155TIP3   OH243099   2.231   0.669   0.333 -0.5831  0.4046  0.2370
 7155TIP3    H143100   2.314   0.705   0.365 -1.1133 -0.0856  2.3189
 7155TIP3    H243101   2.170   0.743   0.338 -0.4642  0.5701 -0.5921
 7156TIP3   OH243102   2.377   2.589   1.243  0.3333  0.4963 -0.7344
 7156TIP3    H143103   2.338   2.648   1.308  2.0548  0.2056  0.6476
 7156TIP3    H243104   2.318   2.513   1.241 -0.4623  1.1049 -0.5118
 7157TIP3   OH243105   5.873   2.843   1.915  0.3332  0.2289  1.1035
 7157TIP3    H143106   5.905   2.761   1.952  2.1475  1.2785  1.9767
 7157TIP3    H243107   5.919   2.852   1.832  0.1873  0.3998  1.0391
 7158TIP3   OH243108   0.596   1.768   6.817 -0.2892  0.4456  0.2243
 7158TIP3    H143109   0.545   1.723   6.885  0.1113 -1.3061 -0.5833
 7158TIP3    H243110   0.533   1.784   6.747  0.0035 -0.8831 -0.3862
 7159TIP3   OH243111   0.338   0.667   0.907 -0.0847  0.3187 -0.1654
 7159TIP3    H143112   0.386   0.590   0.937 -0.1960 -0.0614 -0.9265
 7159TIP3    H243113   0.306   0.642   0.820 -0.8910  0.8982 -0.0396
 7160TIP3   OH243114   2.063   1.431   2.451 -0.1398  0.7101  0.0816
 7160TIP3    H143115   2.121   1.387   2.388  1.7059  2.2149  0.6473
 7160TIP3    H243116   2.003   1.362   2.479  1.0171 -0.8013 -0.9562
 7161TIP3   OH243117   2.716   1.727   7.213  0.2084 -0.0158  0.3087
 7161TIP3    H143118   2.710   1.722   7.309 -0.6551  0.9938  0.3260
 7161TIP3    H243119   2.747   1.816   7.196 -1.9942  0.7008 -0.3919
 7162TIP3   OH243120   2.281   3.818   1.575  0.2544  0.0271  0.2623
 7162TIP3    H143121   2.351   3.848   1.518 -1.7497  1.0618 -1.8422
 7162TIP3    H243122   2.316   3.828   1.664  3.5504 -1.7535 -0.6631
 7163TIP3   OH243123   3.089   1.246   8.275 -0.7464  0.0441 -0.2301
 7163TIP3    H143124   3.122   1.285   8.356  1.9607 -1.8636 -0.2711
 7163TIP3    H243125   3.018   1.189   8.304 -0.1338 -0.2522  0.7809
 7164TIP3   OH243126   4.256   6.793   0.310 -0.2963 -0.1740  0.3707
 7164TIP3    H143127   4.197   6.818   0.381 -0.9689  1.0242 -0.5567
 7164TIP3    H243128   4.198   6.758   0.242  0.1119  0.4199 -0.2990
 7165TIP3   OH243129   4.412   1.281   0.532 -0.3552  0.2741  0.6407
 7165TIP3    H143130   4.427   1.283   0.626 -0.7467  1.2465  0.6975
 7165TIP3    H243131   4.377   1.194   0.515 -1.9255  0.6662  1.6682
 7166TIP3   OH243132   1.214   1.332   0.702 -0.1633  0.7416  0.0923
 7166TIP3    H143133   1.126   1.352   0.672 -0.4231 -1.9663 -1.2593
 7166TIP3    H243134   1.202   1.299   0.791 -0.7088 -0.6745 -0.4780
 7167TIP3   OH243135   5.813   4.989   7.276  0.5521 -0.6021 -0.4522
 7167TIP3    H143136   5.906   4.969   7.259  0.6509  0.0398 -0.6810
 7167TIP3    H243137   5.766   4.911   7.246  1.0794 -1.3132  0.4932
 7168TIP3   OH243138   6.171   5.844   7.363  0.7870 -0.0749 -0.0616
 7168TIP3    H143139   6.258   5.803   7.358  0.0707 -1.5754 -1.0483
 7168TIP3    H243140   6.111   5.770   7.366 -0.5044  0.9456 -0.2680
 7169TIP3   OH243141   3.230   4.557   0.447 -0.2399  0.3131  0.2055
 7169TIP3    H143142   3.239   4.482   0.388 -0.4179 -0.3393  0.9761
 7169TIP3    H243143   3.157   4.608   0.411 -0.9052 -0.5301  0.3279
 7170TIP3   OH243144   0.094   2.523   0.370  0.4476 -0.2399 -0.0046
 7170TIP3    H143145   0.080   2.570   0.288  2.4009 -0.7537 -0.6720
 7170TIP3    H243146   0.107   2.591   0.435 -1.4796  0.1818  0.0143
 7171TIP3   OH243147   2.996   2.508   8.373 -0.4104  0.2855  0.0590
 7171TIP3    H143148   3.049   2.520   8.451  0.1804 -0.4779 -0.2124
 7171TIP3    H243149   2.913   2.552   8.393  0.6391  2.3420  0.1189
 7172TIP3   OH243150   1.439   4.547   0.230  0.4428 -0.2588  0.2146
 7172TIP3    H143151   1.415   4.537   0.138 -0.0730  0.1390  0.3012
 7172TIP3    H243152   1.483   4.465   0.253  0.7907 -0.2595 -0.4502
 7173TIP3   OH243153   4.910   1.679   0.780  0.1298 -0.5468  0.2494
 7173TIP3    H143154   4.853   1.607   0.808 -1.5083  0.2822 -0.7931
 7173TIP3    H243155   4.975   1.637   0.724 -0.4845 -1.3109  0.0821
 7174TIP3   OH243156   3.512   5.486   6.302  0.4040  0.2651 -0.2221
 7174TIP3    H143157   3.538   5.528   6.385  2.2712 -0.2863 -0.4782
 7174TIP3    H243158   3.526   5.554   6.236 -1.0802  0.7027 -0.1280
 7175TIP3   OH243159   4.161   3.374   0.066 -0.2081  0.4514 -0.8341
 7175TIP3    H143160   4.195   3.344   0.151  0.1416 -1.7778 -1.7166
 7175TIP3    H243161   4.234   3.423   0.028 -0.1505  0.9243 -0.1497
 7176TIP3   OH243162   0.806   4.529   6.434 -0.3769 -0.2129 -0.0516
 7176TIP3    H143163   0.808   4.515   6.529  1.5447  0.8860  0.1196
 7176TIP3    H243164   0.851   4.452   6.398 -2.3792 -1.3656 -0.2418
 7177TIP3   OH243165   2.764   1.617   8.379 -0.6134  0.4323 -0.3347
 7177TIP3    H143166   2.818   1.684   8.337  1.2456 -0.2108  0.8857
 7177TIP3    H243167   2.746   1.652   8.466 -0.7863 -0.0702 -0.1639
 7178TIP3   OH243168   1.909   5.645   1.720 -0.5725 -0.2676  0.0307
 7178TIP3    H143169   1.823   5.682   1.699 -1.5883 -2.0012  0.8948
 7178TIP3    H243170   1.899   5.613   1.810  1.0051 -0.4833  0.1529
 7179TIP3   OH243171   6.673   5.257   8.852  0.2130  0.7629 -0.0681
 7179TIP3    H143172   6.579   5.256   8.837  0.1270 -0.6312  0.3978
 7179TIP3    H243173   6.692   5.345   8.882 -0.7265  1.4696 -1.4491
 7180TIP3   OH243174   6.020   2.186   1.696  0.1552  0.1268  0.2992
 7180TIP3    H143175   5.997   2.128   1.624  0.9573 -1.6783  1.4283
 7180TIP3    H243176   5.961   2.261   1.686  0.9399  0.4535 -2.7932
 7181TIP3   OH243177   4.701   6.153   7.993 -0.3977  0.2238  0.3652
 7181TIP3    H143178   4.705   6.076   8.049  0.8099  0.5887  0.7993
 7181TIP3    H243179   4.640   6.128   7.923 -1.2768 -0.5321  1.3605
 7182TIP3   OH243180   3.577   5.517   8.873 -0.4461 -0.0909  0.4534
 7182TIP3    H143181   3.632   5.560   8.940 -0.1767 -0.7674  0.6758
 7182TIP3    H243182   3.632   5.517   8.795 -0.2740 -0.4201  0.5724
 7183LIG      O43183   2.089   1.850   4.175  0.2256 -0.1124  0.0304
 7183LIG     C143184   2.065   1.988   4.153  0.2309  0.3542  0.2723
 7183LIG     C243185   2.101   2.015   4.006  0.6142 -0.2244  0.4461
 7183LIG     C343186   1.914   2.015   4.176  0.3305  0.0909  0.5785
 7183LIG     H143187   2.131   2.040   4.226  0.9374 -1.4242  0.9797
 7183LIG     H243188   2.030   1.969   3.934  2.5153  0.8724 -2.2988
 7183LIG     H343189   2.203   1.983   3.976  0.9166 -0.0425  1.2616
 7183LIG     H443190   2.078   2.122   3.983 -1.0572 -0.9937 -1.7936
 7183LIG     H543191   1.883   1.982   4.278  1.4848 -0.6528  0.7159
 7183LIG     H643192   1.857   1.968   4.093 -0.4593  0.5955  0.8228
 7183LIG     H743193   1.910   2.125   4.166  1.9427  0.1915  0.7296
 7183LIG     H843194   2.021   1.807   4.121 -0.1046 -0.5204  0.7588
   6.82509   6.82509   8.91281
