Title
43209
    1CHL1    C3    1   3.424   2.253   5.783
    1CHL1    H3    2   3.496   2.337   5.796
    1CHL1    O3    3   3.391   2.208   5.907
    1CHL1   H3'    4   3.340   2.280   5.945
    1CHL1    C4    5   3.299   2.312   5.714
    1CHL1   H4A    6   3.220   2.233   5.719
    1CHL1   H4B    7   3.252   2.393   5.774
    1CHL1    C5    8   3.334   2.358   5.575
    1CHL1    C6    9   3.306   2.487   5.535
    1CHL1    H6   10   3.264   2.560   5.605
    1CHL1    C7   11   3.333   2.521   5.392
    1CHL1   H7A   12   3.249   2.589   5.366
    1CHL1   H7B   13   3.423   2.585   5.378
    1CHL1    C8   14   3.352   2.413   5.282
    1CHL1    H8   15   3.247   2.381   5.263
    1CHL1   C14   16   3.419   2.453   5.156
    1CHL1   H14   17   3.522   2.485   5.182
    1CHL1   C15   18   3.357   2.576   5.081
    1CHL1  H15A   19   3.247   2.592   5.081
    1CHL1  H15B   20   3.406   2.664   5.128
    1CHL1   C16   21   3.397   2.567   4.930
    1CHL1  H16A   22   3.312   2.560   4.858
    1CHL1  H16B   23   3.471   2.641   4.893
    1CHL1   C17   24   3.477   2.425   4.920
    1CHL1   H17   25   3.586   2.441   4.936
    1CHL1   C13   26   3.425   2.345   5.044
    1CHL1   C18   27   3.287   2.286   5.014
    1CHL1  H18A   28   3.241   2.239   5.104
    1CHL1  H18B   29   3.219   2.365   4.976
    1CHL1  H18C   30   3.283   2.201   4.943
    1CHL1   C12   31   3.521   2.240   5.106
    1CHL1  H12A   32   3.540   2.157   5.036
    1CHL1  H12B   33   3.622   2.285   5.122
    1CHL1   C11   34   3.474   2.193   5.236
    1CHL1  H11A   35   3.395   2.119   5.211
    1CHL1  H11B   36   3.559   2.137   5.281
    1CHL1    C9   37   3.434   2.298   5.341
    1CHL1    H9   38   3.531   2.346   5.364
    1CHL1   C10   39   3.387   2.248   5.482
    1CHL1   C19   40   3.270   2.146   5.456
    1CHL1  H19A   41   3.311   2.060   5.400
    1CHL1  H19B   42   3.237   2.110   5.556
    1CHL1  H19C   43   3.180   2.185   5.403
    1CHL1    C1   44   3.500   2.180   5.559
    1CHL1   H1A   45   3.551   2.097   5.505
    1CHL1   H1B   46   3.579   2.258   5.570
    1CHL1    C2   47   3.476   2.133   5.706
    1CHL1   H2A   48   3.570   2.095   5.750
    1CHL1   H2B   49   3.400   2.052   5.715
    1CHL1   C20   50   3.462   2.356   4.787
    1CHL1   H20   51   3.354   2.345   4.765
    1CHL1   C21   52   3.521   2.220   4.793
    1CHL1  H21A   53   3.459   2.150   4.852
    1CHL1  H21B   54   3.629   2.219   4.822
    1CHL1  H21C   55   3.525   2.179   4.690
    1CHL1   C22   56   3.528   2.432   4.664
    1CHL1  H22A   57   3.517   2.541   4.677
    1CHL1  H22B   58   3.636   2.407   4.664
    1CHL1   C23   59   3.476   2.385   4.531
    1CHL1  H23A   60   3.536   2.299   4.496
    1CHL1  H23B   61   3.366   2.373   4.539
    1CHL1   C24   62   3.506   2.476   4.410
    1CHL1  H24A   63   3.598   2.530   4.440
    1CHL1  H24B   64   3.527   2.425   4.313
    1CHL1   C25   65   3.403   2.585   4.383
    1CHL1   H25   66   3.380   2.623   4.485
    1CHL1   C26   67   3.455   2.704   4.294
    1CHL1  H26A   68   3.540   2.761   4.337
    1CHL1  H26B   69   3.475   2.664   4.192
    1CHL1  H26C   70   3.369   2.774   4.285
    1CHL1   C27   71   3.265   2.524   4.332
    1CHL1  H27A   72   3.200   2.602   4.287
    1CHL1  H27B   73   3.289   2.450   4.252
    1CHL1  H27C   74   3.214   2.479   4.420
    2CHL1    C3   75   4.688   2.241   6.285
    2CHL1    H3   76   4.763   2.323   6.286
    2CHL1    O3   77   4.659   2.192   6.412
    2CHL1   H3'   78   4.574   2.147   6.408
    2CHL1    C4   79   4.568   2.303   6.213
    2CHL1   H4A   80   4.481   2.235   6.227
    2CHL1   H4B   81   4.545   2.393   6.274
    2CHL1    C5   82   4.592   2.333   6.064
    2CHL1    C6   83   4.557   2.448   6.005
    2CHL1    H6   84   4.525   2.526   6.076
    2CHL1    C7   85   4.571   2.476   5.856
    2CHL1   H7A   86   4.479   2.515   5.808
    2CHL1   H7B   87   4.667   2.532   5.849
    2CHL1    C8   88   4.602   2.349   5.774
    2CHL1    H8   89   4.504   2.296   5.773
    2CHL1   C14   90   4.651   2.390   5.640
    2CHL1   H14   91   4.753   2.433   5.654
    2CHL1   C15   92   4.568   2.491   5.563
    2CHL1  H15A   93   4.461   2.460   5.565
    2CHL1  H15B   94   4.575   2.594   5.602
    2CHL1   C16   95   4.626   2.482   5.425
    2CHL1  H16A   96   4.543   2.474   5.352
    2CHL1  H16B   97   4.690   2.570   5.401
    2CHL1   C17   98   4.713   2.350   5.412
    2CHL1   H17   99   4.814   2.388   5.440
    2CHL1   C13  100   4.676   2.272   5.544
    2CHL1   C18  101   4.549   2.186   5.513
    2CHL1  H18A  102   4.496   2.179   5.610
    2CHL1  H18B  103   4.472   2.231   5.445
    2CHL1  H18C  104   4.567   2.090   5.461
    2CHL1   C12  105   4.792   2.188   5.603
    2CHL1  H12A  106   4.818   2.093   5.552
    2CHL1  H12B  107   4.888   2.245   5.611
    2CHL1   C11  108   4.754   2.147   5.748
    2CHL1  H11A  109   4.684   2.062   5.732
    2CHL1  H11B  110   4.848   2.107   5.793
    2CHL1    C9  111   4.703   2.259   5.844
    2CHL1    H9  112   4.781   2.336   5.862
    2CHL1   C10  113   4.657   2.216   5.983
    2CHL1   C19  114   4.548   2.102   5.969
    2CHL1  H19A  115   4.468   2.145   5.906
    2CHL1  H19B  116   4.591   2.020   5.908
    2CHL1  H19C  117   4.510   2.059   6.065
    2CHL1    C1  118   4.775   2.149   6.060
    2CHL1   H1A  119   4.816   2.057   6.014
    2CHL1   H1B  120   4.861   2.220   6.064
    2CHL1    C2  121   4.757   2.120   6.203
    2CHL1   H2A  122   4.855   2.108   6.254
    2CHL1   H2B  123   4.698   2.027   6.214
    2CHL1   C20  124   4.715   2.281   5.275
    2CHL1   H20  125   4.618   2.232   5.252
    2CHL1   C21  126   4.815   2.163   5.284
    2CHL1  H21A  127   4.909   2.194   5.334
    2CHL1  H21B  128   4.838   2.104   5.193
    2CHL1  H21C  129   4.770   2.086   5.351
    2CHL1   C22  130   4.755   2.379   5.162
    2CHL1  H22A  131   4.688   2.467   5.170
    2CHL1  H22B  132   4.861   2.411   5.174
    2CHL1   C23  133   4.758   2.314   5.022
    2CHL1  H23A  134   4.809   2.215   5.020
    2CHL1  H23B  135   4.653   2.282   5.002
    2CHL1   C24  136   4.824   2.402   4.915
    2CHL1  H24A  137   4.754   2.488   4.907
    2CHL1  H24B  138   4.925   2.427   4.954
    2CHL1   C25  139   4.841   2.349   4.769
    2CHL1   H25  140   4.915   2.267   4.780
    2CHL1   C26  141   4.720   2.293   4.705
    2CHL1  H26A  142   4.651   2.376   4.679
    2CHL1  H26B  143   4.738   2.258   4.601
    2CHL1  H26C  144   4.679   2.201   4.752
    2CHL1   C27  145   4.907   2.457   4.685
    2CHL1  H27A  146   5.010   2.471   4.723
    2CHL1  H27B  147   4.925   2.432   4.578
    2CHL1  H27C  148   4.850   2.552   4.678
    3CHL1    C3  149   5.266   1.833   6.209
    3CHL1    H3  150   5.367   1.818   6.165
    3CHL1    O3  151   5.289   1.866   6.341
    3CHL1   H3'  152   5.211   1.911   6.372
    3CHL1    C4  153   5.198   1.954   6.148
    3CHL1   H4A  154   5.101   1.962   6.201
    3CHL1   H4B  155   5.258   2.046   6.166
    3CHL1    C5  156   5.182   1.928   6.003
    3CHL1    C6  157   5.234   2.016   5.909
    3CHL1    H6  158   5.284   2.106   5.948
    3CHL1    C7  159   5.211   2.001   5.761
    3CHL1   H7A  160   5.184   2.098   5.713
    3CHL1   H7B  161   5.307   1.982   5.708
    3CHL1    C8  162   5.106   1.885   5.730
    3CHL1    H8  163   5.001   1.922   5.729
    3CHL1   C14  164   5.126   1.840   5.583
    3CHL1   H14  165   5.225   1.789   5.583
    3CHL1   C15  166   5.128   1.942   5.470
    3CHL1  H15A  167   5.059   2.027   5.488
    3CHL1  H15B  168   5.231   1.983   5.466
    3CHL1   C16  169   5.089   1.873   5.338
    3CHL1  H16A  170   5.005   1.936   5.300
    3CHL1  H16B  171   5.177   1.870   5.271
    3CHL1   C17  172   5.051   1.719   5.383
    3CHL1   H17  173   5.150   1.670   5.370
    3CHL1   C13  174   5.025   1.730   5.536
    3CHL1   C18  175   4.875   1.781   5.542
    3CHL1  H18A  176   4.816   1.695   5.503
    3CHL1  H18B  177   4.854   1.792   5.650
    3CHL1  H18C  178   4.863   1.874   5.481
    3CHL1   C12  179   5.041   1.604   5.629
    3CHL1  H12A  180   4.976   1.517   5.606
    3CHL1  H12B  181   5.146   1.570   5.613
    3CHL1   C11  182   5.033   1.641   5.777
    3CHL1  H11A  183   4.925   1.658   5.796
    3CHL1  H11B  184   5.064   1.556   5.841
    3CHL1    C9  185   5.121   1.763   5.819
    3CHL1    H9  186   5.228   1.741   5.802
    3CHL1   C10  187   5.111   1.799   5.967
    3CHL1   C19  188   4.967   1.838   6.003
    3CHL1  H19A  189   4.937   1.918   5.932
    3CHL1  H19B  190   4.897   1.752   5.991
    3CHL1  H19C  191   4.952   1.856   6.111
    3CHL1    C1  192   5.160   1.679   6.055
    3CHL1   H1A  193   5.075   1.608   6.049
    3CHL1   H1B  194   5.247   1.635   6.002
    3CHL1    C2  195   5.187   1.702   6.200
    3CHL1   H2A  196   5.248   1.617   6.239
    3CHL1   H2B  197   5.105   1.710   6.275
    3CHL1   C20  198   4.950   1.654   5.293
    3CHL1   H20  199   4.852   1.706   5.298
    3CHL1   C21  200   4.929   1.508   5.322
    3CHL1  H21A  201   4.850   1.492   5.399
    3CHL1  H21B  202   5.027   1.466   5.351
    3CHL1  H21C  203   4.913   1.441   5.235
    3CHL1   C22  204   4.987   1.660   5.139
    3CHL1  H22A  205   4.911   1.596   5.089
    3CHL1  H22B  206   4.962   1.764   5.107
    3CHL1   C23  207   5.132   1.612   5.113
    3CHL1  H23A  208   5.193   1.704   5.126
    3CHL1  H23B  209   5.171   1.541   5.190
    3CHL1   C24  210   5.144   1.528   4.981
    3CHL1  H24A  211   5.071   1.445   4.992
    3CHL1  H24B  212   5.110   1.585   4.892
    3CHL1   C25  213   5.279   1.467   4.956
    3CHL1   H25  214   5.297   1.414   5.052
    3CHL1   C26  215   5.274   1.381   4.834
    3CHL1  H26A  216   5.268   1.448   4.746
    3CHL1  H26B  217   5.366   1.319   4.826
    3CHL1  H26C  218   5.188   1.312   4.823
    3CHL1   C27  219   5.393   1.573   4.953
    3CHL1  H27A  220   5.377   1.656   4.881
    3CHL1  H27B  221   5.387   1.616   5.056
    3CHL1  H27C  222   5.497   1.540   4.932
    4CHL1    C3  223   4.139   1.965   6.079
    4CHL1    H3  224   4.237   1.916   6.059
    4CHL1    O3  225   4.113   1.974   6.218
    4CHL1   H3'  226   4.085   1.884   6.237
    4CHL1    C4  227   4.121   2.112   6.032
    4CHL1   H4A  228   4.030   2.159   6.073
    4CHL1   H4B  229   4.208   2.166   6.075
    4CHL1    C5  230   4.117   2.129   5.878
    4CHL1    C6  231   4.194   2.218   5.809
    4CHL1    H6  232   4.266   2.288   5.855
    4CHL1    C7  233   4.182   2.238   5.663
    4CHL1   H7A  234   4.176   2.344   5.632
    4CHL1   H7B  235   4.277   2.203   5.616
    4CHL1    C8  236   4.064   2.167   5.590
    4CHL1    H8  237   3.977   2.233   5.614
    4CHL1   C14  238   4.089   2.148   5.438
    4CHL1   H14  239   4.174   2.078   5.429
    4CHL1   C15  240   4.123   2.279   5.365
    4CHL1  H15A  241   4.060   2.367   5.388
    4CHL1  H15B  242   4.231   2.304   5.379
    4CHL1   C16  243   4.118   2.238   5.215
    4CHL1  H16A  244   4.066   2.317   5.157
    4CHL1  H16B  245   4.214   2.219   5.161
    4CHL1   C17  246   4.031   2.108   5.212
    4CHL1   H17  247   4.101   2.025   5.191
    4CHL1   C13  248   3.971   2.094   5.358
    4CHL1   C18  249   3.846   2.180   5.381
    4CHL1  H18A  250   3.768   2.149   5.308
    4CHL1  H18B  251   3.809   2.172   5.485
    4CHL1  H18C  252   3.862   2.288   5.358
    4CHL1   C12  253   3.967   1.949   5.407
    4CHL1  H12A  254   3.892   1.891   5.349
    4CHL1  H12B  255   4.063   1.895   5.392
    4CHL1   C11  256   3.931   1.948   5.564
    4CHL1  H11A  257   3.826   1.985   5.570
    4CHL1  H11B  258   3.933   1.843   5.600
    4CHL1    C9  259   4.038   2.033   5.646
    4CHL1    H9  260   4.137   1.982   5.647
    4CHL1   C10  261   4.017   2.033   5.802
    4CHL1   C19  262   3.873   2.084   5.833
    4CHL1  H19A  263   3.851   2.093   5.942
    4CHL1  H19B  264   3.858   2.184   5.788
    4CHL1  H19C  265   3.803   2.015   5.781
    4CHL1    C1  266   4.024   1.889   5.868
    4CHL1   H1A  267   3.937   1.826   5.842
    4CHL1   H1B  268   4.114   1.841   5.824
    4CHL1    C2  269   4.027   1.886   6.022
    4CHL1   H2A  270   4.043   1.781   6.053
    4CHL1   H2B  271   3.929   1.915   6.065
    4CHL1   C20  272   3.934   2.110   5.095
    4CHL1   H20  273   3.872   2.201   5.099
    4CHL1   C21  274   3.837   1.995   5.093
    4CHL1  H21A  275   3.882   1.894   5.089
    4CHL1  H21B  276   3.754   2.002   5.020
    4CHL1  H21C  277   3.786   1.986   5.191
    4CHL1   C22  278   4.015   2.107   4.962
    4CHL1  H22A  279   3.936   2.141   4.892
    4CHL1  H22B  280   4.089   2.189   4.959
    4CHL1   C23  281   4.068   1.974   4.910
    4CHL1  H23A  282   4.153   1.930   4.966
    4CHL1  H23B  283   3.986   1.900   4.896
    4CHL1   C24  284   4.134   2.008   4.773
    4CHL1  H24A  285   4.057   2.027   4.695
    4CHL1  H24B  286   4.193   2.102   4.779
    4CHL1   C25  287   4.239   1.911   4.704
    4CHL1   H25  288   4.310   1.890   4.787
    4CHL1   C26  289   4.185   1.774   4.663
    4CHL1  H26A  290   4.133   1.725   4.748
    4CHL1  H26B  291   4.124   1.791   4.572
    4CHL1  H26C  292   4.270   1.712   4.629
    4CHL1   C27  293   4.314   1.977   4.583
    4CHL1  H27A  294   4.411   1.925   4.570
    4CHL1  H27B  295   4.251   1.962   4.493
    4CHL1  H27C  296   4.336   2.084   4.600
    5CHL1    C3  297   4.127   3.830   5.900
    5CHL1    H3  298   4.137   3.728   5.942
    5CHL1    O3  299   4.129   3.915   6.015
    5CHL1   H3'  300   4.152   4.005   5.989
    5CHL1    C4  301   4.239   3.860   5.798
    5CHL1   H4A  302   4.239   3.969   5.775
    5CHL1   H4B  303   4.329   3.842   5.860
    5CHL1    C5  304   4.223   3.779   5.673
    5CHL1    C6  305   4.330   3.704   5.629
    5CHL1    H6  306   4.424   3.705   5.686
    5CHL1    C7  307   4.313   3.621   5.505
    5CHL1   H7A  308   4.404   3.602   5.444
    5CHL1   H7B  309   4.300   3.518   5.545
    5CHL1    C8  310   4.186   3.650   5.413
    5CHL1    H8  311   4.218   3.738   5.354
    5CHL1   C14  312   4.164   3.542   5.313
    5CHL1   H14  313   4.135   3.448   5.365
    5CHL1   C15  314   4.288   3.490   5.227
    5CHL1  H15A  315   4.346   3.580   5.199
    5CHL1  H15B  316   4.358   3.419   5.275
    5CHL1   C16  317   4.220   3.442   5.101
    5CHL1  H16A  318   4.259   3.497   5.013
    5CHL1  H16B  319   4.230   3.332   5.087
    5CHL1   C17  320   4.062   3.461   5.109
    5CHL1   H17  321   4.024   3.367   5.156
    5CHL1   C13  322   4.046   3.574   5.213
    5CHL1   C18  323   4.078   3.707   5.138
    5CHL1  H18A  324   4.177   3.709   5.087
    5CHL1  H18B  325   3.997   3.737   5.069
    5CHL1  H18C  326   4.081   3.793   5.209
    5CHL1   C12  327   3.918   3.584   5.295
    5CHL1  H12A  328   3.833   3.618   5.232
    5CHL1  H12B  329   3.886   3.494   5.351
    5CHL1   C11  330   3.937   3.691   5.409
    5CHL1  H11A  331   3.938   3.788   5.354
    5CHL1  H11B  332   3.852   3.695   5.481
    5CHL1    C9  333   4.068   3.678   5.497
    5CHL1    H9  334   4.050   3.584   5.553
    5CHL1   C10  335   4.086   3.787   5.609
    5CHL1   C19  336   4.053   3.923   5.547
    5CHL1  H19A  337   4.070   4.009   5.615
    5CHL1  H19B  338   4.119   3.944   5.460
    5CHL1  H19C  339   3.949   3.931   5.510
    5CHL1    C1  340   3.978   3.754   5.719
    5CHL1   H1A  341   3.874   3.757   5.682
    5CHL1   H1B  342   3.993   3.648   5.750
    5CHL1    C2  343   3.989   3.842   5.842
    5CHL1   H2A  344   3.901   3.822   5.906
    5CHL1   H2B  345   3.976   3.945   5.801
    5CHL1   C20  346   3.986   3.475   4.972
    5CHL1   H20  347   3.991   3.580   4.936
    5CHL1   C21  348   3.837   3.442   5.000
    5CHL1  H21A  349   3.824   3.340   5.044
    5CHL1  H21B  350   3.773   3.446   4.910
    5CHL1  H21C  351   3.807   3.520   5.074
    5CHL1   C22  352   4.037   3.384   4.859
    5CHL1  H22A  353   4.146   3.406   4.857
    5CHL1  H22B  354   4.021   3.276   4.882
    5CHL1   C23  355   3.985   3.424   4.720
    5CHL1  H23A  356   3.880   3.386   4.720
    5CHL1  H23B  357   3.990   3.533   4.699
    5CHL1   C24  358   4.056   3.333   4.613
    5CHL1  H24A  359   4.167   3.344   4.611
    5CHL1  H24B  360   4.045   3.233   4.660
    5CHL1   C25  361   3.986   3.348   4.478
    5CHL1   H25  362   3.877   3.329   4.488
    5CHL1   C26  363   4.004   3.488   4.419
    5CHL1  H26A  364   3.955   3.569   4.479
    5CHL1  H26B  365   4.110   3.519   4.418
    5CHL1  H26C  366   3.971   3.489   4.313
    5CHL1   C27  367   4.034   3.250   4.371
    5CHL1  H27A  368   3.972   3.270   4.281
    5CHL1  H27B  369   4.145   3.252   4.360
    5CHL1  H27C  370   4.012   3.146   4.403
    6CHL1    C3  371   3.299   1.157   5.761
    6CHL1    H3  372   3.387   1.096   5.730
    6CHL1    O3  373   3.279   1.152   5.899
    6CHL1   H3'  374   3.191   1.185   5.920
    6CHL1    C4  375   3.333   1.307   5.719
    6CHL1   H4A  376   3.250   1.374   5.747
    6CHL1   H4B  377   3.412   1.345   5.787
    6CHL1    C5  378   3.365   1.305   5.564
    6CHL1    C6  379   3.481   1.335   5.508
    6CHL1    H6  380   3.552   1.373   5.583
    6CHL1    C7  381   3.522   1.329   5.364
    6CHL1   H7A  382   3.576   1.420   5.329
    6CHL1   H7B  383   3.590   1.242   5.350
    6CHL1    C8  384   3.390   1.319   5.279
    6CHL1    H8  385   3.348   1.420   5.302
    6CHL1   C14  386   3.429   1.296   5.131
    6CHL1   H14  387   3.484   1.200   5.130
    6CHL1   C15  388   3.524   1.402   5.064
    6CHL1  H15A  389   3.497   1.501   5.105
    6CHL1  H15B  390   3.629   1.383   5.092
    6CHL1   C16  391   3.500   1.383   4.911
    6CHL1  H16A  392   3.470   1.480   4.866
    6CHL1  H16B  393   3.593   1.343   4.865
    6CHL1   C17  394   3.374   1.282   4.894
    6CHL1   H17  395   3.429   1.185   4.886
    6CHL1   C13  396   3.307   1.276   5.036
    6CHL1   C18  397   3.208   1.404   5.034
    6CHL1  H18A  398   3.260   1.496   5.000
    6CHL1  H18B  399   3.129   1.397   4.955
    6CHL1  H18C  400   3.162   1.430   5.131
    6CHL1   C12  401   3.233   1.157   5.080
    6CHL1  H12A  402   3.148   1.134   5.012
    6CHL1  H12B  403   3.299   1.068   5.071
    6CHL1   C11  404   3.176   1.173   5.225
    6CHL1  H11A  405   3.103   1.257   5.225
    6CHL1  H11B  406   3.128   1.084   5.270
    6CHL1    C9  407   3.286   1.219   5.331
    6CHL1    H9  408   3.351   1.130   5.342
    6CHL1   C10  409   3.246   1.254   5.478
    6CHL1   C19  410   3.130   1.356   5.472
    6CHL1  H19A  411   3.039   1.321   5.419
    6CHL1  H19B  412   3.088   1.389   5.570
    6CHL1  H19C  413   3.153   1.442   5.406
    6CHL1    C1  414   3.198   1.119   5.537
    6CHL1   H1A  415   3.102   1.089   5.490
    6CHL1   H1B  416   3.268   1.041   5.501
    6CHL1    C2  417   3.178   1.109   5.687
    6CHL1   H2A  418   3.157   1.005   5.720
    6CHL1   H2B  419   3.095   1.173   5.725
    6CHL1   C20  420   3.295   1.292   4.761
    6CHL1   H20  421   3.223   1.377   4.767
    6CHL1   C21  422   3.209   1.169   4.732
    6CHL1  H21A  423   3.149   1.161   4.639
    6CHL1  H21B  424   3.118   1.163   4.796
    6CHL1  H21C  425   3.273   1.078   4.736
    6CHL1   C22  426   3.385   1.329   4.637
    6CHL1  H22A  427   3.448   1.417   4.659
    6CHL1  H22B  428   3.455   1.243   4.624
    6CHL1   C23  429   3.300   1.347   4.508
    6CHL1  H23A  430   3.263   1.245   4.483
    6CHL1  H23B  431   3.218   1.420   4.523
    6CHL1   C24  432   3.394   1.389   4.384
    6CHL1  H24A  433   3.413   1.498   4.391
    6CHL1  H24B  434   3.491   1.334   4.388
    6CHL1   C25  435   3.321   1.345   4.256
    6CHL1   H25  436   3.271   1.246   4.269
    6CHL1   C26  437   3.206   1.437   4.215
    6CHL1  H26A  438   3.128   1.449   4.293
    6CHL1  H26B  439   3.247   1.538   4.193
    6CHL1  H26C  440   3.149   1.393   4.131
    6CHL1   C27  441   3.413   1.326   4.133
    6CHL1  H27A  442   3.454   1.425   4.106
    6CHL1  H27B  443   3.499   1.260   4.159
    6CHL1  H27C  444   3.364   1.294   4.039
    7CHL1    C3  445   5.398   1.334   5.904
    7CHL1    H3  446   5.367   1.233   5.938
    7CHL1    O3  447   5.407   1.434   6.005
    7CHL1   H3'  448   5.502   1.445   6.020
    7CHL1    C4  449   5.535   1.332   5.826
    7CHL1   H4A  450   5.561   1.438   5.803
    7CHL1   H4B  451   5.612   1.300   5.899
    7CHL1    C5  452   5.535   1.258   5.694
    7CHL1    C6  453   5.628   1.159   5.681
    7CHL1    H6  454   5.701   1.147   5.762
    7CHL1    C7  455   5.646   1.080   5.552
    7CHL1   H7A  456   5.749   1.073   5.512
    7CHL1   H7B  457   5.617   0.975   5.575
    7CHL1    C8  458   5.539   1.126   5.451
    7CHL1    H8  459   5.589   1.209   5.396
    7CHL1   C14  460   5.517   1.014   5.348
    7CHL1   H14  461   5.473   0.933   5.410
    7CHL1   C15  462   5.639   0.957   5.269
    7CHL1  H15A  463   5.711   1.036   5.241
    7CHL1  H15B  464   5.700   0.881   5.323
    7CHL1   C16  465   5.583   0.887   5.139
    7CHL1  H16A  466   5.627   0.941   5.053
    7CHL1  H16B  467   5.600   0.777   5.135
    7CHL1   C17  468   5.426   0.919   5.146
    7CHL1   H17  469   5.383   0.833   5.202
    7CHL1   C13  470   5.413   1.048   5.235
    7CHL1   C18  471   5.452   1.176   5.155
    7CHL1  H18A  472   5.525   1.162   5.073
    7CHL1  H18B  473   5.360   1.203   5.098
    7CHL1  H18C  474   5.482   1.263   5.217
    7CHL1   C12  475   5.277   1.068   5.291
    7CHL1  H12A  476   5.200   1.105   5.220
    7CHL1  H12B  477   5.243   0.975   5.342
    7CHL1   C11  478   5.290   1.177   5.399
    7CHL1  H11A  479   5.291   1.278   5.351
    7CHL1  H11B  480   5.192   1.179   5.452
    7CHL1    C9  481   5.400   1.169   5.500
    7CHL1    H9  482   5.368   1.088   5.569
    7CHL1   C10  483   5.413   1.285   5.604
    7CHL1   C19  484   5.441   1.422   5.535
    7CHL1  H19A  485   5.534   1.416   5.475
    7CHL1  H19B  486   5.350   1.454   5.481
    7CHL1  H19C  487   5.465   1.493   5.617
    7CHL1    C1  488   5.280   1.288   5.688
    7CHL1   H1A  489   5.193   1.310   5.622
    7CHL1   H1B  490   5.272   1.185   5.727
    7CHL1    C2  491   5.280   1.378   5.813
    7CHL1   H2A  492   5.179   1.369   5.858
    7CHL1   H2B  493   5.300   1.483   5.782
    7CHL1   C20  494   5.340   0.930   5.012
    7CHL1   H20  495   5.257   1.003   5.025
    7CHL1   C21  496   5.263   0.796   5.005
    7CHL1  H21A  497   5.334   0.714   5.030
    7CHL1  H21B  498   5.215   0.795   4.905
    7CHL1  H21C  499   5.186   0.783   5.085
    7CHL1   C22  500   5.420   0.962   4.889
    7CHL1  H22A  501   5.483   1.052   4.904
    7CHL1  H22B  502   5.495   0.888   4.854
    7CHL1   C23  503   5.328   0.978   4.763
    7CHL1  H23A  504   5.291   0.877   4.735
    7CHL1  H23B  505   5.234   1.029   4.792
    7CHL1   C24  506   5.397   1.039   4.644
    7CHL1  H24A  507   5.440   1.134   4.683
    7CHL1  H24B  508   5.482   0.974   4.614
    7CHL1   C25  509   5.312   1.065   4.518
    7CHL1   H25  510   5.274   0.966   4.485
    7CHL1   C26  511   5.194   1.153   4.532
    7CHL1  H26A  512   5.125   1.126   4.615
    7CHL1  H26B  513   5.239   1.254   4.539
    7CHL1  H26C  514   5.133   1.144   4.439
    7CHL1   C27  515   5.395   1.106   4.395
    7CHL1  H27A  516   5.445   1.201   4.421
    7CHL1  H27B  517   5.470   1.025   4.383
    7CHL1  H27C  518   5.332   1.097   4.304
    8CHL1    C3  519   2.612   1.208   5.704
    8CHL1    H3  520   2.536   1.287   5.687
    8CHL1    O3  521   2.619   1.196   5.842
    8CHL1   H3'  522   2.679   1.123   5.859
    8CHL1    C4  523   2.578   1.076   5.639
    8CHL1   H4A  524   2.655   0.998   5.661
    8CHL1   H4B  525   2.484   1.031   5.677
    8CHL1    C5  526   2.556   1.094   5.487
    8CHL1    C6  527   2.433   1.073   5.432
    8CHL1    H6  528   2.351   1.019   5.482
    8CHL1    C7  529   2.416   1.084   5.279
    8CHL1   H7A  530   2.371   0.987   5.247
    8CHL1   H7B  531   2.354   1.171   5.250
    8CHL1    C8  532   2.559   1.086   5.212
    8CHL1    H8  533   2.600   0.984   5.234
    8CHL1   C14  534   2.533   1.118   5.062
    8CHL1   H14  535   2.498   1.223   5.051
    8CHL1   C15  536   2.438   1.022   4.982
    8CHL1  H15A  537   2.465   0.919   5.015
    8CHL1  H15B  538   2.333   1.056   4.998
    8CHL1   C16  539   2.478   1.037   4.835
    8CHL1  H16A  540   2.513   0.940   4.794
    8CHL1  H16B  541   2.401   1.082   4.770
    8CHL1   C17  542   2.614   1.116   4.831
    8CHL1   H17  543   2.586   1.222   4.812
    8CHL1   C13  544   2.667   1.115   4.984
    8CHL1   C18  545   2.743   0.981   5.002
    8CHL1  H18A  546   2.802   0.968   5.095
    8CHL1  H18B  547   2.673   0.896   4.983
    8CHL1  H18C  548   2.814   0.970   4.917
    8CHL1   C12  549   2.739   1.243   5.033
    8CHL1  H12A  550   2.844   1.251   4.998
    8CHL1  H12B  551   2.679   1.332   5.004
    8CHL1   C11  552   2.764   1.233   5.181
    8CHL1  H11A  553   2.847   1.160   5.188
    8CHL1  H11B  554   2.815   1.326   5.214
    8CHL1    C9  555   2.644   1.198   5.274
    8CHL1    H9  556   2.571   1.282   5.272
    8CHL1   C10  557   2.677   1.167   5.420
    8CHL1   C19  558   2.792   1.053   5.425
    8CHL1  H19A  559   2.767   0.962   5.366
    8CHL1  H19B  560   2.887   1.102   5.393
    8CHL1  H19C  561   2.806   1.016   5.528
    8CHL1    C1  562   2.723   1.289   5.501
    8CHL1   H1A  563   2.813   1.338   5.458
    8CHL1   H1B  564   2.652   1.374   5.492
    8CHL1    C2  565   2.747   1.253   5.648
    8CHL1   H2A  566   2.778   1.346   5.702
    8CHL1   H2B  567   2.823   1.174   5.664
    8CHL1   C20  568   2.708   1.071   4.719
    8CHL1   H20  569   2.732   0.962   4.722
    8CHL1   C21  570   2.844   1.142   4.736
    8CHL1  H21A  571   2.881   1.128   4.841
    8CHL1  H21B  572   2.837   1.250   4.713
    8CHL1  H21C  573   2.922   1.096   4.672
    8CHL1   C22  574   2.650   1.102   4.581
    8CHL1  H22A  575   2.552   1.050   4.572
    8CHL1  H22B  576   2.625   1.210   4.578
    8CHL1   C23  577   2.750   1.073   4.471
    8CHL1  H23A  578   2.708   1.111   4.376
    8CHL1  H23B  579   2.845   1.129   4.486
    8CHL1   C24  580   2.777   0.929   4.431
    8CHL1  H24A  581   2.818   0.885   4.524
    8CHL1  H24B  582   2.698   0.857   4.401
    8CHL1   C25  583   2.877   0.920   4.313
    8CHL1   H25  584   2.899   0.815   4.281
    8CHL1   C26  585   2.835   0.994   4.183
    8CHL1  H26A  586   2.736   0.954   4.152
    8CHL1  H26B  587   2.837   1.105   4.191
    8CHL1  H26C  588   2.903   0.962   4.101
    8CHL1   C27  589   3.011   0.965   4.360
    8CHL1  H27A  590   3.080   0.940   4.277
    8CHL1  H27B  591   3.033   1.070   4.391
    8CHL1  H27C  592   3.039   0.903   4.447
    9CHL1    C3  593   5.609   1.955   6.181
    9CHL1    H3  594   5.507   1.981   6.144
    9CHL1    O3  595   5.592   1.939   6.319
    9CHL1   H3'  596   5.558   1.849   6.329
    9CHL1    C4  597   5.662   1.823   6.127
    9CHL1   H4A  598   5.767   1.821   6.160
    9CHL1   H4B  599   5.609   1.741   6.179
    9CHL1    C5  600   5.640   1.832   5.981
    9CHL1    C6  601   5.553   1.749   5.921
    9CHL1    H6  602   5.501   1.667   5.974
    9CHL1    C7  603   5.531   1.744   5.775
    9CHL1   H7A  604   5.538   1.637   5.746
    9CHL1   H7B  605   5.428   1.782   5.756
    9CHL1    C8  606   5.638   1.827   5.693
    9CHL1    H8  607   5.728   1.764   5.680
    9CHL1   C14  608   5.581   1.857   5.563
    9CHL1   H14  609   5.482   1.902   5.585
    9CHL1   C15  610   5.542   1.738   5.474
    9CHL1  H15A  611   5.626   1.667   5.465
    9CHL1  H15B  612   5.445   1.696   5.510
    9CHL1   C16  613   5.512   1.799   5.338
    9CHL1  H16A  614   5.551   1.744   5.250
    9CHL1  H16B  615   5.406   1.827   5.321
    9CHL1   C17  616   5.582   1.948   5.344
    9CHL1   H17  617   5.497   2.018   5.357
    9CHL1   C13  618   5.668   1.941   5.475
    9CHL1   C18  619   5.796   1.876   5.426
    9CHL1  H18A  620   5.781   1.783   5.368
    9CHL1  H18B  621   5.868   1.945   5.376
    9CHL1  H18C  622   5.861   1.840   5.509
    9CHL1   C12  623   5.686   2.074   5.540
    9CHL1  H12A  624   5.744   2.155   5.491
    9CHL1  H12B  625   5.585   2.117   5.552
    9CHL1   C11  626   5.749   2.061   5.682
    9CHL1  H11A  627   5.854   2.030   5.661
    9CHL1  H11B  628   5.752   2.163   5.726
    9CHL1    C9  629   5.669   1.961   5.767
    9CHL1    H9  630   5.569   2.010   5.774
    9CHL1   C10  631   5.719   1.948   5.913
    9CHL1   C19  632   5.863   1.907   5.910
    9CHL1  H19A  633   5.894   1.856   6.004
    9CHL1  H19B  634   5.889   1.860   5.813
    9CHL1  H19C  635   5.926   1.999   5.906
    9CHL1    C1  636   5.694   2.082   5.986
    9CHL1   H1A  637   5.756   2.162   5.940
    9CHL1   H1B  638   5.592   2.116   5.961
    9CHL1    C2  639   5.702   2.078   6.138
    9CHL1   H2A  640   5.675   2.174   6.185
    9CHL1   H2B  641   5.803   2.056   6.178
    9CHL1   C20  642   5.651   1.975   5.209
    9CHL1   H20  643   5.723   1.894   5.185
    9CHL1   C21  644   5.718   2.115   5.205
    9CHL1  H21A  645   5.660   2.202   5.243
    9CHL1  H21B  646   5.755   2.152   5.107
    9CHL1  H21C  647   5.804   2.104   5.274
    9CHL1   C22  648   5.538   1.980   5.096
    9CHL1  H22A  649   5.478   1.887   5.092
    9CHL1  H22B  650   5.475   2.066   5.127
    9CHL1   C23  651   5.586   2.005   4.951
    9CHL1  H23A  652   5.493   2.021   4.893
    9CHL1  H23B  653   5.649   2.097   4.955
    9CHL1   C24  654   5.657   1.878   4.904
    9CHL1  H24A  655   5.756   1.873   4.955
    9CHL1  H24B  656   5.599   1.788   4.930
    9CHL1   C25  657   5.690   1.877   4.756
    9CHL1   H25  658   5.602   1.870   4.690
    9CHL1   C26  659   5.765   2.004   4.713
    9CHL1  H26A  660   5.865   2.010   4.761
    9CHL1  H26B  661   5.793   2.001   4.605
    9CHL1  H26C  662   5.711   2.097   4.739
    9CHL1   C27  663   5.776   1.757   4.718
    9CHL1  H27A  664   5.786   1.748   4.607
    9CHL1  H27B  665   5.880   1.760   4.756
    9CHL1  H27C  666   5.726   1.664   4.753
   10CHL1    C3  667   5.239   3.418   6.098
   10CHL1    H3  668   5.144   3.475   6.096
   10CHL1    O3  669   5.279   3.416   6.232
   10CHL1   H3'  670   5.193   3.426   6.274
   10CHL1    C4  671   5.227   3.275   6.040
   10CHL1   H4A  672   5.320   3.219   6.066
   10CHL1   H4B  673   5.149   3.221   6.098
   10CHL1    C5  674   5.204   3.257   5.895
   10CHL1    C6  675   5.098   3.191   5.848
   10CHL1    H6  676   5.032   3.132   5.913
   10CHL1    C7  677   5.060   3.176   5.698
   10CHL1   H7A  678   5.049   3.072   5.660
   10CHL1   H7B  679   4.967   3.232   5.675
   10CHL1    C8  680   5.169   3.230   5.605
   10CHL1    H8  681   5.252   3.157   5.617
   10CHL1   C14  682   5.117   3.252   5.458
   10CHL1   H14  683   5.043   3.335   5.463
   10CHL1   C15  684   5.046   3.139   5.394
   10CHL1  H15A  685   5.089   3.040   5.422
   10CHL1  H15B  686   4.938   3.132   5.418
   10CHL1   C16  687   5.055   3.171   5.245
   10CHL1  H16A  688   5.083   3.078   5.191
   10CHL1  H16B  689   4.954   3.205   5.213
   10CHL1   C17  690   5.150   3.294   5.221
   10CHL1   H17  691   5.081   3.380   5.207
   10CHL1   C13  692   5.225   3.302   5.358
   10CHL1   C18  693   5.345   3.205   5.361
   10CHL1  H18A  694   5.428   3.243   5.298
   10CHL1  H18B  695   5.382   3.185   5.464
   10CHL1  H18C  696   5.306   3.106   5.329
   10CHL1   C12  697   5.267   3.442   5.400
   10CHL1  H12A  698   5.354   3.461   5.333
   10CHL1  H12B  699   5.177   3.505   5.392
   10CHL1   C11  700   5.314   3.436   5.547
   10CHL1  H11A  701   5.412   3.384   5.541
   10CHL1  H11B  702   5.333   3.541   5.577
   10CHL1    C9  703   5.228   3.358   5.655
   10CHL1    H9  704   5.136   3.419   5.665
   10CHL1   C10  705   5.293   3.343   5.801
   10CHL1   C19  706   5.425   3.263   5.798
   10CHL1  H19A  707   5.493   3.303   5.720
   10CHL1  H19B  708   5.474   3.263   5.898
   10CHL1  H19C  709   5.415   3.161   5.755
   10CHL1    C1  710   5.314   3.481   5.859
   10CHL1   H1A  711   5.396   3.531   5.804
   10CHL1   H1B  712   5.220   3.538   5.844
   10CHL1    C2  713   5.347   3.486   6.009
   10CHL1   H2A  714   5.366   3.591   6.040
   10CHL1   H2B  715   5.440   3.428   6.027
   10CHL1   C20  716   5.226   3.279   5.090
   10CHL1   H20  717   5.285   3.185   5.099
   10CHL1   C21  718   5.325   3.398   5.050
   10CHL1  H21A  719   5.372   3.375   4.952
   10CHL1  H21B  720   5.399   3.411   5.131
   10CHL1  H21C  721   5.276   3.497   5.038
   10CHL1   C22  722   5.142   3.240   4.962
   10CHL1  H22A  723   5.213   3.215   4.880
   10CHL1  H22B  724   5.084   3.148   4.981
   10CHL1   C23  725   5.047   3.352   4.927
   10CHL1  H23A  726   4.966   3.342   5.003
   10CHL1  H23B  727   5.083   3.457   4.919
   10CHL1   C24  728   4.959   3.313   4.807
   10CHL1  H24A  729   4.921   3.210   4.826
   10CHL1  H24B  730   4.878   3.386   4.785
   10CHL1   C25  731   5.030   3.298   4.666
   10CHL1   H25  732   5.139   3.278   4.668
   10CHL1   C26  733   4.959   3.199   4.569
   10CHL1  H26A  734   4.856   3.231   4.541
   10CHL1  H26B  735   5.020   3.194   4.477
   10CHL1  H26C  736   4.960   3.098   4.614
   10CHL1   C27  737   5.024   3.447   4.605
   10CHL1  H27A  738   4.923   3.495   4.610
   10CHL1  H27B  739   5.092   3.514   4.663
   10CHL1  H27C  740   5.065   3.465   4.504
   11CHL1    C3  741   2.853   0.585   5.573
   11CHL1    H3  742   2.953   0.568   5.617
   11CHL1    O3  743   2.763   0.602   5.679
   11CHL1   H3'  744   2.812   0.645   5.750
   11CHL1    C4  745   2.841   0.713   5.491
   11CHL1   H4A  746   2.733   0.730   5.472
   11CHL1   H4B  747   2.876   0.796   5.556
   11CHL1    C5  748   2.928   0.704   5.368
   11CHL1    C6  749   3.038   0.781   5.347
   11CHL1    H6  750   3.067   0.857   5.421
   11CHL1    C7  751   3.105   0.781   5.215
   11CHL1   H7A  752   3.126   0.884   5.177
   11CHL1   H7B  753   3.201   0.726   5.220
   11CHL1    C8  754   3.021   0.719   5.099
   11CHL1    H8  755   2.930   0.781   5.093
   11CHL1   C14  756   3.107   0.701   4.975
   11CHL1   H14  757   3.187   0.627   4.995
   11CHL1   C15  758   3.174   0.822   4.908
   11CHL1  H15A  759   3.114   0.914   4.914
   11CHL1  H15B  760   3.266   0.831   4.970
   11CHL1   C16  761   3.196   0.781   4.762
   11CHL1  H16A  762   3.142   0.851   4.695
   11CHL1  H16B  763   3.303   0.783   4.730
   11CHL1   C17  764   3.133   0.642   4.741
   11CHL1   H17  765   3.215   0.574   4.772
   11CHL1   C13  766   3.034   0.632   4.853
   11CHL1   C18  767   2.903   0.714   4.820
   11CHL1  H18A  768   2.922   0.818   4.785
   11CHL1  H18B  769   2.844   0.658   4.745
   11CHL1  H18C  770   2.837   0.739   4.906
   11CHL1   C12  771   2.999   0.491   4.894
   11CHL1  H12A  772   2.935   0.439   4.820
   11CHL1  H12B  773   3.090   0.432   4.916
   11CHL1   C11  774   2.921   0.491   5.024
   11CHL1  H11A  775   2.821   0.535   5.003
   11CHL1  H11B  776   2.900   0.392   5.070
   11CHL1    C9  777   2.973   0.584   5.144
   11CHL1    H9  778   3.067   0.528   5.166
   11CHL1   C10  779   2.880   0.597   5.270
   11CHL1   C19  780   2.744   0.636   5.223
   11CHL1  H19A  781   2.725   0.733   5.173
   11CHL1  H19B  782   2.699   0.561   5.153
   11CHL1  H19C  783   2.669   0.642   5.305
   11CHL1    C1  784   2.891   0.466   5.355
   11CHL1   H1A  785   2.876   0.375   5.294
   11CHL1   H1B  786   2.998   0.455   5.382
   11CHL1    C2  787   2.812   0.460   5.485
   11CHL1   H2A  788   2.844   0.370   5.541
   11CHL1   H2B  789   2.703   0.469   5.468
   11CHL1   C20  790   3.088   0.626   4.597
   11CHL1   H20  791   3.009   0.700   4.572
   11CHL1   C21  792   3.026   0.490   4.577
   11CHL1  H21A  793   3.010   0.474   4.468
   11CHL1  H21B  794   2.925   0.482   4.623
   11CHL1  H21C  795   3.094   0.417   4.624
   11CHL1   C22  796   3.207   0.643   4.495
   11CHL1  H22A  797   3.170   0.637   4.390
   11CHL1  H22B  798   3.269   0.735   4.502
   11CHL1   C23  799   3.313   0.531   4.512
   11CHL1  H23A  800   3.341   0.520   4.619
   11CHL1  H23B  801   3.257   0.439   4.483
   11CHL1   C24  802   3.438   0.555   4.430
   11CHL1  H24A  803   3.414   0.547   4.322
   11CHL1  H24B  804   3.487   0.654   4.448
   11CHL1   C25  805   3.551   0.446   4.462
   11CHL1   H25  806   3.581   0.442   4.569
   11CHL1   C26  807   3.502   0.307   4.423
   11CHL1  H26A  808   3.582   0.231   4.435
   11CHL1  H26B  809   3.411   0.276   4.480
   11CHL1  H26C  810   3.466   0.297   4.318
   11CHL1   C27  811   3.677   0.485   4.386
   11CHL1  H27A  812   3.702   0.593   4.398
   11CHL1  H27B  813   3.760   0.418   4.416
   11CHL1  H27C  814   3.654   0.466   4.279
   12CHL1    C3  815   4.370   0.294   5.789
   12CHL1    H3  816   4.448   0.302   5.710
   12CHL1    O3  817   4.413   0.334   5.919
   12CHL1   H3'  818   4.341   0.318   5.981
   12CHL1    C4  819   4.245   0.366   5.741
   12CHL1   H4A  820   4.175   0.352   5.826
   12CHL1   H4B  821   4.280   0.470   5.724
   12CHL1    C5  822   4.199   0.300   5.614
   12CHL1    C6  823   4.175   0.368   5.502
   12CHL1    H6  824   4.179   0.478   5.506
   12CHL1    C7  825   4.121   0.303   5.370
   12CHL1   H7A  826   4.036   0.360   5.326
   12CHL1   H7B  827   4.200   0.314   5.292
   12CHL1    C8  828   4.069   0.160   5.384
   12CHL1    H8  829   3.964   0.151   5.419
   12CHL1   C14  830   4.071   0.089   5.245
   12CHL1   H14  831   4.179   0.099   5.222
   12CHL1   C15  832   4.005   0.168   5.134
   12CHL1  H15A  833   3.922   0.234   5.167
   12CHL1  H15B  834   4.079   0.229   5.080
   12CHL1   C16  835   3.965   0.047   5.038
   12CHL1  H16A  836   3.858   0.017   5.043
   12CHL1  H16B  837   3.985   0.064   4.930
   12CHL1   C17  838   4.046  -0.081   5.099
   12CHL1   H17  839   4.153  -0.069   5.069
   12CHL1   C13  840   4.036  -0.055   5.250
   12CHL1   C18  841   3.898  -0.070   5.307
   12CHL1  H18A  842   3.814  -0.026   5.249
   12CHL1  H18B  843   3.877  -0.179   5.312
   12CHL1  H18C  844   3.886  -0.037   5.413
   12CHL1   C12  845   4.137  -0.125   5.334
   12CHL1  H12A  846   4.100  -0.229   5.344
   12CHL1  H12B  847   4.229  -0.122   5.273
   12CHL1   C11  848   4.143  -0.073   5.481
   12CHL1  H11A  849   4.055  -0.108   5.539
   12CHL1  H11B  850   4.236  -0.122   5.516
   12CHL1    C9  851   4.164   0.081   5.479
   12CHL1    H9  852   4.261   0.092   5.425
   12CHL1   C10  853   4.182   0.144   5.616
   12CHL1   C19  854   4.052   0.124   5.688
   12CHL1  H19A  855   4.058   0.169   5.790
   12CHL1  H19B  856   3.962   0.160   5.634
   12CHL1  H19C  857   4.040   0.016   5.713
   12CHL1    C1  858   4.302   0.071   5.690
   12CHL1   H1A  859   4.262  -0.029   5.719
   12CHL1   H1B  860   4.379   0.060   5.611
   12CHL1    C2  861   4.353   0.147   5.813
   12CHL1   H2A  862   4.448   0.104   5.851
   12CHL1   H2B  863   4.270   0.126   5.885
   12CHL1   C20  864   3.987  -0.214   5.043
   12CHL1   H20  865   3.887  -0.221   5.091
   12CHL1   C21  866   4.068  -0.345   5.070
   12CHL1  H21A  867   4.171  -0.318   5.038
   12CHL1  H21B  868   4.021  -0.424   5.008
   12CHL1  H21C  869   4.068  -0.378   5.176
   12CHL1   C22  870   3.965  -0.209   4.888
   12CHL1  H22A  871   3.917  -0.306   4.860
   12CHL1  H22B  872   3.896  -0.127   4.858
   12CHL1   C23  873   4.099  -0.208   4.807
   12CHL1  H23A  874   4.165  -0.141   4.866
   12CHL1  H23B  875   4.154  -0.305   4.803
   12CHL1   C24  876   4.073  -0.152   4.673
   12CHL1  H24A  877   4.025  -0.227   4.607
   12CHL1  H24B  878   4.003  -0.066   4.681
   12CHL1   C25  879   4.205  -0.106   4.604
   12CHL1   H25  880   4.281  -0.186   4.621
   12CHL1   C26  881   4.199  -0.110   4.455
   12CHL1  H26A  882   4.167  -0.207   4.412
   12CHL1  H26B  883   4.127  -0.031   4.426
   12CHL1  H26C  884   4.297  -0.082   4.411
   12CHL1   C27  885   4.252   0.033   4.658
   12CHL1  H27A  886   4.173   0.110   4.651
   12CHL1  H27B  887   4.285   0.023   4.764
   12CHL1  H27C  888   4.341   0.059   4.596
   13CHL1    C3  889   3.549   0.008   6.000
   13CHL1    H3  890   3.657  -0.011   5.980
   13CHL1    O3  891   3.517  -0.022   6.134
   13CHL1   H3'  892   3.515  -0.117   6.148
   13CHL1    C4  893   3.521   0.153   5.973
   13CHL1   H4A  894   3.418   0.177   6.005
   13CHL1   H4B  895   3.584   0.207   6.047
   13CHL1    C5  896   3.551   0.191   5.831
   13CHL1    C6  897   3.632   0.289   5.806
   13CHL1    H6  898   3.659   0.346   5.895
   13CHL1    C7  899   3.665   0.326   5.660
   13CHL1   H7A  900   3.665   0.437   5.652
   13CHL1   H7B  901   3.765   0.279   5.654
   13CHL1    C8  902   3.572   0.274   5.555
   13CHL1    H8  903   3.480   0.336   5.570
   13CHL1   C14  904   3.624   0.302   5.414
   13CHL1   H14  905   3.715   0.240   5.403
   13CHL1   C15  906   3.669   0.436   5.369
   13CHL1  H15A  907   3.589   0.509   5.397
   13CHL1  H15B  908   3.764   0.462   5.419
   13CHL1   C16  909   3.677   0.431   5.214
   13CHL1  H16A  910   3.616   0.517   5.180
   13CHL1  H16B  911   3.780   0.432   5.173
   13CHL1   C17  912   3.610   0.301   5.181
   13CHL1   H17  913   3.690   0.227   5.161
   13CHL1   C13  914   3.529   0.255   5.302
   13CHL1   C18  915   3.399   0.333   5.311
   13CHL1  H18A  916   3.418   0.439   5.281
   13CHL1  H18B  917   3.321   0.295   5.241
   13CHL1  H18C  918   3.354   0.343   5.412
   13CHL1   C12  919   3.521   0.101   5.312
   13CHL1  H12A  920   3.447   0.052   5.245
   13CHL1  H12B  921   3.615   0.047   5.291
   13CHL1   C11  922   3.476   0.070   5.456
   13CHL1  H11A  923   3.372   0.110   5.451
   13CHL1  H11B  924   3.461  -0.039   5.470
   13CHL1    C9  925   3.550   0.126   5.582
   13CHL1    H9  926   3.648   0.073   5.585
   13CHL1   C10  927   3.475   0.102   5.719
   13CHL1   C19  928   3.335   0.151   5.711
   13CHL1  H19A  929   3.286   0.142   5.810
   13CHL1  H19B  930   3.337   0.261   5.692
   13CHL1  H19C  931   3.281   0.101   5.628
   13CHL1    C1  932   3.486  -0.050   5.755
   13CHL1   H1A  933   3.416  -0.107   5.691
   13CHL1   H1B  934   3.587  -0.085   5.727
   13CHL1    C2  935   3.459  -0.073   5.903
   13CHL1   H2A  936   3.477  -0.180   5.927
   13CHL1   H2B  937   3.353  -0.051   5.927
   13CHL1   C20  938   3.533   0.315   5.048
   13CHL1   H20  939   3.441   0.375   5.065
   13CHL1   C21  940   3.481   0.181   4.995
   13CHL1  H21A  941   3.428   0.199   4.900
   13CHL1  H21B  942   3.416   0.130   5.069
   13CHL1  H21C  943   3.567   0.111   4.985
   13CHL1   C22  944   3.610   0.396   4.939
   13CHL1  H22A  945   3.539   0.395   4.854
   13CHL1  H22B  946   3.614   0.504   4.965
   13CHL1   C23  947   3.744   0.334   4.892
   13CHL1  H23A  948   3.804   0.299   4.978
   13CHL1  H23B  949   3.730   0.239   4.837
   13CHL1   C24  950   3.835   0.427   4.809
   13CHL1  H24A  951   3.783   0.479   4.726
   13CHL1  H24B  952   3.875   0.508   4.873
   13CHL1   C25  953   3.964   0.363   4.746
   13CHL1   H25  954   4.009   0.306   4.831
   13CHL1   C26  955   3.930   0.259   4.635
   13CHL1  H26A  956   4.015   0.266   4.564
   13CHL1  H26B  957   3.913   0.154   4.665
   13CHL1  H26C  958   3.839   0.286   4.578
   13CHL1   C27  959   4.068   0.467   4.697
   13CHL1  H27A  960   4.115   0.508   4.789
   13CHL1  H27B  961   4.140   0.407   4.636
   13CHL1  H27C  962   4.023   0.544   4.631
   14CHL1    C3  963   2.451   3.985   5.920
   14CHL1    H3  964   2.340   3.981   5.917
   14CHL1    O3  965   2.471   3.971   6.061
   14CHL1   H3'  966   2.564   3.949   6.072
   14CHL1    C4  967   2.519   3.875   5.843
   14CHL1   H4A  968   2.628   3.873   5.864
   14CHL1   H4B  969   2.478   3.778   5.878
   14CHL1    C5  970   2.490   3.882   5.693
   14CHL1    C6  971   2.439   3.781   5.623
   14CHL1    H6  972   2.424   3.682   5.670
   14CHL1    C7  973   2.407   3.788   5.475
   14CHL1   H7A  974   2.454   3.701   5.424
   14CHL1   H7B  975   2.298   3.800   5.457
   14CHL1    C8  976   2.476   3.913   5.414
   14CHL1    H8  977   2.586   3.903   5.404
   14CHL1   C14  978   2.431   3.934   5.268
   14CHL1   H14  979   2.322   3.957   5.271
   14CHL1   C15  980   2.449   3.818   5.166
   14CHL1  H15A  981   2.552   3.779   5.179
   14CHL1  H15B  982   2.382   3.731   5.182
   14CHL1   C16  983   2.420   3.877   5.027
   14CHL1  H16A  984   2.495   3.851   4.949
   14CHL1  H16B  985   2.319   3.854   4.985
   14CHL1   C17  986   2.416   4.038   5.058
   14CHL1   H17  987   2.307   4.062   5.065
   14CHL1   C13  988   2.485   4.048   5.195
   14CHL1   C18  989   2.635   4.027   5.174
   14CHL1  H18A  990   2.662   3.948   5.100
   14CHL1  H18B  991   2.672   4.121   5.129
   14CHL1  H18C  992   2.694   4.001   5.265
   14CHL1   C12  993   2.448   4.175   5.270
   14CHL1  H12A  994   2.496   4.263   5.223
   14CHL1  H12B  995   2.338   4.189   5.267
   14CHL1   C11  996   2.488   4.171   5.421
   14CHL1  H11A  997   2.597   4.193   5.422
   14CHL1  H11B  998   2.438   4.254   5.474
   14CHL1    C9  999   2.451   4.039   5.496
   14CHL1    H9 1000   2.341   4.032   5.509
   14CHL1   C10 1001   2.512   4.015   5.631
   14CHL1   C19 1002   2.673   4.031   5.615
   14CHL1  H19A 1003   2.732   4.029   5.709
   14CHL1  H19B 1004   2.713   3.957   5.542
   14CHL1  H19C 1005   2.681   4.135   5.576
   14CHL1    C1 1006   2.448   4.133   5.718
   14CHL1   H1A 1007   2.482   4.239   5.711
   14CHL1   H1B 1008   2.338   4.126   5.711
   14CHL1    C2 1009   2.489   4.121   5.869
   14CHL1   H2A 1010   2.453   4.212   5.922
   14CHL1   H2B 1011   2.600   4.131   5.868
   14CHL1   C20 1012   2.467   4.126   4.936
   14CHL1   H20 1013   2.573   4.153   4.953
   14CHL1   C21 1014   2.381   4.252   4.926
   14CHL1  H21A 1015   2.378   4.301   5.026
   14CHL1  H21B 1016   2.279   4.228   4.887
   14CHL1  H21C 1017   2.418   4.322   4.849
   14CHL1   C22 1018   2.463   4.054   4.799
   14CHL1  H22A 1019   2.511   4.127   4.731
   14CHL1  H22B 1020   2.531   3.967   4.785
   14CHL1   C23 1021   2.324   4.008   4.740
   14CHL1  H23A 1022   2.315   3.900   4.719
   14CHL1  H23B 1023   2.251   4.018   4.823
   14CHL1   C24 1024   2.277   4.090   4.618
   14CHL1  H24A 1025   2.297   4.197   4.643
   14CHL1  H24B 1026   2.351   4.065   4.539
   14CHL1   C25 1027   2.128   4.081   4.579
   14CHL1   H25 1028   2.062   4.101   4.666
   14CHL1   C26 1029   2.079   4.187   4.476
   14CHL1  H26A 1030   1.977   4.180   4.434
   14CHL1  H26B 1031   2.089   4.285   4.528
   14CHL1  H26C 1032   2.151   4.196   4.391
   14CHL1   C27 1033   2.105   3.940   4.533
   14CHL1  H27A 1034   2.106   3.872   4.621
   14CHL1  H27B 1035   2.006   3.937   4.482
   14CHL1  H27C 1036   2.185   3.910   4.463
   15CHL1    C3 1037   3.615   3.976   5.656
   15CHL1    H3 1038   3.716   3.934   5.675
   15CHL1    O3 1039   3.555   3.997   5.782
   15CHL1   H3' 1040   3.562   3.909   5.819
   15CHL1    C4 1041   3.628   4.116   5.595
   15CHL1   H4A 1042   3.531   4.169   5.600
   15CHL1   H4B 1043   3.701   4.174   5.655
   15CHL1    C5 1044   3.683   4.093   5.455
   15CHL1    C6 1045   3.799   4.147   5.411
   15CHL1    H6 1046   3.854   4.215   5.479
   15CHL1    C7 1047   3.857   4.146   5.278
   15CHL1   H7A 1048   3.906   4.240   5.245
   15CHL1   H7B 1049   3.943   4.075   5.287
   15CHL1    C8 1050   3.757   4.096   5.166
   15CHL1    H8 1051   3.685   4.176   5.138
   15CHL1   C14 1052   3.823   4.057   5.042
   15CHL1   H14 1053   3.895   3.977   5.069
   15CHL1   C15 1054   3.897   4.166   4.972
   15CHL1  H15A 1055   3.837   4.259   4.965
   15CHL1  H15B 1056   3.995   4.197   5.013
   15CHL1   C16 1057   3.918   4.105   4.827
   15CHL1  H16A 1058   3.900   4.185   4.752
   15CHL1  H16B 1059   4.027   4.086   4.823
   15CHL1   C17 1060   3.832   3.979   4.813
   15CHL1   H17 1061   3.890   3.891   4.848
   15CHL1   C13 1062   3.736   3.994   4.938
   15CHL1   C18 1063   3.616   4.079   4.898
   15CHL1  H18A 1064   3.561   4.116   4.987
   15CHL1  H18B 1065   3.644   4.172   4.844
   15CHL1  H18C 1066   3.556   4.012   4.832
   15CHL1   C12 1067   3.685   3.860   4.988
   15CHL1  H12A 1068   3.619   3.815   4.910
   15CHL1  H12B 1069   3.756   3.777   5.011
   15CHL1   C11 1070   3.606   3.886   5.118
   15CHL1  H11A 1071   3.511   3.937   5.093
   15CHL1  H11B 1072   3.576   3.787   5.160
   15CHL1    C9 1073   3.681   3.976   5.226
   15CHL1    H9 1074   3.769   3.916   5.259
   15CHL1   C10 1075   3.603   4.013   5.359
   15CHL1   C19 1076   3.473   4.088   5.319
   15CHL1  H19A 1077   3.495   4.185   5.269
   15CHL1  H19B 1078   3.413   4.023   5.252
   15CHL1  H19C 1079   3.416   4.118   5.410
   15CHL1    C1 1080   3.579   3.879   5.428
   15CHL1   H1A 1081   3.505   3.823   5.366
   15CHL1   H1B 1082   3.670   3.817   5.414
   15CHL1    C2 1083   3.528   3.888   5.577
   15CHL1   H2A 1084   3.519   3.786   5.620
   15CHL1   H2B 1085   3.424   3.927   5.572
   15CHL1   C20 1086   3.780   3.949   4.670
   15CHL1   H20 1087   3.684   3.894   4.682
   15CHL1   C21 1088   3.871   3.847   4.595
   15CHL1  H21A 1089   3.890   3.761   4.663
   15CHL1  H21B 1090   3.967   3.890   4.560
   15CHL1  H21C 1091   3.830   3.805   4.501
   15CHL1   C22 1092   3.742   4.067   4.584
   15CHL1  H22A 1093   3.675   4.144   4.629
   15CHL1  H22B 1094   3.835   4.116   4.548
   15CHL1   C23 1095   3.662   4.027   4.456
   15CHL1  H23A 1096   3.722   3.968   4.383
   15CHL1  H23B 1097   3.573   3.966   4.481
   15CHL1   C24 1098   3.607   4.154   4.397
   15CHL1  H24A 1099   3.547   4.223   4.459
   15CHL1  H24B 1100   3.704   4.208   4.393
   15CHL1   C25 1101   3.524   4.148   4.267
   15CHL1   H25 1102   3.596   4.103   4.195
   15CHL1   C26 1103   3.410   4.049   4.278
   15CHL1  H26A 1104   3.324   4.081   4.341
   15CHL1  H26B 1105   3.361   4.028   4.181
   15CHL1  H26C 1106   3.429   3.944   4.306
   15CHL1   C27 1107   3.465   4.286   4.210
   15CHL1  H27A 1108   3.382   4.307   4.280
   15CHL1  H27B 1109   3.547   4.360   4.204
   15CHL1  H27C 1110   3.442   4.283   4.101
   16CHL1    C3 1111   1.628   1.321   5.859
   16CHL1    H3 1112   1.643   1.220   5.815
   16CHL1    O3 1113   1.653   1.309   5.996
   16CHL1   H3' 1114   1.607   1.379   6.042
   16CHL1    C4 1115   1.715   1.436   5.804
   16CHL1   H4A 1116   1.699   1.534   5.853
   16CHL1   H4B 1117   1.822   1.407   5.813
   16CHL1    C5 1118   1.669   1.445   5.655
   16CHL1    C6 1119   1.760   1.438   5.559
   16CHL1    H6 1120   1.863   1.402   5.573
   16CHL1    C7 1121   1.728   1.467   5.414
   16CHL1   H7A 1122   1.817   1.509   5.361
   16CHL1   H7B 1123   1.695   1.373   5.366
   16CHL1    C8 1124   1.604   1.556   5.394
   16CHL1    H8 1125   1.624   1.662   5.421
   16CHL1   C14 1126   1.552   1.556   5.250
   16CHL1   H14 1127   1.531   1.449   5.226
   16CHL1   C15 1128   1.645   1.603   5.143
   16CHL1  H15A 1129   1.689   1.702   5.167
   16CHL1  H15B 1130   1.733   1.535   5.134
   16CHL1   C16 1131   1.554   1.611   5.017
   16CHL1  H16A 1132   1.584   1.701   4.960
   16CHL1  H16B 1133   1.567   1.522   4.951
   16CHL1   C17 1134   1.406   1.607   5.069
   16CHL1   H17 1135   1.371   1.502   5.059
   16CHL1   C13 1136   1.422   1.630   5.221
   16CHL1   C18 1137   1.432   1.777   5.256
   16CHL1  H18A 1138   1.336   1.829   5.234
   16CHL1  H18B 1139   1.459   1.803   5.360
   16CHL1  H18C 1140   1.508   1.823   5.189
   16CHL1   C12 1141   1.313   1.570   5.306
   16CHL1  H12A 1142   1.217   1.625   5.304
   16CHL1  H12B 1143   1.301   1.465   5.270
   16CHL1   C11 1144   1.354   1.568   5.455
   16CHL1  H11A 1145   1.348   1.675   5.485
   16CHL1  H11B 1146   1.270   1.527   5.515
   16CHL1    C9 1147   1.489   1.501   5.477
   16CHL1    H9 1148   1.479   1.395   5.446
   16CHL1   C10 1149   1.525   1.480   5.630
   16CHL1   C19 1150   1.481   1.620   5.697
   16CHL1  H19A 1151   1.374   1.645   5.683
   16CHL1  H19B 1152   1.499   1.621   5.807
   16CHL1  H19C 1153   1.547   1.700   5.656
   16CHL1    C1 1154   1.438   1.373   5.696
   16CHL1   H1A 1155   1.332   1.406   5.694
   16CHL1   H1B 1156   1.438   1.280   5.635
   16CHL1    C2 1157   1.478   1.339   5.844
   16CHL1   H2A 1158   1.424   1.248   5.878
   16CHL1   H2B 1159   1.444   1.421   5.912
   16CHL1   C20 1160   1.302   1.689   4.987
   16CHL1   H20 1161   1.317   1.792   5.027
   16CHL1   C21 1162   1.157   1.648   5.036
   16CHL1  H21A 1163   1.079   1.649   4.957
   16CHL1  H21B 1164   1.121   1.709   5.122
   16CHL1  H21C 1165   1.163   1.540   5.060
   16CHL1   C22 1166   1.321   1.680   4.836
   16CHL1  H22A 1167   1.430   1.692   4.816
   16CHL1  H22B 1168   1.295   1.575   4.812
   16CHL1   C23 1169   1.242   1.790   4.758
   16CHL1  H23A 1170   1.136   1.781   4.788
   16CHL1  H23B 1171   1.279   1.887   4.796
   16CHL1   C24 1172   1.260   1.774   4.615
   16CHL1  H24A 1173   1.370   1.777   4.598
   16CHL1  H24B 1174   1.229   1.675   4.574
   16CHL1   C25 1175   1.190   1.876   4.522
   16CHL1   H25 1176   1.211   1.982   4.551
   16CHL1   C26 1177   1.240   1.856   4.381
   16CHL1  H26A 1178   1.351   1.865   4.377
   16CHL1  H26B 1179   1.215   1.753   4.348
   16CHL1  H26C 1180   1.189   1.928   4.314
   16CHL1   C27 1181   1.039   1.852   4.534
   16CHL1  H27A 1182   0.980   1.898   4.451
   16CHL1  H27B 1183   1.015   1.744   4.530
   16CHL1  H27C 1184   1.004   1.906   4.624
   17CHL1    C3 1185   3.093   4.980   6.023
   17CHL1    H3 1186   3.138   4.882   5.995
   17CHL1    O3 1187   3.118   4.993   6.165
   17CHL1   H3' 1188   3.031   5.021   6.195
   17CHL1    C4 1189   3.174   5.091   5.945
   17CHL1   H4A 1190   3.136   5.185   5.991
   17CHL1   H4B 1191   3.282   5.082   5.969
   17CHL1    C5 1192   3.148   5.090   5.792
   17CHL1    C6 1193   3.251   5.071   5.704
   17CHL1    H6 1194   3.356   5.079   5.735
   17CHL1    C7 1195   3.232   5.061   5.558
   17CHL1   H7A 1196   3.303   5.129   5.506
   17CHL1   H7B 1197   3.252   4.957   5.525
   17CHL1    C8 1198   3.088   5.093   5.512
   17CHL1    H8 1199   3.073   5.203   5.517
   17CHL1   C14 1200   3.058   5.066   5.369
   17CHL1   H14 1201   3.068   4.956   5.361
   17CHL1   C15 1202   3.168   5.125   5.278
   17CHL1  H15A 1203   3.203   5.227   5.307
   17CHL1  H15B 1204   3.264   5.069   5.283
   17CHL1   C16 1205   3.100   5.125   5.137
   17CHL1  H16A 1206   3.095   5.232   5.106
   17CHL1  H16B 1207   3.159   5.062   5.068
   17CHL1   C17 1208   2.960   5.072   5.162
   17CHL1   H17 1209   2.969   4.961   5.166
   17CHL1   C13 1210   2.927   5.110   5.312
   17CHL1   C18 1211   2.902   5.261   5.323
   17CHL1  H18A 1212   2.985   5.315   5.275
   17CHL1  H18B 1213   2.802   5.290   5.284
   17CHL1  H18C 1214   2.911   5.296   5.428
   17CHL1   C12 1215   2.820   5.032   5.393
   17CHL1  H12A 1216   2.719   5.047   5.349
   17CHL1  H12B 1217   2.849   4.926   5.374
   17CHL1   C11 1218   2.843   5.062   5.546
   17CHL1  H11A 1219   2.813   5.168   5.560
   17CHL1  H11B 1220   2.771   5.000   5.603
   17CHL1    C9 1221   2.986   5.033   5.606
   17CHL1    H9 1222   3.005   4.924   5.605
   17CHL1   C10 1223   2.999   5.079   5.757
   17CHL1   C19 1224   2.937   5.216   5.785
   17CHL1  H19A 1225   2.939   5.253   5.890
   17CHL1  H19B 1226   2.986   5.278   5.707
   17CHL1  H19C 1227   2.833   5.222   5.746
   17CHL1    C1 1228   2.919   4.974   5.843
   17CHL1   H1A 1229   2.812   4.985   5.814
   17CHL1   H1B 1230   2.956   4.871   5.823
   17CHL1    C2 1231   2.942   4.982   5.995
   17CHL1   H2A 1232   2.897   4.895   6.048
   17CHL1   H2B 1233   2.897   5.076   6.035
   17CHL1   C20 1234   2.863   5.102   5.052
   17CHL1   H20 1235   2.865   5.213   5.039
   17CHL1   C21 1236   2.723   5.064   5.086
   17CHL1  H21A 1237   2.689   5.131   5.168
   17CHL1  H21B 1238   2.722   4.956   5.112
   17CHL1  H21C 1239   2.658   5.087   5.000
   17CHL1   C22 1240   2.905   5.027   4.923
   17CHL1  H22A 1241   3.016   5.025   4.915
   17CHL1  H22B 1242   2.863   4.924   4.926
   17CHL1   C23 1243   2.845   5.094   4.794
   17CHL1  H23A 1244   2.735   5.082   4.805
   17CHL1  H23B 1245   2.865   5.203   4.784
   17CHL1   C24 1246   2.859   5.023   4.660
   17CHL1  H24A 1247   2.960   5.010   4.615
   17CHL1  H24B 1248   2.833   4.919   4.692
   17CHL1   C25 1249   2.762   5.062   4.544
   17CHL1   H25 1250   2.660   5.073   4.586
   17CHL1   C26 1251   2.792   5.206   4.497
   17CHL1  H26A 1252   2.725   5.232   4.412
   17CHL1  H26B 1253   2.806   5.284   4.574
   17CHL1  H26C 1254   2.894   5.199   4.455
   17CHL1   C27 1255   2.750   4.963   4.432
   17CHL1  H27A 1256   2.846   4.949   4.378
   17CHL1  H27B 1257   2.723   4.860   4.464
   17CHL1  H27C 1258   2.675   5.001   4.360
   18CHL1    C3 1259   3.046   6.593   5.865
   18CHL1    H3 1260   3.133   6.662   5.870
   18CHL1    O3 1261   3.015   6.553   5.997
   18CHL1   H3' 1262   3.082   6.487   6.019
   18CHL1    C4 1263   2.932   6.670   5.797
   18CHL1   H4A 1264   2.840   6.609   5.810
   18CHL1   H4B 1265   2.906   6.754   5.866
   18CHL1    C5 1266   2.968   6.702   5.649
   18CHL1    C6 1267   2.983   6.827   5.604
   18CHL1    H6 1268   2.964   6.914   5.668
   18CHL1    C7 1269   3.019   6.867   5.464
   18CHL1   H7A 1270   2.947   6.944   5.429
   18CHL1   H7B 1271   3.114   6.925   5.459
   18CHL1    C8 1272   3.019   6.742   5.363
   18CHL1    H8 1273   2.913   6.711   5.352
   18CHL1   C14 1274   3.087   6.782   5.239
   18CHL1   H14 1275   3.192   6.786   5.273
   18CHL1   C15 1276   3.051   6.919   5.176
   18CHL1  H15A 1277   2.942   6.926   5.158
   18CHL1  H15B 1278   3.098   7.002   5.233
   18CHL1   C16 1279   3.107   6.900   5.037
   18CHL1  H16A 1280   3.034   6.928   4.958
   18CHL1  H16B 1281   3.190   6.971   5.016
   18CHL1   C17 1282   3.144   6.743   5.015
   18CHL1   H17 1283   3.254   6.740   5.027
   18CHL1   C13 1284   3.082   6.671   5.131
   18CHL1   C18 1285   2.935   6.634   5.092
   18CHL1  H18A 1286   2.890   6.583   5.180
   18CHL1  H18B 1287   2.874   6.719   5.054
   18CHL1  H18C 1288   2.926   6.553   5.017
   18CHL1   C12 1289   3.161   6.552   5.189
   18CHL1  H12A 1290   3.166   6.467   5.118
   18CHL1  H12B 1291   3.266   6.588   5.201
   18CHL1   C11 1292   3.098   6.498   5.318
   18CHL1  H11A 1293   3.003   6.446   5.292
   18CHL1  H11B 1294   3.163   6.419   5.362
   18CHL1    C9 1295   3.079   6.614   5.424
   18CHL1    H9 1296   3.186   6.639   5.438
   18CHL1   C10 1297   3.013   6.574   5.562
   18CHL1   C19 1298   2.880   6.499   5.538
   18CHL1  H19A 1299   2.830   6.491   5.637
   18CHL1  H19B 1300   2.814   6.558   5.471
   18CHL1  H19C 1301   2.907   6.404   5.488
   18CHL1    C1 1302   3.117   6.495   5.642
   18CHL1   H1A 1303   3.152   6.401   5.592
   18CHL1   H1B 1304   3.207   6.560   5.644
   18CHL1    C2 1305   3.075   6.465   5.787
   18CHL1   H2A 1306   3.156   6.400   5.826
   18CHL1   H2B 1307   2.981   6.408   5.780
   18CHL1   C20 1308   3.104   6.702   4.875
   18CHL1   H20 1309   2.996   6.704   4.851
   18CHL1   C21 1310   3.161   6.560   4.850
   18CHL1  H21A 1311   3.256   6.544   4.906
   18CHL1  H21B 1312   3.168   6.530   4.743
   18CHL1  H21C 1313   3.087   6.488   4.891
   18CHL1   C22 1314   3.156   6.793   4.764
   18CHL1  H22A 1315   3.083   6.878   4.758
   18CHL1  H22B 1316   3.258   6.832   4.783
   18CHL1   C23 1317   3.145   6.743   4.619
   18CHL1  H23A 1318   3.231   6.682   4.586
   18CHL1  H23B 1319   3.048   6.689   4.615
   18CHL1   C24 1320   3.156   6.864   4.518
   18CHL1  H24A 1321   3.077   6.939   4.537
   18CHL1  H24B 1322   3.257   6.906   4.535
   18CHL1   C25 1323   3.143   6.832   4.366
   18CHL1   H25 1324   3.142   6.934   4.321
   18CHL1   C26 1325   3.270   6.756   4.321
   18CHL1  H26A 1326   3.363   6.813   4.345
   18CHL1  H26B 1327   3.280   6.664   4.382
   18CHL1  H26C 1328   3.282   6.732   4.213
   18CHL1   C27 1329   3.019   6.750   4.336
   18CHL1  H27A 1330   2.933   6.780   4.400
   18CHL1  H27B 1331   2.983   6.757   4.231
   18CHL1  H27C 1332   3.033   6.642   4.357
   19CHL1    C3 1333   2.447   5.709   5.588
   19CHL1    H3 1334   2.436   5.600   5.567
   19CHL1    O3 1335   2.405   5.737   5.713
   19CHL1   H3' 1336   2.429   5.829   5.721
   19CHL1    C4 1337   2.599   5.751   5.569
   19CHL1   H4A 1338   2.605   5.857   5.602
   19CHL1   H4B 1339   2.662   5.696   5.641
   19CHL1    C5 1340   2.649   5.720   5.427
   19CHL1    C6 1341   2.746   5.631   5.394
   19CHL1    H6 1342   2.808   5.578   5.468
   19CHL1    C7 1343   2.806   5.615   5.258
   19CHL1   H7A 1344   2.916   5.608   5.274
   19CHL1   H7B 1345   2.775   5.514   5.223
   19CHL1    C8 1346   2.753   5.732   5.168
   19CHL1    H8 1347   2.807   5.817   5.214
   19CHL1   C14 1348   2.793   5.708   5.024
   19CHL1   H14 1349   2.727   5.627   4.985
   19CHL1   C15 1350   2.938   5.666   5.000
   19CHL1  H15A 1351   3.009   5.718   5.069
   19CHL1  H15B 1352   2.946   5.555   4.996
   19CHL1   C16 1353   2.971   5.733   4.860
   19CHL1  H16A 1354   3.049   5.811   4.872
   19CHL1  H16B 1355   3.012   5.649   4.799
   19CHL1   C17 1356   2.837   5.782   4.803
   19CHL1   H17 1357   2.780   5.692   4.771
   19CHL1   C13 1358   2.761   5.828   4.929
   19CHL1   C18 1359   2.817   5.959   4.976
   19CHL1  H18A 1360   2.928   5.960   4.970
   19CHL1  H18B 1361   2.787   6.051   4.920
   19CHL1  H18C 1362   2.796   5.988   5.081
   19CHL1   C12 1363   2.606   5.823   4.921
   19CHL1  H12A 1364   2.556   5.905   4.865
   19CHL1  H12B 1365   2.574   5.725   4.879
   19CHL1   C11 1366   2.539   5.846   5.060
   19CHL1  H11A 1367   2.560   5.951   5.088
   19CHL1  H11B 1368   2.430   5.822   5.055
   19CHL1    C9 1369   2.605   5.759   5.174
   19CHL1    H9 1370   2.560   5.660   5.156
   19CHL1   C10 1371   2.566   5.801   5.319
   19CHL1   C19 1372   2.592   5.953   5.346
   19CHL1  H19A 1373   2.564   5.980   5.450
   19CHL1  H19B 1374   2.699   5.967   5.317
   19CHL1  H19C 1375   2.531   6.011   5.274
   19CHL1    C1 1376   2.415   5.782   5.340
   19CHL1   H1A 1377   2.360   5.857   5.279
   19CHL1   H1B 1378   2.394   5.681   5.298
   19CHL1    C2 1379   2.370   5.799   5.491
   19CHL1   H2A 1380   2.261   5.776   5.500
   19CHL1   H2B 1381   2.379   5.903   5.527
   19CHL1   C20 1382   2.860   5.882   4.689
   19CHL1   H20 1383   2.931   5.956   4.732
   19CHL1   C21 1384   2.726   5.944   4.640
   19CHL1  H21A 1385   2.664   5.853   4.619
   19CHL1  H21B 1386   2.755   5.999   4.548
   19CHL1  H21C 1387   2.677   6.024   4.700
   19CHL1   C22 1388   2.936   5.810   4.573
   19CHL1  H22A 1389   2.941   5.877   4.484
   19CHL1  H22B 1390   3.042   5.801   4.605
   19CHL1   C23 1391   2.880   5.677   4.504
   19CHL1  H23A 1392   2.843   5.604   4.579
   19CHL1  H23B 1393   2.804   5.713   4.432
   19CHL1   C24 1394   2.995   5.627   4.415
   19CHL1  H24A 1395   2.954   5.548   4.348
   19CHL1  H24B 1396   3.029   5.707   4.347
   19CHL1   C25 1397   3.112   5.565   4.487
   19CHL1   H25 1398   3.135   5.618   4.582
   19CHL1   C26 1399   3.078   5.420   4.526
   19CHL1  H26A 1400   3.051   5.369   4.432
   19CHL1  H26B 1401   3.164   5.366   4.570
   19CHL1  H26C 1402   2.995   5.399   4.597
   19CHL1   C27 1403   3.236   5.572   4.395
   19CHL1  H27A 1404   3.334   5.543   4.439
   19CHL1  H27B 1405   3.208   5.493   4.322
   19CHL1  H27C 1406   3.245   5.671   4.344
   20CHL1    C3 1407   1.595   0.227   5.867
   20CHL1    H3 1408   1.549   0.328   5.858
   20CHL1    O3 1409   1.631   0.196   6.002
   20CHL1   H3' 1410   1.559   0.235   6.052
   20CHL1    C4 1411   1.502   0.122   5.812
   20CHL1   H4A 1412   1.547   0.021   5.815
   20CHL1   H4B 1413   1.420   0.130   5.888
   20CHL1    C5 1414   1.454   0.141   5.673
   20CHL1    C6 1415   1.326   0.147   5.632
   20CHL1    H6 1416   1.237   0.135   5.696
   20CHL1    C7 1417   1.299   0.156   5.483
   20CHL1   H7A 1418   1.215   0.091   5.450
   20CHL1   H7B 1419   1.263   0.261   5.476
   20CHL1    C8 1420   1.417   0.125   5.386
   20CHL1    H8 1421   1.434   0.016   5.388
   20CHL1   C14 1422   1.386   0.167   5.244
   20CHL1   H14 1423   1.364   0.275   5.239
   20CHL1   C15 1424   1.268   0.095   5.172
   20CHL1  H15A 1425   1.261  -0.013   5.197
   20CHL1  H15B 1426   1.170   0.137   5.205
   20CHL1   C16 1427   1.291   0.120   5.020
   20CHL1  H16A 1428   1.265   0.024   4.970
   20CHL1  H16B 1429   1.209   0.190   4.994
   20CHL1   C17 1430   1.435   0.186   5.005
   20CHL1   H17 1431   1.413   0.294   5.013
   20CHL1   C13 1432   1.503   0.149   5.146
   20CHL1   C18 1433   1.541  -0.003   5.126
   20CHL1  H18A 1434   1.628  -0.003   5.057
   20CHL1  H18B 1435   1.575  -0.054   5.219
   20CHL1  H18C 1436   1.461  -0.073   5.093
   20CHL1   C12 1437   1.617   0.243   5.191
   20CHL1  H12A 1438   1.706   0.235   5.124
   20CHL1  H12B 1439   1.579   0.347   5.203
   20CHL1   C11 1440   1.654   0.201   5.333
   20CHL1  H11A 1441   1.692   0.097   5.322
   20CHL1  H11B 1442   1.744   0.256   5.368
   20CHL1    C9 1443   1.534   0.200   5.432
   20CHL1    H9 1444   1.493   0.303   5.438
   20CHL1   C10 1445   1.575   0.158   5.577
   20CHL1   C19 1446   1.646   0.017   5.571
   20CHL1  H19A 1447   1.575  -0.054   5.524
   20CHL1  H19B 1448   1.728   0.028   5.497
   20CHL1  H19C 1449   1.694  -0.022   5.663
   20CHL1    C1 1450   1.681   0.262   5.642
   20CHL1   H1A 1451   1.770   0.281   5.578
   20CHL1   H1B 1452   1.617   0.352   5.653
   20CHL1    C2 1453   1.717   0.223   5.782
   20CHL1   H2A 1454   1.774   0.301   5.837
   20CHL1   H2B 1455   1.772   0.126   5.791
   20CHL1   C20 1456   1.509   0.153   4.869
   20CHL1   H20 1457   1.539   0.047   4.873
   20CHL1   C21 1458   1.630   0.247   4.870
   20CHL1  H21A 1459   1.712   0.199   4.927
   20CHL1  H21B 1460   1.616   0.351   4.907
   20CHL1  H21C 1461   1.669   0.268   4.768
   20CHL1   C22 1462   1.419   0.180   4.743
   20CHL1  H22A 1463   1.325   0.122   4.753
   20CHL1  H22B 1464   1.393   0.288   4.749
   20CHL1   C23 1465   1.482   0.164   4.606
   20CHL1  H23A 1466   1.584   0.206   4.598
   20CHL1  H23B 1467   1.502   0.056   4.588
   20CHL1   C24 1468   1.385   0.218   4.502
   20CHL1  H24A 1469   1.292   0.158   4.488
   20CHL1  H24B 1470   1.342   0.313   4.541
   20CHL1   C25 1471   1.448   0.237   4.357
   20CHL1   H25 1472   1.371   0.287   4.295
   20CHL1   C26 1473   1.562   0.332   4.360
   20CHL1  H26A 1474   1.604   0.331   4.257
   20CHL1  H26B 1475   1.535   0.437   4.384
   20CHL1  H26C 1476   1.641   0.295   4.428
   20CHL1   C27 1477   1.475   0.102   4.279
   20CHL1  H27A 1478   1.498   0.108   4.170
   20CHL1  H27B 1479   1.568   0.059   4.322
   20CHL1  H27C 1480   1.386   0.036   4.289
   21CHL1    C3 1481   6.766   0.178   6.366
   21CHL1    H3 1482   6.709   0.098   6.313
   21CHL1    O3 1483   6.740   0.154   6.504
   21CHL1   H3' 1484   6.804   0.189   6.566
   21CHL1    C4 1485   6.915   0.158   6.341
   21CHL1   H4A 1486   6.965   0.230   6.410
   21CHL1   H4B 1487   6.946   0.057   6.375
   21CHL1    C5 1488   6.945   0.185   6.193
   21CHL1    C6 1489   7.016   0.099   6.121
   21CHL1    H6 1490   7.060   0.009   6.167
   21CHL1    C7 1491   7.052   0.119   5.977
   21CHL1   H7A 1492   7.159   0.096   5.958
   21CHL1   H7B 1493   6.996   0.036   5.929
   21CHL1    C8 1494   7.016   0.264   5.933
   21CHL1    H8 1495   7.084   0.345   5.966
   21CHL1   C14 1496   7.008   0.263   5.778
   21CHL1   H14 1497   6.919   0.205   5.747
   21CHL1   C15 1498   7.127   0.204   5.701
   21CHL1  H15A 1499   7.220   0.241   5.751
   21CHL1  H15B 1500   7.132   0.094   5.714
   21CHL1   C16 1501   7.110   0.269   5.562
   21CHL1  H16A 1502   7.197   0.319   5.515
   21CHL1  H16B 1503   7.072   0.197   5.486
   21CHL1   C17 1504   6.998   0.374   5.562
   21CHL1   H17 1505   6.908   0.320   5.527
   21CHL1   C13 1506   6.977   0.402   5.711
   21CHL1   C18 1507   7.093   0.493   5.761
   21CHL1  H18A 1508   7.196   0.456   5.740
   21CHL1  H18B 1509   7.089   0.591   5.708
   21CHL1  H18C 1510   7.083   0.515   5.869
   21CHL1   C12 1511   6.836   0.448   5.762
   21CHL1  H12A 1512   6.807   0.547   5.720
   21CHL1  H12B 1513   6.751   0.389   5.721
   21CHL1   C11 1514   6.832   0.439   5.913
   21CHL1  H11A 1515   6.884   0.525   5.960
   21CHL1  H11B 1516   6.725   0.456   5.935
   21CHL1    C9 1517   6.877   0.310   5.981
   21CHL1    H9 1518   6.805   0.231   5.948
   21CHL1   C10 1519   6.871   0.307   6.134
   21CHL1   C19 1520   6.940   0.434   6.185
   21CHL1  H19A 1521   7.037   0.440   6.131
   21CHL1  H19B 1522   6.880   0.524   6.161
   21CHL1  H19C 1523   6.949   0.431   6.296
   21CHL1    C1 1524   6.723   0.312   6.169
   21CHL1   H1A 1525   6.680   0.411   6.142
   21CHL1   H1B 1526   6.669   0.231   6.116
   21CHL1    C2 1527   6.705   0.305   6.317
   21CHL1   H2A 1528   6.602   0.309   6.358
   21CHL1   H2B 1529   6.750   0.396   6.362
   21CHL1   C20 1530   7.011   0.494   5.462
   21CHL1   H20 1531   7.110   0.545   5.471
   21CHL1   C21 1532   6.908   0.610   5.488
   21CHL1  H21A 1533   6.939   0.650   5.587
   21CHL1  H21B 1534   6.806   0.566   5.497
   21CHL1  H21C 1535   6.892   0.688   5.411
   21CHL1   C22 1536   6.987   0.453   5.325
   21CHL1  H22A 1537   7.031   0.353   5.303
   21CHL1  H22B 1538   6.880   0.445   5.297
   21CHL1   C23 1539   7.059   0.551   5.230
   21CHL1  H23A 1540   7.039   0.655   5.264
   21CHL1  H23B 1541   7.161   0.521   5.262
   21CHL1   C24 1542   7.027   0.528   5.081
   21CHL1  H24A 1543   7.031   0.419   5.062
   21CHL1  H24B 1544   6.925   0.568   5.061
   21CHL1   C25 1545   7.121   0.604   4.986
   21CHL1   H25 1546   7.115   0.712   5.012
   21CHL1   C26 1547   7.267   0.564   4.989
   21CHL1  H26A 1548   7.274   0.459   4.953
   21CHL1  H26B 1549   7.315   0.616   4.903
   21CHL1  H26C 1550   7.319   0.585   5.085
   21CHL1   C27 1551   7.065   0.603   4.840
   21CHL1  H27A 1552   7.048   0.497   4.811
   21CHL1  H27B 1553   6.965   0.649   4.852
   21CHL1  H27C 1554   7.129   0.659   4.769
   22CHL1    C3 1555   1.443   4.007   5.820
   22CHL1    H3 1556   1.373   3.922   5.835
   22CHL1    O3 1557   1.479   4.075   5.938
   22CHL1   H3' 1558   1.540   4.146   5.916
   22CHL1    C4 1559   1.570   3.955   5.759
   22CHL1   H4A 1560   1.644   4.037   5.746
   22CHL1   H4B 1561   1.625   3.895   5.834
   22CHL1    C5 1562   1.530   3.887   5.626
   22CHL1    C6 1563   1.552   3.759   5.606
   22CHL1    H6 1564   1.600   3.698   5.685
   22CHL1    C7 1565   1.520   3.682   5.479
   22CHL1   H7A 1566   1.609   3.622   5.452
   22CHL1   H7B 1567   1.436   3.610   5.493
   22CHL1    C8 1568   1.496   3.770   5.359
   22CHL1    H8 1569   1.595   3.803   5.322
   22CHL1   C14 1570   1.422   3.691   5.246
   22CHL1   H14 1571   1.330   3.651   5.292
   22CHL1   C15 1572   1.488   3.567   5.176
   22CHL1  H15A 1573   1.591   3.594   5.145
   22CHL1  H15B 1574   1.489   3.481   5.247
   22CHL1   C16 1575   1.397   3.534   5.057
   22CHL1  H16A 1576   1.462   3.517   4.969
   22CHL1  H16B 1577   1.332   3.444   5.069
   22CHL1   C17 1578   1.305   3.656   5.040
   22CHL1   H17 1579   1.211   3.642   5.097
   22CHL1   C13 1580   1.379   3.772   5.124
   22CHL1   C18 1581   1.503   3.816   5.042
   22CHL1  H18A 1582   1.540   3.733   4.978
   22CHL1  H18B 1583   1.469   3.894   4.970
   22CHL1  H18C 1584   1.586   3.851   5.106
   22CHL1   C12 1585   1.300   3.894   5.167
   22CHL1  H12A 1586   1.272   3.960   5.082
   22CHL1  H12B 1587   1.207   3.857   5.216
   22CHL1   C11 1588   1.372   3.973   5.272
   22CHL1  H11A 1589   1.466   4.017   5.232
   22CHL1  H11B 1590   1.314   4.061   5.307
   22CHL1    C9 1591   1.411   3.890   5.398
   22CHL1    H9 1592   1.317   3.850   5.441
   22CHL1   C10 1593   1.467   3.973   5.520
   22CHL1   C19 1594   1.582   4.071   5.479
   22CHL1  H19A 1595   1.544   4.155   5.416
   22CHL1  H19B 1596   1.621   4.127   5.566
   22CHL1  H19C 1597   1.661   4.018   5.422
   22CHL1    C1 1598   1.347   4.048   5.585
   22CHL1   H1A 1599   1.309   4.131   5.522
   22CHL1   H1B 1600   1.266   3.971   5.591
   22CHL1    C2 1601   1.376   4.105   5.725
   22CHL1   H2A 1602   1.289   4.140   5.786
   22CHL1   H2B 1603   1.447   4.190   5.717
   22CHL1   C20 1604   1.263   3.678   4.896
   22CHL1   H20 1605   1.355   3.666   4.835
   22CHL1   C21 1606   1.188   3.816   4.870
   22CHL1  H21A 1607   1.135   3.833   4.774
   22CHL1  H21B 1608   1.268   3.892   4.881
   22CHL1  H21C 1609   1.107   3.820   4.946
   22CHL1   C22 1610   1.164   3.560   4.848
   22CHL1  H22A 1611   1.082   3.547   4.922
   22CHL1  H22B 1612   1.120   3.603   4.756
   22CHL1   C23 1613   1.222   3.424   4.804
   22CHL1  H23A 1614   1.331   3.432   4.783
   22CHL1  H23B 1615   1.216   3.348   4.885
   22CHL1   C24 1616   1.147   3.361   4.692
   22CHL1  H24A 1617   1.041   3.389   4.709
   22CHL1  H24B 1618   1.185   3.415   4.602
   22CHL1   C25 1619   1.166   3.210   4.671
   22CHL1   H25 1620   1.163   3.156   4.768
   22CHL1   C26 1621   1.053   3.137   4.585
   22CHL1  H26A 1622   0.970   3.125   4.657
   22CHL1  H26B 1623   1.020   3.196   4.497
   22CHL1  H26C 1624   1.104   3.047   4.545
   22CHL1   C27 1625   1.300   3.197   4.603
   22CHL1  H27A 1626   1.307   3.257   4.510
   22CHL1  H27B 1627   1.381   3.241   4.666
   22CHL1  H27C 1628   1.319   3.094   4.567
   23CHL1    C3 1629   0.571   1.431   5.889
   23CHL1    H3 1630   0.643   1.515   5.884
   23CHL1    O3 1631   0.552   1.399   6.028
   23CHL1   H3' 1632   0.635   1.396   6.075
   23CHL1    C4 1633   0.433   1.478   5.843
   23CHL1   H4A 1634   0.356   1.399   5.853
   23CHL1   H4B 1635   0.399   1.564   5.904
   23CHL1    C5 1636   0.440   1.505   5.696
   23CHL1    C6 1637   0.406   1.631   5.647
   23CHL1    H6 1638   0.387   1.709   5.722
   23CHL1    C7 1639   0.393   1.669   5.506
   23CHL1   H7A 1640   0.298   1.723   5.487
   23CHL1   H7B 1641   0.472   1.741   5.474
   23CHL1    C8 1642   0.399   1.544   5.412
   23CHL1    H8 1643   0.296   1.503   5.412
   23CHL1   C14 1644   0.436   1.583   5.269
   23CHL1   H14 1645   0.540   1.620   5.270
   23CHL1   C15 1646   0.346   1.701   5.203
   23CHL1  H15A 1647   0.240   1.672   5.222
   23CHL1  H15B 1648   0.379   1.795   5.251
   23CHL1   C16 1649   0.377   1.686   5.051
   23CHL1  H16A 1650   0.277   1.676   5.003
   23CHL1  H16B 1651   0.417   1.784   5.016
   23CHL1   C17 1652   0.463   1.555   5.037
   23CHL1   H17 1653   0.568   1.592   5.042
   23CHL1   C13 1654   0.443   1.470   5.168
   23CHL1   C18 1655   0.300   1.404   5.149
   23CHL1  H18A 1656   0.318   1.313   5.087
   23CHL1  H18B 1657   0.249   1.376   5.244
   23CHL1  H18C 1658   0.235   1.459   5.079
   23CHL1   C12 1659   0.554   1.379   5.217
   23CHL1  H12A 1660   0.565   1.291   5.151
   23CHL1  H12B 1661   0.651   1.430   5.237
   23CHL1   C11 1662   0.517   1.318   5.356
   23CHL1  H11A 1663   0.416   1.271   5.349
   23CHL1  H11B 1664   0.585   1.240   5.397
   23CHL1    C9 1665   0.501   1.435   5.458
   23CHL1    H9 1666   0.599   1.487   5.455
   23CHL1   C10 1667   0.484   1.389   5.607
   23CHL1   C19 1668   0.379   1.269   5.614
   23CHL1  H19A 1669   0.357   1.229   5.715
   23CHL1  H19B 1670   0.285   1.296   5.563
   23CHL1  H19C 1671   0.430   1.184   5.562
   23CHL1    C1 1672   0.627   1.347   5.660
   23CHL1   H1A 1673   0.674   1.270   5.596
   23CHL1   H1B 1674   0.697   1.430   5.636
   23CHL1    C2 1675   0.626   1.315   5.813
   23CHL1   H2A 1676   0.728   1.288   5.849
   23CHL1   H2B 1677   0.560   1.225   5.818
   23CHL1   C20 1678   0.453   1.493   4.890
   23CHL1   H20 1679   0.361   1.433   4.874
   23CHL1   C21 1680   0.585   1.406   4.876
   23CHL1  H21A 1681   0.679   1.460   4.900
   23CHL1  H21B 1682   0.593   1.353   4.779
   23CHL1  H21C 1683   0.569   1.328   4.954
   23CHL1   C22 1684   0.466   1.606   4.783
   23CHL1  H22A 1685   0.384   1.681   4.790
   23CHL1  H22B 1686   0.557   1.666   4.800
   23CHL1   C23 1687   0.461   1.550   4.638
   23CHL1  H23A 1688   0.540   1.485   4.596
   23CHL1  H23B 1689   0.365   1.495   4.650
   23CHL1   C24 1690   0.448   1.647   4.530
   23CHL1  H24A 1691   0.371   1.725   4.552
   23CHL1  H24B 1692   0.543   1.705   4.523
   23CHL1   C25 1693   0.435   1.592   4.387
   23CHL1   H25 1694   0.507   1.511   4.361
   23CHL1   C26 1695   0.298   1.522   4.368
   23CHL1  H26A 1696   0.218   1.598   4.372
   23CHL1  H26B 1697   0.305   1.483   4.264
   23CHL1  H26C 1698   0.275   1.441   4.441
   23CHL1   C27 1699   0.453   1.704   4.286
   23CHL1  H27A 1700   0.561   1.722   4.268
   23CHL1  H27B 1701   0.413   1.668   4.189
   23CHL1  H27C 1702   0.416   1.804   4.315
   24CHL1    C3 1703   1.559   5.193   6.440
   24CHL1    H3 1704   1.669   5.205   6.437
   24CHL1    O3 1705   1.513   5.197   6.573
   24CHL1   H3' 1706   1.418   5.191   6.564
   24CHL1    C4 1707   1.501   5.305   6.354
   24CHL1   H4A 1708   1.391   5.302   6.365
   24CHL1   H4B 1709   1.549   5.395   6.399
   24CHL1    C5 1710   1.532   5.290   6.208
   24CHL1    C6 1711   1.593   5.387   6.150
   24CHL1    H6 1712   1.613   5.481   6.202
   24CHL1    C7 1713   1.639   5.388   6.006
   24CHL1   H7A 1714   1.603   5.476   5.950
   24CHL1   H7B 1715   1.748   5.406   5.994
   24CHL1    C8 1716   1.589   5.263   5.938
   24CHL1    H8 1717   1.483   5.288   5.916
   24CHL1   C14 1718   1.659   5.258   5.801
   24CHL1   H14 1719   1.769   5.250   5.813
   24CHL1   C15 1720   1.642   5.379   5.708
   24CHL1  H15A 1721   1.544   5.426   5.729
   24CHL1  H15B 1722   1.723   5.452   5.729
   24CHL1   C16 1723   1.650   5.310   5.571
   24CHL1  H16A 1724   1.551   5.307   5.519
   24CHL1  H16B 1725   1.725   5.363   5.509
   24CHL1   C17 1726   1.701   5.159   5.590
   24CHL1   H17 1727   1.812   5.158   5.604
   24CHL1   C13 1728   1.627   5.129   5.728
   24CHL1   C18 1729   1.474   5.110   5.707
   24CHL1  H18A 1730   1.466   5.008   5.665
   24CHL1  H18B 1731   1.420   5.108   5.804
   24CHL1  H18C 1732   1.425   5.183   5.639
   24CHL1   C12 1733   1.666   5.004   5.813
   24CHL1  H12A 1734   1.630   4.913   5.760
   24CHL1  H12B 1735   1.777   5.001   5.809
   24CHL1   C11 1736   1.613   4.999   5.958
   24CHL1  H11A 1737   1.513   4.952   5.947
   24CHL1  H11B 1738   1.675   4.921   6.007
   24CHL1    C9 1739   1.609   5.136   6.026
   24CHL1    H9 1740   1.713   5.141   6.066
   24CHL1   C10 1741   1.517   5.143   6.152
   24CHL1   C19 1742   1.366   5.129   6.112
   24CHL1  H19A 1743   1.341   5.192   6.023
   24CHL1  H19B 1744   1.352   5.027   6.070
   24CHL1  H19C 1745   1.307   5.154   6.202
   24CHL1    C1 1746   1.571   5.035   6.247
   24CHL1   H1A 1747   1.545   4.932   6.214
   24CHL1   H1B 1748   1.682   5.025   6.245
   24CHL1    C2 1749   1.526   5.050   6.390
   24CHL1   H2A 1750   1.565   4.971   6.458
   24CHL1   H2B 1751   1.415   5.051   6.382
   24CHL1   C20 1752   1.667   5.064   5.472
   24CHL1   H20 1753   1.558   5.040   5.472
   24CHL1   C21 1754   1.746   4.931   5.490
   24CHL1  H21A 1755   1.687   4.858   5.429
   24CHL1  H21B 1756   1.748   4.883   5.590
   24CHL1  H21C 1757   1.853   4.935   5.460
   24CHL1   C22 1758   1.700   5.116   5.333
   24CHL1  H22A 1759   1.653   5.216   5.331
   24CHL1  H22B 1760   1.810   5.134   5.331
   24CHL1   C23 1761   1.647   5.033   5.212
   24CHL1  H23A 1762   1.699   4.937   5.234
   24CHL1  H23B 1763   1.537   5.032   5.228
   24CHL1   C24 1764   1.687   5.094   5.080
   24CHL1  H24A 1765   1.621   5.183   5.069
   24CHL1  H24B 1766   1.797   5.108   5.085
   24CHL1   C25 1767   1.658   4.984   4.977
   24CHL1   H25 1768   1.701   4.892   5.023
   24CHL1   C26 1769   1.505   4.960   4.951
   24CHL1  H26A 1770   1.456   4.925   5.044
   24CHL1  H26B 1771   1.455   5.055   4.920
   24CHL1  H26C 1772   1.495   4.884   4.871
   24CHL1   C27 1773   1.730   5.011   4.844
   24CHL1  H27A 1774   1.728   4.930   4.768
   24CHL1  H27B 1775   1.691   5.107   4.803
   24CHL1  H27C 1776   1.837   5.034   4.860
   25CHL1    C3 1777   6.354   0.497   6.159
   25CHL1    H3 1778   6.453   0.545   6.173
   25CHL1    O3 1779   6.282   0.464   6.279
   25CHL1   H3' 1780   6.189   0.469   6.254
   25CHL1    C4 1781   6.262   0.592   6.078
   25CHL1   H4A 1782   6.160   0.548   6.075
   25CHL1   H4B 1783   6.249   0.686   6.135
   25CHL1    C5 1784   6.307   0.608   5.931
   25CHL1    C6 1785   6.340   0.725   5.877
   25CHL1    H6 1786   6.333   0.816   5.937
   25CHL1    C7 1787   6.383   0.747   5.732
   25CHL1   H7A 1788   6.334   0.839   5.693
   25CHL1   H7B 1789   6.493   0.766   5.738
   25CHL1    C8 1790   6.371   0.612   5.655
   25CHL1    H8 1791   6.261   0.607   5.643
   25CHL1   C14 1792   6.456   0.630   5.530
   25CHL1   H14 1793   6.563   0.631   5.556
   25CHL1   C15 1794   6.449   0.761   5.443
   25CHL1  H15A 1795   6.343   0.793   5.441
   25CHL1  H15B 1796   6.497   0.846   5.496
   25CHL1   C16 1797   6.506   0.721   5.309
   25CHL1  H16A 1798   6.425   0.743   5.236
   25CHL1  H16B 1799   6.600   0.778   5.291
   25CHL1   C17 1800   6.532   0.563   5.308
   25CHL1   H17 1801   6.638   0.558   5.342
   25CHL1   C13 1802   6.446   0.516   5.428
   25CHL1   C18 1803   6.290   0.510   5.394
   25CHL1  H18A 1804   6.263   0.607   5.346
   25CHL1  H18B 1805   6.259   0.426   5.329
   25CHL1  H18C 1806   6.228   0.493   5.484
   25CHL1   C12 1807   6.481   0.385   5.498
   25CHL1  H12A 1808   6.468   0.294   5.436
   25CHL1  H12B 1809   6.590   0.388   5.517
   25CHL1   C11 1810   6.410   0.364   5.625
   25CHL1  H11A 1811   6.305   0.337   5.605
   25CHL1  H11B 1812   6.446   0.275   5.680
   25CHL1    C9 1813   6.414   0.487   5.725
   25CHL1    H9 1814   6.521   0.505   5.750
   25CHL1   C10 1815   6.341   0.472   5.858
   25CHL1   C19 1816   6.207   0.396   5.826
   25CHL1  H19A 1817   6.215   0.288   5.804
   25CHL1  H19B 1818   6.134   0.396   5.909
   25CHL1  H19C 1819   6.146   0.444   5.747
   25CHL1    C1 1820   6.430   0.387   5.956
   25CHL1   H1A 1821   6.426   0.283   5.916
   25CHL1   H1B 1822   6.536   0.418   5.967
   25CHL1    C2 1823   6.372   0.363   6.092
   25CHL1   H2A 1824   6.429   0.296   6.160
   25CHL1   H2B 1825   6.272   0.317   6.080
   25CHL1   C20 1826   6.514   0.506   5.166
   25CHL1   H20 1827   6.409   0.528   5.138
   25CHL1   C21 1828   6.537   0.352   5.167
   25CHL1  H21A 1829   6.637   0.329   5.210
   25CHL1  H21B 1830   6.538   0.312   5.064
   25CHL1  H21C 1831   6.453   0.310   5.227
   25CHL1   C22 1832   6.601   0.577   5.059
   25CHL1  H22A 1833   6.593   0.686   5.079
   25CHL1  H22B 1834   6.707   0.554   5.083
   25CHL1   C23 1835   6.577   0.539   4.912
   25CHL1  H23A 1836   6.636   0.446   4.906
   25CHL1  H23B 1837   6.470   0.532   4.882
   25CHL1   C24 1838   6.654   0.642   4.818
   25CHL1  H24A 1839   6.588   0.730   4.802
   25CHL1  H24B 1840   6.744   0.675   4.872
   25CHL1   C25 1841   6.692   0.579   4.688
   25CHL1   H25 1842   6.753   0.488   4.704
   25CHL1   C26 1843   6.567   0.539   4.614
   25CHL1  H26A 1844   6.593   0.520   4.507
   25CHL1  H26B 1845   6.516   0.454   4.663
   25CHL1  H26C 1846   6.508   0.632   4.623
   25CHL1   C27 1847   6.771   0.673   4.592
   25CHL1  H27A 1848   6.714   0.766   4.570
   25CHL1  H27B 1849   6.872   0.707   4.621
   25CHL1  H27C 1850   6.790   0.620   4.496
   26CHL1    C3 1851   3.125   5.514   5.828
   26CHL1    H3 1852   3.092   5.408   5.820
   26CHL1    O3 1853   3.090   5.565   5.956
   26CHL1   H3' 1854   3.122   5.655   5.953
   26CHL1    C4 1855   3.276   5.530   5.800
   26CHL1   H4A 1856   3.309   5.634   5.823
   26CHL1   H4B 1857   3.326   5.460   5.871
   26CHL1    C5 1858   3.316   5.490   5.656
   26CHL1    C6 1859   3.408   5.395   5.634
   26CHL1    H6 1860   3.465   5.346   5.714
   26CHL1    C7 1861   3.467   5.369   5.498
   26CHL1   H7A 1862   3.577   5.371   5.509
   26CHL1   H7B 1863   3.433   5.274   5.452
   26CHL1    C8 1864   3.419   5.479   5.395
   26CHL1    H8 1865   3.474   5.574   5.415
   26CHL1   C14 1866   3.445   5.436   5.251
   26CHL1   H14 1867   3.395   5.340   5.227
   26CHL1   C15 1868   3.590   5.400   5.213
   26CHL1  H15A 1869   3.646   5.486   5.256
   26CHL1  H15B 1870   3.628   5.307   5.262
   26CHL1   C16 1871   3.583   5.406   5.058
   26CHL1  H16A 1872   3.664   5.474   5.025
   26CHL1  H16B 1873   3.600   5.308   5.009
   26CHL1   C17 1874   3.443   5.461   5.016
   26CHL1   H17 1875   3.373   5.374   5.014
   26CHL1   C13 1876   3.388   5.532   5.140
   26CHL1   C18 1877   3.461   5.671   5.151
   26CHL1  H18A 1878   3.438   5.732   5.061
   26CHL1  H18B 1879   3.430   5.725   5.243
   26CHL1  H18C 1880   3.571   5.656   5.152
   26CHL1   C12 1881   3.241   5.540   5.154
   26CHL1  H12A 1882   3.204   5.602   5.070
   26CHL1  H12B 1883   3.196   5.439   5.143
   26CHL1   C11 1884   3.208   5.604   5.296
   26CHL1  H11A 1885   3.259   5.702   5.298
   26CHL1  H11B 1886   3.097   5.613   5.301
   26CHL1    C9 1887   3.270   5.516   5.406
   26CHL1    H9 1888   3.218   5.417   5.411
   26CHL1   C10 1889   3.242   5.575   5.547
   26CHL1   C19 1890   3.292   5.722   5.557
   26CHL1  H19A 1891   3.242   5.797   5.492
   26CHL1  H19B 1892   3.284   5.754   5.663
   26CHL1  H19C 1893   3.400   5.732   5.532
   26CHL1    C1 1894   3.088   5.564   5.570
   26CHL1   H1A 1895   3.029   5.627   5.500
   26CHL1   H1B 1896   3.052   5.460   5.558
   26CHL1    C2 1897   3.041   5.590   5.715
   26CHL1   H2A 1898   2.936   5.555   5.717
   26CHL1   H2B 1899   3.044   5.699   5.733
   26CHL1   C20 1900   3.433   5.525   4.873
   26CHL1   H20 1901   3.353   5.603   4.868
   26CHL1   C21 1902   3.390   5.410   4.777
   26CHL1  H21A 1903   3.471   5.334   4.778
   26CHL1  H21B 1904   3.373   5.455   4.676
   26CHL1  H21C 1905   3.288   5.374   4.802
   26CHL1   C22 1906   3.560   5.604   4.826
   26CHL1  H22A 1907   3.603   5.662   4.910
   26CHL1  H22B 1908   3.638   5.526   4.810
   26CHL1   C23 1909   3.544   5.679   4.695
   26CHL1  H23A 1910   3.502   5.608   4.620
   26CHL1  H23B 1911   3.485   5.772   4.709
   26CHL1   C24 1912   3.691   5.710   4.643
   26CHL1  H24A 1913   3.755   5.736   4.729
   26CHL1  H24B 1914   3.735   5.620   4.594
   26CHL1   C25 1915   3.693   5.825   4.545
   26CHL1   H25 1916   3.640   5.913   4.586
   26CHL1   C26 1917   3.832   5.880   4.526
   26CHL1  H26A 1918   3.895   5.817   4.460
   26CHL1  H26B 1919   3.828   5.983   4.483
   26CHL1  H26C 1920   3.891   5.886   4.620
   26CHL1   C27 1921   3.631   5.801   4.403
   26CHL1  H27A 1922   3.531   5.759   4.426
   26CHL1  H27B 1923   3.618   5.886   4.333
   26CHL1  H27C 1924   3.677   5.722   4.341
   27CHL1    C3 1925   2.111   4.575   5.939
   27CHL1    H3 1926   2.020   4.518   5.913
   27CHL1    O3 1927   2.136   4.550   6.079
   27CHL1   H3' 1928   2.058   4.587   6.121
   27CHL1    C4 1929   2.245   4.537   5.864
   27CHL1   H4A 1930   2.322   4.600   5.912
   27CHL1   H4B 1931   2.267   4.429   5.881
   27CHL1    C5 1932   2.245   4.580   5.722
   27CHL1    C6 1933   2.273   4.489   5.623
   27CHL1    H6 1934   2.297   4.384   5.647
   27CHL1    C7 1935   2.285   4.530   5.478
   27CHL1   H7A 1936   2.387   4.501   5.444
   27CHL1   H7B 1937   2.207   4.482   5.415
   27CHL1    C8 1938   2.284   4.685   5.460
   27CHL1    H8 1939   2.390   4.719   5.467
   27CHL1   C14 1940   2.237   4.717   5.315
   27CHL1   H14 1941   2.128   4.696   5.311
   27CHL1   C15 1942   2.311   4.642   5.208
   27CHL1  H15A 1943   2.422   4.642   5.222
   27CHL1  H15B 1944   2.277   4.536   5.205
   27CHL1   C16 1945   2.284   4.729   5.082
   27CHL1  H16A 1946   2.374   4.760   5.026
   27CHL1  H16B 1947   2.228   4.658   5.018
   27CHL1   C17 1948   2.189   4.843   5.128
   27CHL1   H17 1949   2.084   4.809   5.130
   27CHL1   C13 1950   2.235   4.864   5.274
   27CHL1   C18 1951   2.382   4.924   5.285
   27CHL1  H18A 1952   2.406   4.950   5.390
   27CHL1  H18B 1953   2.450   4.849   5.239
   27CHL1  H18C 1954   2.381   5.022   5.233
   27CHL1   C12 1955   2.142   4.942   5.378
   27CHL1  H12A 1956   2.168   5.048   5.361
   27CHL1  H12B 1957   2.034   4.920   5.360
   27CHL1   C11 1958   2.181   4.911   5.523
   27CHL1  H11A 1959   2.276   4.963   5.548
   27CHL1  H11B 1960   2.101   4.961   5.582
   27CHL1    C9 1961   2.184   4.762   5.554
   27CHL1    H9 1962   2.087   4.718   5.524
   27CHL1   C10 1963   2.217   4.727   5.703
   27CHL1   C19 1964   2.339   4.817   5.744
   27CHL1  H19A 1965   2.314   4.925   5.733
   27CHL1  H19B 1966   2.354   4.810   5.854
   27CHL1  H19C 1967   2.431   4.795   5.686
   27CHL1    C1 1968   2.096   4.779   5.789
   27CHL1   H1A 1969   2.117   4.887   5.799
   27CHL1   H1B 1970   2.000   4.760   5.737
   27CHL1    C2 1971   2.097   4.729   5.937
   27CHL1   H2A 1972   2.004   4.763   5.987
   27CHL1   H2B 1973   2.178   4.781   5.992
   27CHL1   C20 1974   2.189   4.956   5.024
   27CHL1   H20 1975   2.295   4.983   5.002
   27CHL1   C21 1976   2.118   5.082   5.071
   27CHL1  H21A 1977   2.170   5.126   5.158
   27CHL1  H21B 1978   2.020   5.054   5.113
   27CHL1  H21C 1979   2.098   5.161   4.995
   27CHL1   C22 1980   2.123   4.910   4.885
   27CHL1  H22A 1981   2.146   4.803   4.865
   27CHL1  H22B 1982   2.013   4.923   4.895
   27CHL1   C23 1983   2.161   4.994   4.763
   27CHL1  H23A 1984   2.122   5.098   4.772
   27CHL1  H23B 1985   2.271   5.004   4.752
   27CHL1   C24 1986   2.101   4.941   4.635
   27CHL1  H24A 1987   2.122   4.832   4.633
   27CHL1  H24B 1988   1.991   4.937   4.618
   27CHL1   C25 1989   2.162   5.007   4.506
   27CHL1   H25 1990   2.273   5.001   4.509
   27CHL1   C26 1991   2.093   4.945   4.382
   27CHL1  H26A 1992   2.127   4.994   4.289
   27CHL1  H26B 1993   2.122   4.838   4.378
   27CHL1  H26C 1994   1.984   4.948   4.404
   27CHL1   C27 1995   2.149   5.161   4.508
   27CHL1  H27A 1996   2.217   5.197   4.588
   27CHL1  H27B 1997   2.180   5.206   4.411
   27CHL1  H27C 1998   2.041   5.176   4.528
   28CHL1    C3 1999   1.633   6.475   6.356
   28CHL1    H3 2000   1.657   6.579   6.327
   28CHL1    O3 2001   1.620   6.461   6.495
   28CHL1   H3' 2002   1.601   6.367   6.505
   28CHL1    C4 2003   1.501   6.433   6.293
   28CHL1   H4A 2004   1.477   6.332   6.332
   28CHL1   H4B 2005   1.425   6.506   6.330
   28CHL1    C5 2006   1.500   6.433   6.143
   28CHL1    C6 2007   1.418   6.522   6.079
   28CHL1    H6 2008   1.356   6.588   6.141
   28CHL1    C7 2009   1.399   6.527   5.933
   28CHL1   H7A 2010   1.291   6.533   5.911
   28CHL1   H7B 2011   1.438   6.625   5.898
   28CHL1    C8 2012   1.483   6.415   5.847
   28CHL1    H8 2013   1.424   6.322   5.851
   28CHL1   C14 2014   1.509   6.453   5.700
   28CHL1   H14 2015   1.573   6.543   5.709
   28CHL1   C15 2016   1.394   6.496   5.608
   28CHL1  H15A 2017   1.307   6.433   5.635
   28CHL1  H15B 2018   1.381   6.606   5.618
   28CHL1   C16 2019   1.433   6.466   5.456
   28CHL1  H16A 2020   1.365   6.392   5.408
   28CHL1  H16B 2021   1.426   6.555   5.391
   28CHL1   C17 2022   1.585   6.409   5.475
   28CHL1   H17 2023   1.654   6.495   5.477
   28CHL1   C13 2024   1.586   6.350   5.616
   28CHL1   C18 2025   1.519   6.213   5.611
   28CHL1  H18A 2026   1.409   6.221   5.605
   28CHL1  H18B 2027   1.553   6.148   5.528
   28CHL1  H18C 2028   1.540   6.152   5.702
   28CHL1   C12 2029   1.730   6.345   5.674
   28CHL1  H12A 2030   1.791   6.259   5.638
   28CHL1  H12B 2031   1.780   6.442   5.653
   28CHL1   C11 2032   1.729   6.312   5.833
   28CHL1  H11A 2033   1.704   6.207   5.859
   28CHL1  H11B 2034   1.831   6.333   5.871
   28CHL1    C9 2035   1.618   6.397   5.919
   28CHL1    H9 2036   1.667   6.498   5.922
   28CHL1   C10 2037   1.607   6.358   6.070
   28CHL1   C19 2038   1.571   6.205   6.081
   28CHL1  H19A 2039   1.657   6.136   6.062
   28CHL1  H19B 2040   1.538   6.189   6.186
   28CHL1  H19C 2041   1.483   6.170   6.024
   28CHL1    C1 2042   1.738   6.385   6.138
   28CHL1   H1A 2043   1.812   6.314   6.096
   28CHL1   H1B 2044   1.768   6.485   6.101
   28CHL1    C2 2045   1.740   6.379   6.293
   28CHL1   H2A 2046   1.837   6.400   6.343
   28CHL1   H2B 2047   1.716   6.277   6.332
   28CHL1   C20 2048   1.624   6.324   5.352
   28CHL1   H20 2049   1.547   6.244   5.348
   28CHL1   C21 2050   1.771   6.264   5.376
   28CHL1  H21A 2051   1.805   6.252   5.270
   28CHL1  H21B 2052   1.777   6.169   5.433
   28CHL1  H21C 2053   1.846   6.332   5.421
   28CHL1   C22 2054   1.629   6.413   5.221
   28CHL1  H22A 2055   1.535   6.472   5.218
   28CHL1  H22B 2056   1.719   6.476   5.237
   28CHL1   C23 2057   1.638   6.333   5.092
   28CHL1  H23A 2058   1.687   6.234   5.100
   28CHL1  H23B 2059   1.532   6.319   5.061
   28CHL1   C24 2060   1.711   6.424   4.993
   28CHL1  H24A 2061   1.662   6.524   4.994
   28CHL1  H24B 2062   1.812   6.438   5.037
   28CHL1   C25 2063   1.712   6.386   4.842
   28CHL1   H25 2064   1.604   6.397   4.818
   28CHL1   C26 2065   1.805   6.472   4.754
   28CHL1  H26A 2066   1.754   6.570   4.743
   28CHL1  H26B 2067   1.910   6.480   4.789
   28CHL1  H26C 2068   1.811   6.424   4.654
   28CHL1   C27 2069   1.754   6.238   4.834
   28CHL1  H27A 2070   1.683   6.161   4.870
   28CHL1  H27B 2071   1.786   6.208   4.732
   28CHL1  H27C 2072   1.846   6.220   4.894
   29CHL1    C3 2073   1.362   3.056   2.619
   29CHL1    H3 2074   1.260   3.029   2.585
   29CHL1    O3 2075   1.435   3.074   2.502
   29CHL1   H3' 2076   1.528   3.090   2.523
   29CHL1    C4 2077   1.375   3.189   2.698
   29CHL1   H4A 2078   1.485   3.205   2.697
   29CHL1   H4B 2079   1.338   3.272   2.633
   29CHL1    C5 2080   1.315   3.176   2.833
   29CHL1    C6 2081   1.222   3.266   2.877
   29CHL1    H6 2082   1.187   3.352   2.818
   29CHL1    C7 2083   1.161   3.260   3.014
   29CHL1   H7A 2084   1.153   3.364   3.051
   29CHL1   H7B 2085   1.056   3.225   3.009
   29CHL1    C8 2086   1.247   3.190   3.120
   29CHL1    H8 2087   1.345   3.240   3.131
   29CHL1   C14 2088   1.167   3.176   3.246
   29CHL1   H14 2089   1.076   3.114   3.228
   29CHL1   C15 2090   1.108   3.302   3.309
   29CHL1  H15A 2091   1.172   3.393   3.300
   29CHL1  H15B 2092   1.006   3.321   3.270
   29CHL1   C16 2093   1.102   3.271   3.464
   29CHL1  H16A 2094   1.158   3.340   3.530
   29CHL1  H16B 2095   0.997   3.278   3.499
   29CHL1   C17 2096   1.148   3.120   3.479
   29CHL1   H17 2097   1.060   3.053   3.464
   29CHL1   C13 2098   1.244   3.092   3.355
   29CHL1   C18 2099   1.384   3.156   3.397
   29CHL1  H18A 2100   1.438   3.087   3.465
   29CHL1  H18B 2101   1.442   3.168   3.303
   29CHL1  H18C 2102   1.371   3.260   3.432
   29CHL1   C12 2103   1.261   2.951   3.296
   29CHL1  H12A 2104   1.290   2.878   3.375
   29CHL1  H12B 2105   1.158   2.918   3.269
   29CHL1   C11 2106   1.340   2.950   3.164
   29CHL1  H11A 2107   1.448   2.973   3.179
   29CHL1  H11B 2108   1.326   2.852   3.115
   29CHL1    C9 2109   1.290   3.052   3.062
   29CHL1    H9 2110   1.191   3.011   3.031
   29CHL1   C10 2111   1.375   3.065   2.929
   29CHL1   C19 2112   1.527   3.090   2.959
   29CHL1  H19A 2113   1.537   3.174   3.032
   29CHL1  H19B 2114   1.566   2.994   2.998
   29CHL1  H19C 2115   1.596   3.117   2.876
   29CHL1    C1 2116   1.358   2.937   2.843
   29CHL1   H1A 2117   1.402   2.858   2.909
   29CHL1   H1B 2118   1.249   2.917   2.834
   29CHL1    C2 2119   1.424   2.940   2.701
   29CHL1   H2A 2120   1.398   2.852   2.639
   29CHL1   H2B 2121   1.534   2.951   2.709
   29CHL1   C20 2122   1.202   3.100   3.627
   29CHL1   H20 2123   1.297   3.157   3.637
   29CHL1   C21 2124   1.240   2.956   3.653
   29CHL1  H21A 2125   1.279   2.941   3.756
   29CHL1  H21B 2126   1.315   2.928   3.576
   29CHL1  H21C 2127   1.152   2.888   3.640
   29CHL1   C22 2128   1.116   3.153   3.735
   29CHL1  H22A 2129   1.070   3.253   3.721
   29CHL1  H22B 2130   1.028   3.084   3.735
   29CHL1   C23 2131   1.178   3.148   3.873
   29CHL1  H23A 2132   1.181   3.043   3.908
   29CHL1  H23B 2133   1.286   3.172   3.877
   29CHL1   C24 2134   1.112   3.236   3.978
   29CHL1  H24A 2135   1.108   3.340   3.940
   29CHL1  H24B 2136   1.010   3.195   3.994
   29CHL1   C25 2137   1.194   3.234   4.106
   29CHL1   H25 2138   1.287   3.292   4.087
   29CHL1   C26 2139   1.121   3.312   4.215
   29CHL1  H26A 2140   1.193   3.374   4.273
   29CHL1  H26B 2141   1.042   3.374   4.167
   29CHL1  H26C 2142   1.063   3.248   4.283
   29CHL1   C27 2143   1.216   3.093   4.156
   29CHL1  H27A 2144   1.271   3.088   4.253
   29CHL1  H27B 2145   1.118   3.042   4.160
   29CHL1  H27C 2146   1.276   3.034   4.084
   30CHL1    C3 2147   2.919   5.190   2.447
   30CHL1    H3 2148   2.886   5.085   2.461
   30CHL1    O3 2149   2.855   5.223   2.324
   30CHL1   H3' 2150   2.764   5.217   2.355
   30CHL1    C4 2151   2.851   5.271   2.563
   30CHL1   H4A 2152   2.867   5.375   2.528
   30CHL1   H4B 2153   2.742   5.252   2.571
   30CHL1    C5 2154   2.926   5.248   2.694
   30CHL1    C6 2155   2.865   5.211   2.803
   30CHL1    H6 2156   2.756   5.197   2.800
   30CHL1    C7 2157   2.929   5.169   2.935
   30CHL1   H7A 2158   2.865   5.204   3.019
   30CHL1   H7B 2159   2.925   5.058   2.941
   30CHL1    C8 2160   3.074   5.211   2.939
   30CHL1    H8 2161   3.079   5.320   2.960
   30CHL1   C14 2162   3.147   5.130   3.052
   30CHL1   H14 2163   3.154   5.025   3.015
   30CHL1   C15 2164   3.088   5.130   3.194
   30CHL1  H15A 2165   3.046   5.231   3.216
   30CHL1  H15B 2166   3.005   5.057   3.189
   30CHL1   C16 2167   3.202   5.079   3.279
   30CHL1  H16A 2168   3.224   5.141   3.368
   30CHL1  H16B 2169   3.177   4.977   3.316
   30CHL1   C17 2170   3.333   5.081   3.192
   30CHL1   H17 2171   3.336   4.976   3.156
   30CHL1   C13 2172   3.294   5.165   3.064
   30CHL1   C18 2173   3.315   5.307   3.101
   30CHL1  H18A 2174   3.412   5.333   3.148
   30CHL1  H18B 2175   3.316   5.370   3.010
   30CHL1  H18C 2176   3.236   5.346   3.169
   30CHL1   C12 2177   3.367   5.120   2.934
   30CHL1  H12A 2178   3.473   5.154   2.934
   30CHL1  H12B 2179   3.361   5.010   2.929
   30CHL1   C11 2180   3.309   5.190   2.815
   30CHL1  H11A 2181   3.337   5.298   2.823
   30CHL1  H11B 2182   3.356   5.146   2.724
   30CHL1    C9 2183   3.154   5.180   2.810
   30CHL1    H9 2184   3.152   5.070   2.803
   30CHL1   C10 2185   3.082   5.241   2.683
   30CHL1   C19 2186   3.120   5.393   2.675
   30CHL1  H19A 2187   3.078   5.453   2.759
   30CHL1  H19B 2188   3.230   5.409   2.667
   30CHL1  H19C 2189   3.073   5.437   2.585
   30CHL1    C1 2190   3.133   5.166   2.558
   30CHL1   H1A 2191   3.243   5.156   2.551
   30CHL1   H1B 2192   3.094   5.063   2.569
   30CHL1    C2 2193   3.064   5.200   2.426
   30CHL1   H2A 2194   3.089   5.127   2.346
   30CHL1   H2B 2195   3.092   5.303   2.397
   30CHL1   C20 2196   3.460   5.105   3.280
   30CHL1   H20 2197   3.442   5.199   3.336
   30CHL1   C21 2198   3.588   5.123   3.190
   30CHL1  H21A 2199   3.580   5.197   3.108
   30CHL1  H21B 2200   3.614   5.024   3.147
   30CHL1  H21C 2201   3.680   5.151   3.247
   30CHL1   C22 2202   3.483   4.991   3.385
   30CHL1  H22A 2203   3.384   4.962   3.427
   30CHL1  H22B 2204   3.518   4.907   3.322
   30CHL1   C23 2205   3.575   5.016   3.498
   30CHL1  H23A 2206   3.677   5.037   3.460
   30CHL1  H23B 2207   3.544   5.099   3.565
   30CHL1   C24 2208   3.604   4.894   3.592
   30CHL1  H24A 2209   3.499   4.868   3.615
   30CHL1  H24B 2210   3.646   4.817   3.525
   30CHL1   C25 2211   3.698   4.931   3.710
   30CHL1   H25 2212   3.789   4.975   3.664
   30CHL1   C26 2213   3.636   5.026   3.814
   30CHL1  H26A 2214   3.634   5.128   3.771
   30CHL1  H26B 2215   3.537   4.990   3.850
   30CHL1  H26C 2216   3.709   5.027   3.897
   30CHL1   C27 2217   3.747   4.812   3.794
   30CHL1  H27A 2218   3.838   4.837   3.853
   30CHL1  H27B 2219   3.670   4.761   3.856
   30CHL1  H27C 2220   3.785   4.736   3.722
   31CHL1    C3 2221   3.815   5.850   2.555
   31CHL1    H3 2222   3.732   5.786   2.595
   31CHL1    O3 2223   3.817   5.845   2.416
   31CHL1   H3' 2224   3.836   5.937   2.399
   31CHL1    C4 2225   3.781   5.998   2.603
   31CHL1   H4A 2226   3.860   6.068   2.569
   31CHL1   H4B 2227   3.683   6.019   2.554
   31CHL1    C5 2228   3.775   6.006   2.754
   31CHL1    C6 2229   3.668   6.060   2.809
   31CHL1    H6 2230   3.578   6.098   2.758
   31CHL1    C7 2231   3.656   6.089   2.959
   31CHL1   H7A 2232   3.627   6.193   2.983
   31CHL1   H7B 2233   3.579   6.017   2.996
   31CHL1    C8 2234   3.786   6.059   3.041
   31CHL1    H8 2235   3.855   6.145   3.041
   31CHL1   C14 2236   3.755   6.024   3.188
   31CHL1   H14 2237   3.698   5.928   3.182
   31CHL1   C15 2238   3.658   6.112   3.266
   31CHL1  H15A 2239   3.693   6.217   3.260
   31CHL1  H15B 2240   3.551   6.107   3.236
   31CHL1   C16 2241   3.671   6.055   3.403
   31CHL1  H16A 2242   3.690   6.134   3.480
   31CHL1  H16B 2243   3.582   5.998   3.438
   31CHL1   C17 2244   3.796   5.956   3.398
   31CHL1   H17 2245   3.763   5.853   3.374
   31CHL1   C13 2246   3.877   5.988   3.271
   31CHL1   C18 2247   3.966   6.111   3.290
   31CHL1  H18A 2248   3.891   6.190   3.317
   31CHL1  H18B 2249   4.032   6.086   3.375
   31CHL1  H18C 2250   4.035   6.152   3.213
   31CHL1   C12 2251   3.956   5.865   3.217
   31CHL1  H12A 2252   4.048   5.842   3.275
   31CHL1  H12B 2253   3.899   5.769   3.224
   31CHL1   C11 2254   3.989   5.894   3.070
   31CHL1  H11A 2255   4.072   5.968   3.076
   31CHL1  H11B 2256   4.040   5.808   3.021
   31CHL1    C9 2257   3.864   5.937   2.983
   31CHL1    H9 2258   3.790   5.855   2.979
   31CHL1   C10 2259   3.894   5.956   2.832
   31CHL1   C19 2260   4.010   6.055   2.819
   31CHL1  H19A 2261   3.979   6.159   2.845
   31CHL1  H19B 2262   4.100   6.039   2.882
   31CHL1  H19C 2263   4.046   6.061   2.714
   31CHL1    C1 2264   3.938   5.822   2.768
   31CHL1   H1A 2265   4.040   5.794   2.803
   31CHL1   H1B 2266   3.863   5.748   2.803
   31CHL1    C2 2267   3.945   5.806   2.614
   31CHL1   H2A 2268   3.953   5.701   2.579
   31CHL1   H2B 2269   4.022   5.869   2.566
   31CHL1   C20 2270   3.864   5.945   3.536
   31CHL1   H20 2271   3.912   6.041   3.565
   31CHL1   C21 2272   3.980   5.837   3.555
   31CHL1  H21A 2273   3.935   5.745   3.513
   31CHL1  H21B 2274   4.026   5.838   3.656
   31CHL1  H21C 2275   4.065   5.860   3.488
   31CHL1   C22 2276   3.754   5.919   3.648
   31CHL1  H22A 2277   3.666   5.988   3.642
   31CHL1  H22B 2278   3.711   5.819   3.623
   31CHL1   C23 2279   3.818   5.926   3.794
   31CHL1  H23A 2280   3.903   5.857   3.813
   31CHL1  H23B 2281   3.856   6.030   3.787
   31CHL1   C24 2282   3.726   5.897   3.907
   31CHL1  H24A 2283   3.630   5.950   3.893
   31CHL1  H24B 2284   3.709   5.787   3.901
   31CHL1   C25 2285   3.788   5.938   4.048
   31CHL1   H25 2286   3.711   5.892   4.115
   31CHL1   C26 2287   3.923   5.873   4.072
   31CHL1  H26A 2288   3.912   5.763   4.068
   31CHL1  H26B 2289   3.997   5.895   3.992
   31CHL1  H26C 2290   3.969   5.893   4.171
   31CHL1   C27 2291   3.789   6.094   4.071
   31CHL1  H27A 2292   3.853   6.135   3.990
   31CHL1  H27B 2293   3.685   6.131   4.063
   31CHL1  H27C 2294   3.831   6.113   4.172
   32CHL1    C3 2295   1.355   3.768   2.836
   32CHL1    H3 2296   1.248   3.797   2.847
   32CHL1    O3 2297   1.381   3.773   2.695
   32CHL1   H3' 2298   1.448   3.705   2.686
   32CHL1    C4 2299   1.451   3.867   2.913
   32CHL1   H4A 2300   1.555   3.845   2.881
   32CHL1   H4B 2301   1.419   3.972   2.894
   32CHL1    C5 2302   1.446   3.850   3.069
   32CHL1    C6 2303   1.422   3.961   3.142
   32CHL1    H6 2304   1.415   4.059   3.094
   32CHL1    C7 2305   1.412   3.967   3.296
   32CHL1   H7A 2306   1.458   4.058   3.340
   32CHL1   H7B 2307   1.303   3.973   3.317
   32CHL1    C8 2308   1.446   3.828   3.354
   32CHL1    H8 2309   1.557   3.825   3.358
   32CHL1   C14 2310   1.382   3.817   3.491
   32CHL1   H14 2311   1.272   3.807   3.479
   32CHL1   C15 2312   1.405   3.937   3.587
   32CHL1  H15A 2313   1.513   3.964   3.598
   32CHL1  H15B 2314   1.346   4.025   3.553
   32CHL1   C16 2315   1.353   3.886   3.726
   32CHL1  H16A 2316   1.410   3.914   3.817
   32CHL1  H16B 2317   1.247   3.917   3.740
   32CHL1   C17 2318   1.343   3.729   3.711
   32CHL1   H17 2319   1.237   3.701   3.695
   32CHL1   C13 2320   1.415   3.696   3.581
   32CHL1   C18 2321   1.569   3.679   3.605
   32CHL1  H18A 2322   1.594   3.604   3.683
   32CHL1  H18B 2323   1.637   3.667   3.518
   32CHL1  H18C 2324   1.606   3.768   3.660
   32CHL1   C12 2325   1.362   3.571   3.497
   32CHL1  H12A 2326   1.382   3.474   3.548
   32CHL1  H12B 2327   1.253   3.590   3.486
   32CHL1   C11 2328   1.416   3.573   3.347
   32CHL1  H11A 2329   1.522   3.543   3.363
   32CHL1  H11B 2330   1.374   3.490   3.286
   32CHL1    C9 2331   1.396   3.705   3.273
   32CHL1    H9 2332   1.286   3.720   3.267
   32CHL1   C10 2333   1.441   3.705   3.124
   32CHL1   C19 2334   1.589   3.654   3.100
   32CHL1  H19A 2335   1.598   3.557   3.153
   32CHL1  H19B 2336   1.621   3.653   2.993
   32CHL1  H19C 2337   1.662   3.729   3.138
   32CHL1    C1 2338   1.335   3.628   3.036
   32CHL1   H1A 2339   1.335   3.522   3.067
   32CHL1   H1B 2340   1.230   3.661   3.054
   32CHL1    C2 2341   1.373   3.625   2.887
   32CHL1   H2A 2342   1.304   3.562   2.825
   32CHL1   H2B 2343   1.470   3.576   2.864
   32CHL1   C20 2344   1.368   3.642   3.829
   32CHL1   H20 2345   1.384   3.537   3.796
   32CHL1   C21 2346   1.240   3.645   3.916
   32CHL1  H21A 2347   1.159   3.592   3.862
   32CHL1  H21B 2348   1.199   3.747   3.935
   32CHL1  H21C 2349   1.263   3.594   4.012
   32CHL1   C22 2350   1.495   3.679   3.921
   32CHL1  H22A 2351   1.573   3.747   3.879
   32CHL1  H22B 2352   1.462   3.744   4.005
   32CHL1   C23 2353   1.564   3.554   3.977
   32CHL1  H23A 2354   1.488   3.474   3.988
   32CHL1  H23B 2355   1.637   3.510   3.907
   32CHL1   C24 2356   1.618   3.578   4.119
   32CHL1  H24A 2357   1.685   3.666   4.123
   32CHL1  H24B 2358   1.536   3.580   4.194
   32CHL1   C25 2359   1.712   3.468   4.170
   32CHL1   H25 2360   1.775   3.445   4.082
   32CHL1   C26 2361   1.807   3.492   4.282
   32CHL1  H26A 2362   1.757   3.479   4.381
   32CHL1  H26B 2363   1.878   3.407   4.279
   32CHL1  H26C 2364   1.863   3.588   4.290
   32CHL1   C27 2365   1.626   3.346   4.214
   32CHL1  H27A 2366   1.679   3.260   4.261
   32CHL1  H27B 2367   1.552   3.385   4.287
   32CHL1  H27C 2368   1.571   3.292   4.135
   33CHL1    C3 2369   6.624   4.081   2.736
   33CHL1    H3 2370   6.615   4.189   2.758
   33CHL1    O3 2371   6.617   4.056   2.600
   33CHL1   H3' 2372   6.631   3.961   2.596
   33CHL1    C4 2373   6.758   4.036   2.788
   33CHL1   H4A 2374   6.774   3.930   2.760
   33CHL1   H4B 2375   6.831   4.090   2.723
   33CHL1    C5 2376   6.768   4.063   2.937
   33CHL1    C6 2377   6.863   4.141   2.991
   33CHL1    H6 2378   6.940   4.188   2.928
   33CHL1    C7 2379   6.883   4.160   3.138
   33CHL1   H7A 2380   6.983   4.125   3.171
   33CHL1   H7B 2381   6.872   4.269   3.157
   33CHL1    C8 2382   6.788   4.071   3.223
   33CHL1    H8 2383   6.836   3.971   3.212
   33CHL1   C14 2384   6.779   4.108   3.368
   33CHL1   H14 2385   6.721   4.202   3.366
   33CHL1   C15 2386   6.907   4.152   3.450
   33CHL1  H15A 2387   6.993   4.084   3.437
   33CHL1  H15B 2388   6.947   4.251   3.417
   33CHL1   C16 2389   6.847   4.165   3.591
   33CHL1  H16A 2390   6.923   4.136   3.667
   33CHL1  H16B 2391   6.821   4.271   3.612
   33CHL1   C17 2392   6.714   4.077   3.593
   33CHL1   H17 2393   6.636   4.156   3.600
   33CHL1   C13 2394   6.703   4.018   3.453
   33CHL1   C18 2395   6.759   3.873   3.452
   33CHL1  H18A 2396   6.854   3.867   3.509
   33CHL1  H18B 2397   6.692   3.800   3.502
   33CHL1  H18C 2398   6.774   3.839   3.347
   33CHL1   C12 2399   6.554   4.029   3.405
   33CHL1  H12A 2400   6.497   3.956   3.466
   33CHL1  H12B 2401   6.511   4.130   3.422
   33CHL1   C11 2402   6.549   3.984   3.260
   33CHL1  H11A 2403   6.573   3.876   3.269
   33CHL1  H11B 2404   6.445   3.993   3.221
   33CHL1    C9 2405   6.646   4.056   3.168
   33CHL1    H9 2406   6.599   4.156   3.161
   33CHL1   C10 2407   6.650   4.004   3.022
   33CHL1   C19 2408   6.675   3.857   3.018
   33CHL1  H19A 2409   6.661   3.806   2.920
   33CHL1  H19B 2410   6.776   3.838   3.060
   33CHL1  H19C 2411   6.603   3.802   3.083
   33CHL1    C1 2412   6.514   4.036   2.965
   33CHL1   H1A 2413   6.440   3.972   3.018
   33CHL1   H1B 2414   6.485   4.142   2.984
   33CHL1    C2 2415   6.510   4.010   2.805
   33CHL1   H2A 2416   6.408   4.042   2.776
   33CHL1   H2B 2417   6.515   3.899   2.793
   33CHL1   C20 2418   6.695   4.005   3.729
   33CHL1   H20 2419   6.761   3.916   3.734
   33CHL1   C21 2420   6.552   3.946   3.727
   33CHL1  H21A 2421   6.543   3.874   3.643
   33CHL1  H21B 2422   6.480   4.027   3.703
   33CHL1  H21C 2423   6.532   3.905   3.828
   33CHL1   C22 2424   6.725   4.097   3.850
   33CHL1  H22A 2425   6.829   4.134   3.847
   33CHL1  H22B 2426   6.670   4.193   3.837
   33CHL1   C23 2427   6.693   4.042   3.985
   33CHL1  H23A 2428   6.588   4.007   4.000
   33CHL1  H23B 2429   6.759   3.956   4.005
   33CHL1   C24 2430   6.722   4.153   4.089
   33CHL1  H24A 2431   6.831   4.171   4.097
   33CHL1  H24B 2432   6.678   4.249   4.054
   33CHL1   C25 2433   6.666   4.131   4.227
   33CHL1   H25 2434   6.562   4.092   4.222
   33CHL1   C26 2435   6.742   4.010   4.295
   33CHL1  H26A 2436   6.742   3.919   4.231
   33CHL1  H26B 2437   6.852   4.024   4.307
   33CHL1  H26C 2438   6.689   3.974   4.386
   33CHL1   C27 2439   6.683   4.258   4.309
   33CHL1  H27A 2440   6.790   4.285   4.321
   33CHL1  H27B 2441   6.622   4.343   4.271
   33CHL1  H27C 2442   6.646   4.227   4.409
   34CHL1    C3 2443   4.451   5.903   2.580
   34CHL1    H3 2444   4.505   5.999   2.598
   34CHL1    O3 2445   4.413   5.884   2.446
   34CHL1   H3' 2446   4.414   5.973   2.411
   34CHL1    C4 2447   4.548   5.788   2.618
   34CHL1   H4A 2448   4.496   5.693   2.595
   34CHL1   H4B 2449   4.635   5.789   2.550
   34CHL1    C5 2450   4.590   5.787   2.762
   34CHL1    C6 2451   4.721   5.797   2.788
   34CHL1    H6 2452   4.790   5.786   2.704
   34CHL1    C7 2453   4.781   5.801   2.929
   34CHL1   H7A 2454   4.858   5.723   2.914
   34CHL1   H7B 2455   4.831   5.898   2.950
   34CHL1    C8 2456   4.675   5.758   3.034
   34CHL1    H8 2457   4.664   5.647   3.028
   34CHL1   C14 2458   4.723   5.805   3.179
   34CHL1   H14 2459   4.734   5.915   3.168
   34CHL1   C15 2460   4.857   5.743   3.224
   34CHL1  H15A 2461   4.854   5.637   3.192
   34CHL1  H15B 2462   4.947   5.796   3.187
   34CHL1   C16 2463   4.846   5.755   3.377
   34CHL1  H16A 2464   4.874   5.658   3.424
   34CHL1  H16B 2465   4.904   5.839   3.420
   34CHL1   C17 2466   4.702   5.795   3.419
   34CHL1   H17 2467   4.712   5.905   3.425
   34CHL1   C13 2468   4.618   5.767   3.291
   34CHL1   C18 2469   4.591   5.619   3.288
   34CHL1  H18A 2470   4.567   5.578   3.187
   34CHL1  H18B 2471   4.677   5.559   3.324
   34CHL1  H18C 2472   4.510   5.588   3.357
   34CHL1   C12 2473   4.494   5.854   3.258
   34CHL1  H12A 2474   4.408   5.862   3.328
   34CHL1  H12B 2475   4.544   5.952   3.254
   34CHL1   C11 2476   4.439   5.816   3.122
   34CHL1  H11A 2477   4.402   5.715   3.152
   34CHL1  H11B 2478   4.353   5.884   3.103
   34CHL1    C9 2479   4.537   5.825   3.007
   34CHL1    H9 2480   4.568   5.932   3.001
   34CHL1   C10 2481   4.480   5.786   2.866
   34CHL1   C19 2482   4.414   5.643   2.872
   34CHL1  H19A 2483   4.323   5.646   2.936
   34CHL1  H19B 2484   4.377   5.610   2.773
   34CHL1  H19C 2485   4.485   5.569   2.915
   34CHL1    C1 2486   4.375   5.895   2.820
   34CHL1   H1A 2487   4.281   5.897   2.879
   34CHL1   H1B 2488   4.432   5.989   2.834
   34CHL1    C2 2489   4.334   5.904   2.668
   34CHL1   H2A 2490   4.274   5.996   2.647
   34CHL1   H2B 2491   4.264   5.830   2.624
   34CHL1   C20 2492   4.657   5.740   3.550
   34CHL1   H20 2493   4.647   5.630   3.539
   34CHL1   C21 2494   4.524   5.799   3.582
   34CHL1  H21A 2495   4.527   5.910   3.592
   34CHL1  H21B 2496   4.498   5.773   3.686
   34CHL1  H21C 2497   4.445   5.760   3.513
   34CHL1   C22 2498   4.756   5.759   3.668
   34CHL1  H22A 2499   4.863   5.745   3.643
   34CHL1  H22B 2500   4.748   5.867   3.696
   34CHL1   C23 2501   4.727   5.663   3.787
   34CHL1  H23A 2502   4.620   5.667   3.817
   34CHL1  H23B 2503   4.746   5.554   3.772
   34CHL1   C24 2504   4.804   5.699   3.915
   34CHL1  H24A 2505   4.913   5.687   3.899
   34CHL1  H24B 2506   4.777   5.807   3.920
   34CHL1   C25 2507   4.765   5.621   4.042
   34CHL1   H25 2508   4.660   5.645   4.069
   34CHL1   C26 2509   4.766   5.470   4.022
   34CHL1  H26A 2510   4.867   5.440   3.986
   34CHL1  H26B 2511   4.739   5.408   4.109
   34CHL1  H26C 2512   4.688   5.440   3.949
   34CHL1   C27 2513   4.864   5.652   4.151
   34CHL1  H27A 2514   4.969   5.628   4.126
   34CHL1  H27B 2515   4.849   5.759   4.177
   34CHL1  H27C 2516   4.842   5.608   4.250
   35CHL1    C3 2517   0.838   5.547   3.315
   35CHL1    H3 2518   0.733   5.510   3.324
   35CHL1    O3 2519   0.881   5.540   3.178
   35CHL1   H3' 2520   0.814   5.591   3.132
   35CHL1    C4 2521   0.843   5.695   3.363
   35CHL1   H4A 2522   0.950   5.724   3.350
   35CHL1   H4B 2523   0.793   5.768   3.295
   35CHL1    C5 2524   0.797   5.713   3.510
   35CHL1    C6 2525   0.690   5.792   3.540
   35CHL1    H6 2526   0.643   5.851   3.461
   35CHL1    C7 2527   0.642   5.800   3.679
   35CHL1   H7A 2528   0.625   5.905   3.712
   35CHL1   H7B 2529   0.543   5.754   3.701
   35CHL1    C8 2530   0.746   5.746   3.785
   35CHL1    H8 2531   0.828   5.821   3.799
   35CHL1   C14 2532   0.681   5.734   3.924
   35CHL1   H14 2533   0.611   5.648   3.917
   35CHL1   C15 2534   0.604   5.855   3.968
   35CHL1  H15A 2535   0.672   5.943   3.965
   35CHL1  H15B 2536   0.517   5.879   3.903
   35CHL1   C16 2537   0.578   5.820   4.116
   35CHL1  H16A 2538   0.589   5.907   4.185
   35CHL1  H16B 2539   0.476   5.776   4.124
   35CHL1   C17 2540   0.677   5.707   4.153
   35CHL1   H17 2541   0.623   5.609   4.152
   35CHL1   C13 2542   0.775   5.710   4.040
   35CHL1   C18 2543   0.881   5.818   4.062
   35CHL1  H18A 2544   0.920   5.848   3.963
   35CHL1  H18B 2545   0.837   5.908   4.110
   35CHL1  H18C 2546   0.968   5.785   4.123
   35CHL1   C12 2547   0.844   5.573   4.005
   35CHL1  H12A 2548   0.918   5.548   4.084
   35CHL1  H12B 2549   0.767   5.494   3.992
   35CHL1   C11 2550   0.910   5.574   3.865
   35CHL1  H11A 2551   0.990   5.649   3.879
   35CHL1  H11B 2552   0.964   5.482   3.834
   35CHL1    C9 2553   0.821   5.617   3.749
   35CHL1    H9 2554   0.741   5.540   3.744
   35CHL1   C10 2555   0.881   5.617   3.606
   35CHL1   C19 2556   1.026   5.673   3.615
   35CHL1  H19A 2557   1.024   5.776   3.658
   35CHL1  H19B 2558   1.080   5.602   3.680
   35CHL1  H19C 2559   1.068   5.669   3.512
   35CHL1    C1 2560   0.897   5.474   3.545
   35CHL1   H1A 2561   0.975   5.416   3.599
   35CHL1   H1B 2562   0.794   5.435   3.561
   35CHL1    C2 2563   0.932   5.458   3.397
   35CHL1   H2A 2564   0.925   5.348   3.382
   35CHL1   H2B 2565   1.035   5.497   3.384
   35CHL1   C20 2566   0.708   5.723   4.299
   35CHL1   H20 2567   0.756   5.823   4.304
   35CHL1   C21 2568   0.827   5.633   4.338
   35CHL1  H21A 2569   0.849   5.662   4.443
   35CHL1  H21B 2570   0.918   5.652   4.278
   35CHL1  H21C 2571   0.800   5.526   4.345
   35CHL1   C22 2572   0.594   5.702   4.396
   35CHL1  H22A 2573   0.512   5.775   4.375
   35CHL1  H22B 2574   0.542   5.605   4.383
   35CHL1   C23 2575   0.628   5.707   4.549
   35CHL1  H23A 2576   0.541   5.664   4.603
   35CHL1  H23B 2577   0.712   5.638   4.571
   35CHL1   C24 2578   0.649   5.853   4.587
   35CHL1  H24A 2579   0.715   5.907   4.517
   35CHL1  H24B 2580   0.556   5.911   4.569
   35CHL1   C25 2581   0.675   5.879   4.739
   35CHL1   H25 2582   0.742   5.799   4.775
   35CHL1   C26 2583   0.744   6.013   4.770
   35CHL1  H26A 2584   0.688   6.107   4.752
   35CHL1  H26B 2585   0.760   6.031   4.879
   35CHL1  H26C 2586   0.838   6.024   4.712
   35CHL1   C27 2587   0.548   5.854   4.809
   35CHL1  H27A 2588   0.510   5.751   4.796
   35CHL1  H27B 2589   0.555   5.867   4.919
   35CHL1  H27C 2590   0.466   5.919   4.772
   36CHL1    C3 2591   2.584   1.655   2.748
   36CHL1    H3 2592   2.474   1.665   2.748
   36CHL1    O3 2593   2.622   1.596   2.622
   36CHL1   H3' 2594   2.660   1.511   2.643
   36CHL1    C4 2595   2.649   1.792   2.748
   36CHL1   H4A 2596   2.757   1.774   2.728
   36CHL1   H4B 2597   2.601   1.844   2.663
   36CHL1    C5 2598   2.638   1.867   2.880
   36CHL1    C6 2599   2.575   1.982   2.878
   36CHL1    H6 2600   2.547   2.029   2.782
   36CHL1    C7 2601   2.551   2.071   2.996
   36CHL1   H7A 2602   2.588   2.175   2.982
   36CHL1   H7B 2603   2.447   2.059   3.035
   36CHL1    C8 2604   2.647   2.016   3.111
   36CHL1    H8 2605   2.749   2.051   3.086
   36CHL1   C14 2606   2.608   2.072   3.248
   36CHL1   H14 2607   2.502   2.041   3.260
   36CHL1   C15 2608   2.613   2.225   3.251
   36CHL1  H15A 2609   2.693   2.271   3.189
   36CHL1  H15B 2610   2.517   2.257   3.206
   36CHL1   C16 2611   2.634   2.261   3.395
   36CHL1  H16A 2612   2.721   2.330   3.402
   36CHL1  H16B 2613   2.545   2.324   3.417
   36CHL1   C17 2614   2.635   2.124   3.472
   36CHL1   H17 2615   2.529   2.090   3.482
   36CHL1   C13 2616   2.688   2.021   3.369
   36CHL1   C18 2617   2.840   2.038   3.357
   36CHL1  H18A 2618   2.877   1.968   3.279
   36CHL1  H18B 2619   2.867   2.143   3.332
   36CHL1  H18C 2620   2.894   2.014   3.451
   36CHL1   C12 2621   2.638   1.877   3.405
   36CHL1  H12A 2622   2.686   1.818   3.486
   36CHL1  H12B 2623   2.528   1.874   3.413
   36CHL1   C11 2624   2.683   1.799   3.267
   36CHL1  H11A 2625   2.792   1.781   3.268
   36CHL1  H11B 2626   2.635   1.699   3.275
   36CHL1    C9 2627   2.637   1.864   3.123
   36CHL1    H9 2628   2.526   1.856   3.134
   36CHL1   C10 2629   2.687   1.791   3.004
   36CHL1   C19 2630   2.839   1.798   2.995
   36CHL1  H19A 2631   2.892   1.731   3.065
   36CHL1  H19B 2632   2.873   1.753   2.899
   36CHL1  H19C 2633   2.878   1.902   3.001
   36CHL1    C1 2634   2.629   1.650   3.001
   36CHL1   H1A 2635   2.676   1.588   3.081
   36CHL1   H1B 2636   2.521   1.657   3.027
   36CHL1    C2 2637   2.634   1.574   2.860
   36CHL1   H2A 2638   2.583   1.476   2.863
   36CHL1   H2B 2639   2.743   1.560   2.842
   36CHL1   C20 2640   2.690   2.143   3.608
   36CHL1   H20 2641   2.736   2.046   3.637
   36CHL1   C21 2642   2.567   2.163   3.706
   36CHL1  H21A 2643   2.494   2.082   3.687
   36CHL1  H21B 2644   2.524   2.261   3.676
   36CHL1  H21C 2645   2.604   2.165   3.811
   36CHL1   C22 2646   2.803   2.250   3.626
   36CHL1  H22A 2647   2.872   2.250   3.539
   36CHL1  H22B 2648   2.766   2.354   3.635
   36CHL1   C23 2649   2.883   2.239   3.757
   36CHL1  H23A 2650   2.825   2.276   3.845
   36CHL1  H23B 2651   2.899   2.130   3.768
   36CHL1   C24 2652   3.012   2.309   3.747
   36CHL1  H24A 2653   3.062   2.266   3.658
   36CHL1  H24B 2654   2.987   2.414   3.718
   36CHL1   C25 2655   3.107   2.318   3.867
   36CHL1   H25 2656   3.053   2.344   3.961
   36CHL1   C26 2657   3.174   2.181   3.895
   36CHL1  H26A 2658   3.101   2.097   3.895
   36CHL1  H26B 2659   3.244   2.168   3.809
   36CHL1  H26C 2660   3.231   2.200   3.988
   36CHL1   C27 2661   3.222   2.424   3.851
   36CHL1  H27A 2662   3.179   2.516   3.807
   36CHL1  H27B 2663   3.280   2.462   3.938
   36CHL1  H27C 2664   3.300   2.382   3.784
   37CHL1    C3 2665   6.252   5.295   3.157
   37CHL1    H3 2666   6.203   5.196   3.148
   37CHL1    O3 2667   6.291   5.353   3.030
   37CHL1   H3' 2668   6.304   5.446   3.051
   37CHL1    C4 2669   6.144   5.399   3.208
   37CHL1   H4A 2670   6.196   5.497   3.207
   37CHL1   H4B 2671   6.064   5.412   3.132
   37CHL1    C5 2672   6.085   5.363   3.345
   37CHL1    C6 2673   5.950   5.345   3.365
   37CHL1    H6 2674   5.880   5.352   3.280
   37CHL1    C7 2675   5.880   5.315   3.494
   37CHL1   H7A 2676   5.798   5.387   3.513
   37CHL1   H7B 2677   5.829   5.216   3.492
   37CHL1    C8 2678   5.987   5.310   3.608
   37CHL1    H8 2679   6.004   5.415   3.639
   37CHL1   C14 2680   5.942   5.212   3.716
   37CHL1   H14 2681   5.952   5.107   3.682
   37CHL1   C15 2682   5.791   5.212   3.762
   37CHL1  H15A 2683   5.761   5.317   3.784
   37CHL1  H15B 2684   5.727   5.160   3.686
   37CHL1   C16 2685   5.805   5.142   3.898
   37CHL1  H16A 2686   5.750   5.210   3.966
   37CHL1  H16B 2687   5.757   5.042   3.887
   37CHL1   C17 2688   5.956   5.121   3.931
   37CHL1   H17 2689   5.985   5.017   3.906
   37CHL1   C13 2690   6.028   5.222   3.838
   37CHL1   C18 2691   6.019   5.366   3.896
   37CHL1  H18A 2692   6.076   5.369   3.992
   37CHL1  H18B 2693   6.067   5.446   3.837
   37CHL1  H18C 2694   5.913   5.397   3.909
   37CHL1   C12 2695   6.169   5.178   3.802
   37CHL1  H12A 2696   6.240   5.194   3.886
   37CHL1  H12B 2697   6.171   5.068   3.785
   37CHL1   C11 2698   6.221   5.251   3.685
   37CHL1  H11A 2699   6.230   5.358   3.712
   37CHL1  H11B 2700   6.322   5.209   3.663
   37CHL1    C9 2701   6.129   5.261   3.563
   37CHL1    H9 2702   6.116   5.159   3.521
   37CHL1   C10 2703   6.190   5.339   3.450
   37CHL1   C19 2704   6.235   5.484   3.486
   37CHL1  H19A 2705   6.283   5.547   3.409
   37CHL1  H19B 2706   6.151   5.542   3.531
   37CHL1  H19C 2707   6.309   5.469   3.568
   37CHL1    C1 2708   6.314   5.257   3.397
   37CHL1   H1A 2709   6.393   5.273   3.473
   37CHL1   H1B 2710   6.287   5.149   3.398
   37CHL1    C2 2711   6.372   5.296   3.252
   37CHL1   H2A 2712   6.455   5.229   3.219
   37CHL1   H2B 2713   6.400   5.403   3.259
   37CHL1   C20 2714   5.975   5.135   4.083
   37CHL1   H20 2715   5.968   5.235   4.130
   37CHL1   C21 2716   6.118   5.080   4.112
   37CHL1  H21A 2717   6.193   5.145   4.064
   37CHL1  H21B 2718   6.135   4.977   4.073
   37CHL1  H21C 2719   6.136   5.081   4.222
   37CHL1   C22 2720   5.878   5.040   4.155
   37CHL1  H22A 2721   5.772   5.059   4.128
   37CHL1  H22B 2722   5.895   4.935   4.123
   37CHL1   C23 2723   5.882   5.040   4.312
   37CHL1  H23A 2724   5.977   4.988   4.336
   37CHL1  H23B 2725   5.887   5.145   4.349
   37CHL1   C24 2726   5.759   4.980   4.369
   37CHL1  H24A 2727   5.672   5.032   4.322
   37CHL1  H24B 2728   5.758   4.879   4.322
   37CHL1   C25 2729   5.752   4.983   4.525
   37CHL1   H25 2730   5.730   5.090   4.543
   37CHL1   C26 2731   5.641   4.894   4.580
   37CHL1  H26A 2732   5.542   4.924   4.538
   37CHL1  H26B 2733   5.678   4.794   4.550
   37CHL1  H26C 2734   5.634   4.901   4.691
   37CHL1   C27 2735   5.884   4.944   4.589
   37CHL1  H27A 2736   5.965   5.018   4.570
   37CHL1  H27B 2737   5.859   4.931   4.697
   37CHL1  H27C 2738   5.918   4.841   4.565
   38CHL1    C3 2739   1.783   4.501   2.597
   38CHL1    H3 2740   1.842   4.409   2.620
   38CHL1    O3 2741   1.808   4.528   2.463
   38CHL1   H3' 2742   1.882   4.588   2.469
   38CHL1    C4 2743   1.627   4.482   2.615
   38CHL1   H4A 2744   1.579   4.558   2.550
   38CHL1   H4B 2745   1.600   4.384   2.571
   38CHL1    C5 2746   1.591   4.483   2.765
   38CHL1    C6 2747   1.531   4.375   2.816
   38CHL1    H6 2748   1.499   4.298   2.745
   38CHL1    C7 2749   1.507   4.360   2.963
   38CHL1   H7A 2750   1.404   4.324   2.984
   38CHL1   H7B 2751   1.575   4.281   3.003
   38CHL1    C8 2752   1.503   4.493   3.045
   38CHL1    H8 2753   1.410   4.549   3.020
   38CHL1   C14 2754   1.499   4.473   3.193
   38CHL1   H14 2755   1.586   4.408   3.215
   38CHL1   C15 2756   1.375   4.395   3.250
   38CHL1  H15A 2757   1.278   4.423   3.203
   38CHL1  H15B 2758   1.387   4.286   3.232
   38CHL1   C16 2759   1.369   4.421   3.398
   38CHL1  H16A 2760   1.269   4.459   3.425
   38CHL1  H16B 2761   1.394   4.327   3.450
   38CHL1   C17 2762   1.482   4.526   3.421
   38CHL1   H17 2763   1.576   4.474   3.447
   38CHL1   C13 2764   1.506   4.597   3.286
   38CHL1   C18 2765   1.388   4.692   3.266
   38CHL1  H18A 2766   1.292   4.645   3.296
   38CHL1  H18B 2767   1.390   4.778   3.337
   38CHL1  H18C 2768   1.364   4.740   3.168
   38CHL1   C12 2769   1.637   4.670   3.254
   38CHL1  H12A 2770   1.654   4.766   3.307
   38CHL1  H12B 2771   1.723   4.603   3.275
   38CHL1   C11 2772   1.649   4.704   3.102
   38CHL1  H11A 2773   1.578   4.783   3.071
   38CHL1  H11B 2774   1.756   4.732   3.093
   38CHL1    C9 2775   1.628   4.575   3.013
   38CHL1    H9 2776   1.706   4.499   3.034
   38CHL1   C10 2777   1.638   4.597   2.859
   38CHL1   C19 2778   1.536   4.714   2.822
   38CHL1  H19A 2779   1.565   4.812   2.867
   38CHL1  H19B 2780   1.529   4.712   2.712
   38CHL1  H19C 2781   1.436   4.680   2.857
   38CHL1    C1 2782   1.792   4.619   2.824
   38CHL1   H1A 2783   1.837   4.713   2.865
   38CHL1   H1B 2784   1.839   4.535   2.879
   38CHL1    C2 2785   1.827   4.626   2.677
   38CHL1   H2A 2786   1.936   4.622   2.654
   38CHL1   H2B 2787   1.787   4.713   2.622
   38CHL1   C20 2788   1.451   4.619   3.543
   38CHL1   H20 2789   1.364   4.679   3.508
   38CHL1   C21 2790   1.562   4.719   3.578
   38CHL1  H21A 2791   1.595   4.782   3.492
   38CHL1  H21B 2792   1.652   4.671   3.621
   38CHL1  H21C 2793   1.529   4.793   3.654
   38CHL1   C22 2794   1.397   4.538   3.664
   38CHL1  H22A 2795   1.385   4.607   3.750
   38CHL1  H22B 2796   1.299   4.488   3.647
   38CHL1   C23 2797   1.497   4.424   3.699
   38CHL1  H23A 2798   1.495   4.348   3.619
   38CHL1  H23B 2799   1.600   4.467   3.700
   38CHL1   C24 2800   1.461   4.370   3.837
   38CHL1  H24A 2801   1.483   4.441   3.919
   38CHL1  H24B 2802   1.352   4.349   3.843
   38CHL1   C25 2803   1.528   4.229   3.861
   38CHL1   H25 2804   1.516   4.170   3.768
   38CHL1   C26 2805   1.676   4.234   3.898
   38CHL1  H26A 2806   1.684   4.268   4.004
   38CHL1  H26B 2807   1.730   4.138   3.887
   38CHL1  H26C 2808   1.726   4.309   3.833
   38CHL1   C27 2809   1.443   4.167   3.974
   38CHL1  H27A 2810   1.437   4.224   4.069
   38CHL1  H27B 2811   1.340   4.138   3.944
   38CHL1  H27C 2812   1.491   4.068   3.992
   39CHL1    C3 2813   2.408   5.176   2.728
   39CHL1    H3 2814   2.508   5.161   2.774
   39CHL1    O3 2815   2.405   5.114   2.602
   39CHL1   H3' 2816   2.312   5.100   2.584
   39CHL1    C4 2817   2.292   5.103   2.809
   39CHL1   H4A 2818   2.201   5.107   2.745
   39CHL1   H4B 2819   2.306   4.992   2.812
   39CHL1    C5 2820   2.270   5.159   2.945
   39CHL1    C6 2821   2.276   5.083   3.057
   39CHL1    H6 2822   2.298   4.976   3.046
   39CHL1    C7 2823   2.232   5.128   3.194
   39CHL1   H7A 2824   2.159   5.062   3.247
   39CHL1   H7B 2825   2.327   5.135   3.251
   39CHL1    C8 2826   2.167   5.268   3.188
   39CHL1    H8 2827   2.066   5.269   3.142
   39CHL1   C14 2828   2.161   5.328   3.335
   39CHL1   H14 2829   2.264   5.323   3.374
   39CHL1   C15 2830   2.083   5.249   3.445
   39CHL1  H15A 2831   1.980   5.229   3.406
   39CHL1  H15B 2832   2.131   5.149   3.453
   39CHL1   C16 2833   2.077   5.352   3.563
   39CHL1  H16A 2834   1.968   5.356   3.585
   39CHL1  H16B 2835   2.140   5.318   3.649
   39CHL1   C17 2836   2.126   5.492   3.504
   39CHL1   H17 2837   2.234   5.513   3.522
   39CHL1   C13 2838   2.117   5.472   3.352
   39CHL1   C18 2839   1.968   5.481   3.309
   39CHL1  H18A 2840   1.959   5.436   3.208
   39CHL1  H18B 2841   1.898   5.427   3.377
   39CHL1  H18C 2842   1.934   5.587   3.312
   39CHL1   C12 2843   2.214   5.557   3.259
   39CHL1  H12A 2844   2.181   5.663   3.259
   39CHL1  H12B 2845   2.313   5.552   3.307
   39CHL1   C11 2846   2.222   5.510   3.111
   39CHL1  H11A 2847   2.117   5.521   3.077
   39CHL1  H11B 2848   2.298   5.568   3.055
   39CHL1    C9 2849   2.253   5.362   3.093
   39CHL1    H9 2850   2.357   5.352   3.130
   39CHL1   C10 2851   2.247   5.311   2.943
   39CHL1   C19 2852   2.109   5.334   2.884
   39CHL1  H19A 2853   2.104   5.293   2.781
   39CHL1  H19B 2854   2.026   5.284   2.938
   39CHL1  H19C 2855   2.072   5.439   2.883
   39CHL1    C1 2856   2.357   5.381   2.868
   39CHL1   H1A 2857   2.337   5.490   2.863
   39CHL1   H1B 2858   2.454   5.381   2.922
   39CHL1    C2 2859   2.367   5.328   2.727
   39CHL1   H2A 2860   2.456   5.372   2.677
   39CHL1   H2B 2861   2.270   5.329   2.674
   39CHL1   C20 2862   2.044   5.605   3.573
   39CHL1   H20 2863   1.937   5.595   3.546
   39CHL1   C21 2864   2.093   5.742   3.531
   39CHL1  H21A 2865   2.201   5.745   3.558
   39CHL1  H21B 2866   2.039   5.827   3.580
   39CHL1  H21C 2867   2.087   5.769   3.424
   39CHL1   C22 2868   2.039   5.579   3.725
   39CHL1  H22A 2869   1.985   5.670   3.756
   39CHL1  H22B 2870   1.966   5.500   3.752
   39CHL1   C23 2871   2.174   5.569   3.798
   39CHL1  H23A 2872   2.238   5.496   3.745
   39CHL1  H23B 2873   2.243   5.656   3.800
   39CHL1   C24 2874   2.154   5.527   3.946
   39CHL1  H24A 2875   2.120   5.421   3.947
   39CHL1  H24B 2876   2.251   5.540   3.999
   39CHL1   C25 2877   2.055   5.605   4.040
   39CHL1   H25 2878   1.955   5.595   3.992
   39CHL1   C26 2879   2.053   5.528   4.169
   39CHL1  H26A 2880   1.992   5.435   4.162
   39CHL1  H26B 2881   2.155   5.495   4.197
   39CHL1  H26C 2882   2.026   5.591   4.257
   39CHL1   C27 2883   2.084   5.750   4.056
   39CHL1  H27A 2884   2.171   5.763   4.125
   39CHL1  H27B 2885   2.105   5.797   3.958
   39CHL1  H27C 2886   2.001   5.809   4.102
   40CHL1    C3 2887   5.297   2.220   2.951
   40CHL1    H3 2888   5.281   2.113   2.977
   40CHL1    O3 2889   5.297   2.228   2.808
   40CHL1   H3' 2890   5.260   2.314   2.787
   40CHL1    C4 2891   5.183   2.294   3.013
   40CHL1   H4A 2892   5.182   2.404   3.001
   40CHL1   H4B 2893   5.088   2.251   2.975
   40CHL1    C5 2894   5.187   2.288   3.171
   40CHL1    C6 2895   5.082   2.240   3.248
   40CHL1    H6 2896   4.995   2.212   3.187
   40CHL1    C7 2897   5.094   2.231   3.400
   40CHL1   H7A 2898   4.997   2.257   3.448
   40CHL1   H7B 2899   5.106   2.123   3.425
   40CHL1    C8 2900   5.209   2.313   3.454
   40CHL1    H8 2901   5.176   2.419   3.449
   40CHL1   C14 2902   5.223   2.280   3.604
   40CHL1   H14 2903   5.249   2.172   3.603
   40CHL1   C15 2904   5.098   2.299   3.690
   40CHL1  H15A 2905   5.065   2.403   3.671
   40CHL1  H15B 2906   5.016   2.227   3.673
   40CHL1   C16 2907   5.160   2.293   3.833
   40CHL1  H16A 2908   5.127   2.384   3.887
   40CHL1  H16B 2909   5.146   2.193   3.879
   40CHL1   C17 2910   5.317   2.298   3.817
   40CHL1   H17 2911   5.340   2.189   3.814
   40CHL1   C13 2912   5.339   2.364   3.678
   40CHL1   C18 2913   5.319   2.515   3.674
   40CHL1  H18A 2914   5.242   2.545   3.748
   40CHL1  H18B 2915   5.409   2.568   3.711
   40CHL1  H18C 2916   5.303   2.559   3.573
   40CHL1   C12 2917   5.462   2.312   3.604
   40CHL1  H12A 2918   5.549   2.377   3.628
   40CHL1  H12B 2919   5.481   2.203   3.615
   40CHL1   C11 2920   5.461   2.344   3.449
   40CHL1  H11A 2921   5.454   2.455   3.444
   40CHL1  H11B 2922   5.550   2.312   3.392
   40CHL1    C9 2923   5.336   2.288   3.379
   40CHL1    H9 2924   5.344   2.177   3.377
   40CHL1   C10 2925   5.323   2.331   3.230
   40CHL1   C19 2926   5.334   2.487   3.216
   40CHL1  H19A 2927   5.271   2.533   3.294
   40CHL1  H19B 2928   5.440   2.514   3.236
   40CHL1  H19C 2929   5.306   2.523   3.114
   40CHL1    C1 2930   5.441   2.272   3.157
   40CHL1   H1A 2931   5.534   2.325   3.187
   40CHL1   H1B 2932   5.445   2.163   3.179
   40CHL1    C2 2933   5.429   2.276   3.006
   40CHL1   H2A 2934   5.507   2.217   2.953
   40CHL1   H2B 2935   5.443   2.381   2.974
   40CHL1   C20 2936   5.388   2.362   3.937
   40CHL1   H20 2937   5.376   2.472   3.932
   40CHL1   C21 2938   5.531   2.310   3.929
   40CHL1  H21A 2939   5.582   2.367   4.010
   40CHL1  H21B 2940   5.592   2.342   3.842
   40CHL1  H21C 2941   5.549   2.201   3.938
   40CHL1   C22 2942   5.335   2.322   4.074
   40CHL1  H22A 2943   5.225   2.339   4.077
   40CHL1  H22B 2944   5.343   2.212   4.087
   40CHL1   C23 2945   5.403   2.405   4.181
   40CHL1  H23A 2946   5.507   2.374   4.202
   40CHL1  H23B 2947   5.396   2.508   4.139
   40CHL1   C24 2948   5.328   2.402   4.313
   40CHL1  H24A 2949   5.379   2.465   4.389
   40CHL1  H24B 2950   5.233   2.455   4.290
   40CHL1   C25 2951   5.288   2.271   4.383
   40CHL1   H25 2952   5.197   2.237   4.329
   40CHL1   C26 2953   5.414   2.170   4.383
   40CHL1  H26A 2954   5.392   2.083   4.448
   40CHL1  H26B 2955   5.438   2.140   4.279
   40CHL1  H26C 2956   5.496   2.231   4.427
   40CHL1   C27 2957   5.263   2.302   4.529
   40CHL1  H27A 2958   5.355   2.331   4.584
   40CHL1  H27B 2959   5.189   2.385   4.535
   40CHL1  H27C 2960   5.223   2.211   4.578
   41CHL1    C3 2961   3.805   6.433   2.537
   41CHL1    H3 2962   3.732   6.355   2.564
   41CHL1    O3 2963   3.832   6.447   2.396
   41CHL1   H3' 2964   3.899   6.515   2.398
   41CHL1    C4 2965   3.740   6.568   2.583
   41CHL1   H4A 2966   3.801   6.658   2.559
   41CHL1   H4B 2967   3.647   6.584   2.525
   41CHL1    C5 2968   3.706   6.573   2.730
   41CHL1    C6 2969   3.581   6.584   2.778
   41CHL1    H6 2970   3.495   6.594   2.709
   41CHL1    C7 2971   3.552   6.599   2.924
   41CHL1   H7A 2972   3.472   6.671   2.952
   41CHL1   H7B 2973   3.515   6.502   2.964
   41CHL1    C8 2974   3.684   6.622   3.011
   41CHL1    H8 2975   3.722   6.725   2.998
   41CHL1   C14 2976   3.656   6.602   3.165
   41CHL1   H14 2977   3.616   6.498   3.173
   41CHL1   C15 2978   3.539   6.688   3.224
   41CHL1  H15A 2979   3.543   6.797   3.204
   41CHL1  H15B 2980   3.448   6.634   3.190
   41CHL1   C16 2981   3.565   6.670   3.378
   41CHL1  H16A 2982   3.589   6.763   3.434
   41CHL1  H16B 2983   3.479   6.614   3.422
   41CHL1   C17 2984   3.692   6.580   3.387
   41CHL1   H17 2985   3.659   6.474   3.391
   41CHL1   C13 2986   3.774   6.609   3.261
   41CHL1   C18 2987   3.852   6.742   3.259
   41CHL1  H18A 2988   3.900   6.763   3.161
   41CHL1  H18B 2989   3.784   6.819   3.300
   41CHL1  H18C 2990   3.939   6.734   3.327
   41CHL1   C12 2991   3.859   6.496   3.217
   41CHL1  H12A 2992   3.944   6.491   3.289
   41CHL1  H12B 2993   3.801   6.405   3.243
   41CHL1   C11 2994   3.906   6.511   3.074
   41CHL1  H11A 2995   3.983   6.590   3.063
   41CHL1  H11B 2996   3.964   6.418   3.055
   41CHL1    C9 2997   3.791   6.528   2.967
   41CHL1    H9 2998   3.731   6.435   2.972
   41CHL1   C10 2999   3.835   6.547   2.815
   41CHL1   C19 3000   3.930   6.667   2.808
   41CHL1  H19A 3001   3.955   6.685   2.701
   41CHL1  H19B 3002   3.881   6.757   2.851
   41CHL1  H19C 3003   4.025   6.664   2.867
   41CHL1    C1 3004   3.907   6.415   2.769
   41CHL1   H1A 3005   4.001   6.401   2.827
   41CHL1   H1B 3006   3.828   6.343   2.802
   41CHL1    C2 3007   3.935   6.412   2.618
   41CHL1   H2A 3008   3.980   6.314   2.591
   41CHL1   H2B 3009   3.992   6.501   2.584
   41CHL1   C20 3010   3.759   6.583   3.533
   41CHL1   H20 3011   3.808   6.681   3.552
   41CHL1   C21 3012   3.866   6.472   3.546
   41CHL1  H21A 3013   3.882   6.447   3.653
   41CHL1  H21B 3014   3.961   6.504   3.497
   41CHL1  H21C 3015   3.831   6.374   3.507
   41CHL1   C22 3016   3.638   6.558   3.638
   41CHL1  H22A 3017   3.549   6.621   3.623
   41CHL1  H22B 3018   3.602   6.456   3.613
   41CHL1   C23 3019   3.670   6.575   3.791
   41CHL1  H23A 3020   3.768   6.532   3.821
   41CHL1  H23B 3021   3.674   6.684   3.812
   41CHL1   C24 3022   3.571   6.510   3.877
   41CHL1  H24A 3023   3.471   6.556   3.863
   41CHL1  H24B 3024   3.564   6.402   3.852
   41CHL1   C25 3025   3.592   6.528   4.034
   41CHL1   H25 3026   3.617   6.634   4.053
   41CHL1   C26 3027   3.463   6.498   4.110
   41CHL1  H26A 3028   3.378   6.569   4.100
   41CHL1  H26B 3029   3.426   6.396   4.085
   41CHL1  H26C 3030   3.484   6.494   4.219
   41CHL1   C27 3031   3.705   6.448   4.083
   41CHL1  H27A 3032   3.802   6.478   4.038
   41CHL1  H27B 3033   3.721   6.444   4.193
   41CHL1  H27C 3034   3.691   6.340   4.060
   42CHL1    C3 3035   5.909   4.928   3.000
   42CHL1    H3 3036   6.016   4.901   3.002
   42CHL1    O3 3037   5.877   4.977   2.870
   42CHL1   H3' 3038   5.882   4.908   2.804
   42CHL1    C4 3039   5.813   4.809   3.027
   42CHL1   H4A 3040   5.704   4.830   3.018
   42CHL1   H4B 3041   5.809   4.738   2.941
   42CHL1    C5 3042   5.835   4.754   3.164
   42CHL1    C6 3043   5.875   4.629   3.180
   42CHL1    H6 3044   5.896   4.568   3.092
   42CHL1    C7 3045   5.879   4.549   3.309
   42CHL1   H7A 3046   5.805   4.467   3.321
   42CHL1   H7B 3047   5.984   4.517   3.325
   42CHL1    C8 3048   5.844   4.645   3.428
   42CHL1    H8 3049   5.734   4.632   3.439
   42CHL1   C14 3050   5.910   4.596   3.556
   42CHL1   H14 3051   6.017   4.612   3.532
   42CHL1   C15 3052   5.891   4.442   3.603
   42CHL1  H15A 3053   5.784   4.423   3.581
   42CHL1  H15B 3054   5.958   4.369   3.553
   42CHL1   C16 3055   5.928   4.462   3.753
   42CHL1  H16A 3056   5.851   4.414   3.818
   42CHL1  H16B 3057   6.022   4.403   3.762
   42CHL1   C17 3058   5.959   4.607   3.786
   42CHL1   H17 3059   6.066   4.614   3.756
   42CHL1   C13 3060   5.881   4.678   3.682
   42CHL1   C18 3061   5.733   4.655   3.713
   42CHL1  H18A 3062   5.708   4.711   3.806
   42CHL1  H18B 3063   5.655   4.676   3.637
   42CHL1  H18C 3064   5.707   4.550   3.739
   42CHL1   C12 3065   5.925   4.824   3.657
   42CHL1  H12A 3066   5.908   4.887   3.747
   42CHL1  H12B 3067   6.036   4.829   3.646
   42CHL1   C11 3068   5.840   4.879   3.533
   42CHL1  H11A 3069   5.731   4.876   3.554
   42CHL1  H11B 3070   5.876   4.984   3.520
   42CHL1    C9 3071   5.878   4.794   3.411
   42CHL1    H9 3072   5.988   4.784   3.402
   42CHL1   C10 3073   5.822   4.860   3.276
   42CHL1   C19 3074   5.670   4.894   3.292
   42CHL1  H19A 3075   5.641   4.951   3.382
   42CHL1  H19B 3076   5.623   4.944   3.205
   42CHL1  H19C 3077   5.616   4.798   3.310
   42CHL1    C1 3078   5.915   4.983   3.247
   42CHL1   H1A 3079   5.886   5.057   3.325
   42CHL1   H1B 3080   6.021   4.963   3.272
   42CHL1    C2 3081   5.887   5.038   3.106
   42CHL1   H2A 3082   5.937   5.134   3.081
   42CHL1   H2B 3083   5.780   5.069   3.103
   42CHL1   C20 3084   5.953   4.648   3.939
   42CHL1   H20 3085   5.864   4.712   3.957
   42CHL1   C21 3086   6.081   4.736   3.966
   42CHL1  H21A 3087   6.071   4.773   4.070
   42CHL1  H21B 3088   6.089   4.825   3.900
   42CHL1  H21C 3089   6.174   4.678   3.955
   42CHL1   C22 3090   5.948   4.529   4.042
   42CHL1  H22A 3091   5.863   4.463   4.017
   42CHL1  H22B 3092   6.049   4.484   4.035
   42CHL1   C23 3093   5.927   4.575   4.187
   42CHL1  H23A 3094   5.995   4.654   4.225
   42CHL1  H23B 3095   5.821   4.598   4.211
   42CHL1   C24 3096   5.950   4.443   4.275
   42CHL1  H24A 3097   5.888   4.361   4.235
   42CHL1  H24B 3098   6.058   4.421   4.262
   42CHL1   C25 3099   5.920   4.463   4.429
   42CHL1   H25 3100   5.959   4.565   4.453
   42CHL1   C26 3101   5.772   4.468   4.465
   42CHL1  H26A 3102   5.739   4.364   4.482
   42CHL1  H26B 3103   5.769   4.517   4.565
   42CHL1  H26C 3104   5.704   4.526   4.399
   42CHL1   C27 3105   5.997   4.370   4.511
   42CHL1  H27A 3106   5.979   4.385   4.620
   42CHL1  H27B 3107   5.970   4.265   4.484
   42CHL1  H27C 3108   6.106   4.389   4.495
   43CHL1    C3 3109   1.689   5.683   2.831
   43CHL1    H3 3110   1.585   5.710   2.861
   43CHL1    O3 3111   1.695   5.599   2.718
   43CHL1   H3' 3112   1.663   5.655   2.646
   43CHL1    C4 3113   1.760   5.819   2.801
   43CHL1   H4A 3114   1.870   5.813   2.784
   43CHL1   H4B 3115   1.716   5.854   2.705
   43CHL1    C5 3116   1.743   5.912   2.919
   43CHL1    C6 3117   1.696   6.039   2.905
   43CHL1    H6 3118   1.665   6.080   2.807
   43CHL1    C7 3119   1.692   6.133   3.025
   43CHL1   H7A 3120   1.746   6.227   2.998
   43CHL1   H7B 3121   1.590   6.173   3.045
   43CHL1    C8 3122   1.759   6.077   3.155
   43CHL1    H8 3123   1.868   6.091   3.140
   43CHL1   C14 3124   1.707   6.152   3.277
   43CHL1   H14 3125   1.597   6.134   3.280
   43CHL1   C15 3126   1.716   6.301   3.275
   43CHL1  H15A 3127   1.814   6.330   3.232
   43CHL1  H15B 3128   1.643   6.350   3.207
   43CHL1   C16 3129   1.695   6.340   3.421
   43CHL1  H16A 3130   1.785   6.399   3.448
   43CHL1  H16B 3131   1.603   6.400   3.440
   43CHL1   C17 3132   1.701   6.209   3.508
   43CHL1   H17 3133   1.598   6.172   3.528
   43CHL1   C13 3134   1.772   6.109   3.408
   43CHL1   C18 3135   1.923   6.133   3.417
   43CHL1  H18A 3136   1.943   6.241   3.425
   43CHL1  H18B 3137   1.960   6.102   3.518
   43CHL1  H18C 3138   1.980   6.075   3.342
   43CHL1   C12 3139   1.736   5.954   3.431
   43CHL1  H12A 3140   1.796   5.920   3.518
   43CHL1  H12B 3141   1.631   5.936   3.462
   43CHL1   C11 3142   1.785   5.872   3.316
   43CHL1  H11A 3143   1.896   5.873   3.322
   43CHL1  H11B 3144   1.743   5.769   3.326
   43CHL1    C9 3145   1.736   5.931   3.175
   43CHL1    H9 3146   1.626   5.922   3.168
   43CHL1   C10 3147   1.783   5.852   3.055
   43CHL1   C19 3148   1.939   5.852   3.056
   43CHL1  H19A 3149   1.978   5.794   3.143
   43CHL1  H19B 3150   1.983   5.800   2.968
   43CHL1  H19C 3151   1.989   5.951   3.054
   43CHL1    C1 3152   1.737   5.708   3.072
   43CHL1   H1A 3153   1.791   5.665   3.159
   43CHL1   H1B 3154   1.632   5.712   3.107
   43CHL1    C2 3155   1.750   5.617   2.952
   43CHL1   H2A 3156   1.697   5.522   2.970
   43CHL1   H2B 3157   1.855   5.592   2.925
   43CHL1   C20 3158   1.770   6.228   3.642
   43CHL1   H20 3159   1.878   6.253   3.643
   43CHL1   C21 3160   1.753   6.112   3.742
   43CHL1  H21A 3161   1.645   6.086   3.746
   43CHL1  H21B 3162   1.788   6.133   3.846
   43CHL1  H21C 3163   1.807   6.020   3.711
   43CHL1   C22 3164   1.713   6.353   3.718
   43CHL1  H22A 3165   1.677   6.439   3.657
   43CHL1  H22B 3166   1.629   6.311   3.777
   43CHL1   C23 3167   1.807   6.416   3.819
   43CHL1  H23A 3168   1.850   6.341   3.889
   43CHL1  H23B 3169   1.896   6.462   3.770
   43CHL1   C24 3170   1.737   6.524   3.899
   43CHL1  H24A 3171   1.806   6.610   3.907
   43CHL1  H24B 3172   1.654   6.562   3.835
   43CHL1   C25 3173   1.705   6.496   4.043
   43CHL1   H25 3174   1.794   6.453   4.094
   43CHL1   C26 3175   1.675   6.637   4.108
   43CHL1  H26A 3176   1.667   6.623   4.218
   43CHL1  H26B 3177   1.759   6.709   4.098
   43CHL1  H26C 3178   1.576   6.680   4.081
   43CHL1   C27 3179   1.589   6.396   4.070
   43CHL1  H27A 3180   1.495   6.427   4.018
   43CHL1  H27B 3181   1.621   6.299   4.027
   43CHL1  H27C 3182   1.573   6.395   4.180
   44CHL1    C3 3183   5.745   5.767   2.745
   44CHL1    H3 3184   5.806   5.860   2.742
   44CHL1    O3 3185   5.749   5.717   2.615
   44CHL1   H3' 3186   5.816   5.649   2.620
   44CHL1    C4 3187   5.801   5.662   2.836
   44CHL1   H4A 3188   5.739   5.570   2.826
   44CHL1   H4B 3189   5.904   5.642   2.797
   44CHL1    C5 3190   5.807   5.697   2.981
   44CHL1    C6 3191   5.921   5.717   3.036
   44CHL1    H6 3192   6.010   5.701   2.973
   44CHL1    C7 3193   5.929   5.748   3.186
   44CHL1   H7A 3194   6.006   5.686   3.237
   44CHL1   H7B 3195   5.968   5.851   3.201
   44CHL1    C8 3196   5.795   5.738   3.257
   44CHL1    H8 3197   5.791   5.628   3.271
   44CHL1   C14 3198   5.793   5.801   3.393
   44CHL1   H14 3199   5.791   5.908   3.365
   44CHL1   C15 3200   5.913   5.781   3.480
   44CHL1  H15A 3201   5.944   5.675   3.490
   44CHL1  H15B 3202   5.998   5.841   3.441
   44CHL1   C16 3203   5.861   5.826   3.617
   44CHL1  H16A 3204   5.887   5.751   3.695
   44CHL1  H16B 3205   5.911   5.920   3.649
   44CHL1   C17 3206   5.707   5.852   3.605
   44CHL1   H17 3207   5.705   5.962   3.590
   44CHL1   C13 3208   5.667   5.783   3.476
   44CHL1   C18 3209   5.636   5.633   3.507
   44CHL1  H18A 3210   5.718   5.599   3.575
   44CHL1  H18B 3211   5.541   5.619   3.562
   44CHL1  H18C 3212   5.631   5.571   3.416
   44CHL1   C12 3213   5.550   5.852   3.396
   44CHL1  H12A 3214   5.448   5.836   3.439
   44CHL1  H12B 3215   5.567   5.961   3.387
   44CHL1   C11 3216   5.543   5.790   3.254
   44CHL1  H11A 3217   5.520   5.685   3.281
   44CHL1  H11B 3218   5.458   5.832   3.197
   44CHL1    C9 3219   5.679   5.797   3.173
   44CHL1    H9 3220   5.707   5.903   3.154
   44CHL1   C10 3221   5.664   5.730   3.031
   44CHL1   C19 3222   5.601   5.589   3.048
   44CHL1  H19A 3223   5.494   5.599   3.075
   44CHL1  H19B 3224   5.600   5.535   2.951
   44CHL1  H19C 3225   5.653   5.536   3.131
   44CHL1    C1 3226   5.583   5.826   2.934
   44CHL1   H1A 3227   5.477   5.827   2.965
   44CHL1   H1B 3228   5.626   5.927   2.953
   44CHL1    C2 3229   5.598   5.785   2.787
   44CHL1   H2A 3230   5.546   5.862   2.726
   44CHL1   H2B 3231   5.543   5.690   2.769
   44CHL1   C20 3232   5.622   5.824   3.731
   44CHL1   H20 3233   5.584   5.720   3.729
   44CHL1   C21 3234   5.502   5.920   3.723
   44CHL1  H21A 3235   5.431   5.906   3.808
   44CHL1  H21B 3236   5.450   5.893   3.628
   44CHL1  H21C 3237   5.531   6.027   3.725
   44CHL1   C22 3238   5.697   5.865   3.858
   44CHL1  H22A 3239   5.798   5.819   3.863
   44CHL1  H22B 3240   5.706   5.976   3.864
   44CHL1   C23 3241   5.625   5.818   3.989
   44CHL1  H23A 3242   5.514   5.819   3.980
   44CHL1  H23B 3243   5.645   5.708   3.992
   44CHL1   C24 3244   5.667   5.891   4.120
   44CHL1  H24A 3245   5.778   5.889   4.121
   44CHL1  H24B 3246   5.638   5.998   4.114
   44CHL1   C25 3247   5.611   5.847   4.253
   44CHL1   H25 3248   5.665   5.906   4.330
   44CHL1   C26 3249   5.456   5.862   4.260
   44CHL1  H26A 3250   5.421   5.845   4.364
   44CHL1  H26B 3251   5.433   5.970   4.244
   44CHL1  H26C 3252   5.401   5.800   4.186
   44CHL1   C27 3253   5.639   5.702   4.283
   44CHL1  H27A 3254   5.585   5.671   4.375
   44CHL1  H27B 3255   5.619   5.625   4.205
   44CHL1  H27C 3256   5.747   5.706   4.310
   45CHL1    C3 3257   0.089   6.020   2.811
   45CHL1    H3 3258   0.196   6.052   2.816
   45CHL1    O3 3259   0.037   5.982   2.684
   45CHL1   H3' 3260   0.073   5.897   2.658
   45CHL1    C4 3261   0.070   5.890   2.893
   45CHL1   H4A 3262  -0.034   5.851   2.896
   45CHL1   H4B 3263   0.128   5.806   2.850
   45CHL1    C5 3264   0.103   5.907   3.038
   45CHL1    C6 3265   0.195   5.839   3.099
   45CHL1    H6 3266   0.251   5.764   3.041
   45CHL1    C7 3267   0.227   5.860   3.246
   45CHL1   H7A 3268   0.247   5.756   3.280
   45CHL1   H7B 3269   0.311   5.930   3.264
   45CHL1    C8 3270   0.107   5.926   3.323
   45CHL1    H8 3271   0.029   5.848   3.334
   45CHL1   C14 3272   0.149   5.963   3.467
   45CHL1   H14 3273   0.219   6.048   3.455
   45CHL1   C15 3274   0.208   5.853   3.557
   45CHL1  H15A 3275   0.147   5.761   3.546
   45CHL1  H15B 3276   0.315   5.827   3.546
   45CHL1   C16 3277   0.197   5.912   3.709
   45CHL1  H16A 3278   0.145   5.838   3.773
   45CHL1  H16B 3279   0.302   5.929   3.743
   45CHL1   C17 3280   0.123   6.041   3.703
   45CHL1   H17 3281   0.202   6.117   3.681
   45CHL1   C13 3282   0.049   6.035   3.563
   45CHL1   C18 3283  -0.073   5.950   3.587
   45CHL1  H18A 3284  -0.162   6.016   3.588
   45CHL1  H18B 3285  -0.082   5.890   3.494
   45CHL1  H18C 3286  -0.075   5.888   3.679
   45CHL1   C12 3287   0.007   6.166   3.488
   45CHL1  H12A 3288  -0.086   6.201   3.538
   45CHL1  H12B 3289   0.087   6.240   3.510
   45CHL1   C11 3290  -0.042   6.139   3.340
   45CHL1  H11A 3291  -0.142   6.092   3.357
   45CHL1  H11B 3292  -0.055   6.239   3.295
   45CHL1    C9 3293   0.055   6.050   3.250
   45CHL1    H9 3294   0.145   6.115   3.251
   45CHL1   C10 3295   0.013   6.018   3.104
   45CHL1   C19 3296  -0.138   5.980   3.101
   45CHL1  H19A 3297  -0.191   5.975   3.003
   45CHL1  H19B 3298  -0.146   5.883   3.154
   45CHL1  H19C 3299  -0.201   6.058   3.150
   45CHL1    C1 3300   0.033   6.149   3.014
   45CHL1   H1A 3301  -0.032   6.233   3.047
   45CHL1   H1B 3302   0.139   6.178   3.028
   45CHL1    C2 3303   0.000   6.130   2.868
   45CHL1   H2A 3304   0.023   6.224   2.814
   45CHL1   H2B 3305  -0.108   6.117   2.849
   45CHL1   C20 3306   0.042   6.088   3.823
   45CHL1   H20 3307  -0.053   6.033   3.836
   45CHL1   C21 3308   0.009   6.239   3.807
   45CHL1  H21A 3309   0.097   6.297   3.772
   45CHL1  H21B 3310  -0.028   6.287   3.900
   45CHL1  H21C 3311  -0.058   6.265   3.723
   45CHL1   C22 3312   0.117   6.073   3.964
   45CHL1  H22A 3313   0.181   5.982   3.971
   45CHL1  H22B 3314   0.197   6.149   3.973
   45CHL1   C23 3315   0.014   6.070   4.087
   45CHL1  H23A 3316   0.069   6.061   4.183
   45CHL1  H23B 3317  -0.044   6.165   4.094
   45CHL1   C24 3318  -0.070   5.938   4.085
   45CHL1  H24A 3319  -0.127   5.934   3.990
   45CHL1  H24B 3320   0.001   5.853   4.078
   45CHL1   C25 3321  -0.170   5.930   4.196
   45CHL1   H25 3322  -0.118   5.937   4.294
   45CHL1   C26 3323  -0.269   6.047   4.201
   45CHL1  H26A 3324  -0.359   6.031   4.264
   45CHL1  H26B 3325  -0.219   6.141   4.231
   45CHL1  H26C 3326  -0.319   6.075   4.106
   45CHL1   C27 3327  -0.247   5.800   4.194
   45CHL1  H27A 3328  -0.324   5.812   4.273
   45CHL1  H27B 3329  -0.306   5.786   4.102
   45CHL1  H27C 3330  -0.193   5.703   4.206
   46CHL1    C3 3331   3.669   0.130   2.611
   46CHL1    H3 3332   3.686   0.021   2.623
   46CHL1    O3 3333   3.721   0.160   2.483
   46CHL1   H3' 3334   3.720   0.256   2.480
   46CHL1    C4 3335   3.520   0.177   2.604
   46CHL1   H4A 3336   3.517   0.275   2.553
   46CHL1   H4B 3337   3.469   0.096   2.548
   46CHL1    C5 3338   3.451   0.194   2.740
   46CHL1    C6 3339   3.331   0.136   2.761
   46CHL1    H6 3340   3.278   0.091   2.675
   46CHL1    C7 3341   3.254   0.137   2.889
   46CHL1   H7A 3342   3.149   0.170   2.872
   46CHL1   H7B 3343   3.250   0.037   2.938
   46CHL1    C8 3344   3.318   0.237   2.994
   46CHL1    H8 3345   3.292   0.340   2.962
   46CHL1   C14 3346   3.269   0.206   3.134
   46CHL1   H14 3347   3.324   0.116   3.169
   46CHL1   C15 3348   3.116   0.183   3.148
   46CHL1  H15A 3349   3.060   0.251   3.079
   46CHL1  H15B 3350   3.083   0.079   3.126
   46CHL1   C16 3351   3.092   0.226   3.293
   46CHL1  H16A 3352   3.013   0.303   3.287
   46CHL1  H16B 3353   3.057   0.144   3.360
   46CHL1   C17 3354   3.230   0.280   3.359
   46CHL1   H17 3355   3.282   0.194   3.407
   46CHL1   C13 3356   3.308   0.320   3.233
   46CHL1   C18 3357   3.249   0.459   3.194
   46CHL1  H18A 3358   3.140   0.453   3.176
   46CHL1  H18B 3359   3.268   0.537   3.271
   46CHL1  H18C 3360   3.310   0.501   3.111
   46CHL1   C12 3361   3.465   0.325   3.240
   46CHL1  H12A 3362   3.496   0.412   3.303
   46CHL1  H12B 3363   3.491   0.226   3.283
   46CHL1   C11 3364   3.527   0.331   3.101
   46CHL1  H11A 3365   3.504   0.434   3.065
   46CHL1  H11B 3366   3.638   0.324   3.099
   46CHL1    C9 3367   3.471   0.239   2.992
   46CHL1    H9 3368   3.496   0.137   3.029
   46CHL1   C10 3369   3.530   0.264   2.849
   46CHL1   C19 3370   3.525   0.425   2.818
   46CHL1  H19A 3371   3.427   0.465   2.851
   46CHL1  H19B 3372   3.608   0.467   2.879
   46CHL1  H19C 3373   3.549   0.445   2.712
   46CHL1    C1 3374   3.679   0.224   2.845
   46CHL1   H1A 3375   3.740   0.293   2.907
   46CHL1   H1B 3376   3.695   0.123   2.891
   46CHL1    C2 3377   3.752   0.213   2.708
   46CHL1   H2A 3378   3.851   0.170   2.732
   46CHL1   H2B 3379   3.773   0.318   2.677
   46CHL1   C20 3380   3.205   0.382   3.474
   46CHL1   H20 3381   3.145   0.467   3.434
   46CHL1   C21 3382   3.330   0.453   3.537
   46CHL1  H21A 3383   3.308   0.524   3.620
   46CHL1  H21B 3384   3.385   0.512   3.460
   46CHL1  H21C 3385   3.401   0.373   3.565
   46CHL1   C22 3386   3.120   0.314   3.583
   46CHL1  H22A 3387   3.097   0.387   3.664
   46CHL1  H22B 3388   3.020   0.282   3.546
   46CHL1   C23 3389   3.183   0.198   3.656
   46CHL1  H23A 3390   3.182   0.109   3.590
   46CHL1  H23B 3391   3.290   0.219   3.680
   46CHL1   C24 3392   3.126   0.170   3.790
   46CHL1  H24A 3393   3.153   0.253   3.860
   46CHL1  H24B 3394   3.015   0.176   3.784
   46CHL1   C25 3395   3.171   0.029   3.839
   46CHL1   H25 3396   3.282   0.029   3.846
   46CHL1   C26 3397   3.114   0.011   3.990
   46CHL1  H26A 3398   3.005   0.018   4.010
   46CHL1  H26B 3399   3.140  -0.093   4.018
   46CHL1  H26C 3400   3.152   0.085   4.064
   46CHL1   C27 3401   3.135  -0.092   3.753
   46CHL1  H27A 3402   3.027  -0.088   3.729
   46CHL1  H27B 3403   3.178  -0.088   3.650
   46CHL1  H27C 3404   3.156  -0.187   3.806
   47CHL1    C3 3405   1.207   1.165   2.777
   47CHL1    H3 3406   1.183   1.090   2.855
   47CHL1    O3 3407   1.197   1.106   2.644
   47CHL1   H3' 3408   1.262   1.149   2.587
   47CHL1    C4 3409   1.117   1.287   2.798
   47CHL1   H4A 3410   1.147   1.370   2.729
   47CHL1   H4B 3411   1.014   1.270   2.762
   47CHL1    C5 3412   1.125   1.333   2.943
   47CHL1    C6 3413   1.011   1.327   3.020
   47CHL1    H6 3414   0.919   1.310   2.962
   47CHL1    C7 3415   1.015   1.364   3.162
   47CHL1   H7A 3416   0.931   1.431   3.190
   47CHL1   H7B 3417   1.007   1.265   3.213
   47CHL1    C8 3418   1.129   1.452   3.215
   47CHL1    H8 3419   1.110   1.555   3.176
   47CHL1   C14 3420   1.144   1.464   3.367
   47CHL1   H14 3421   1.151   1.363   3.411
   47CHL1   C15 3422   1.024   1.525   3.446
   47CHL1  H15A 3423   0.976   1.614   3.398
   47CHL1  H15B 3424   0.952   1.442   3.457
   47CHL1   C16 3425   1.093   1.584   3.572
   47CHL1  H16A 3426   1.066   1.691   3.567
   47CHL1  H16B 3427   1.036   1.540   3.656
   47CHL1   C17 3428   1.243   1.558   3.561
   47CHL1   H17 3429   1.253   1.459   3.610
   47CHL1   C13 3430   1.269   1.555   3.409
   47CHL1   C18 3431   1.266   1.696   3.348
   47CHL1  H18A 3432   1.170   1.750   3.364
   47CHL1  H18B 3433   1.357   1.746   3.387
   47CHL1  H18C 3434   1.281   1.691   3.238
   47CHL1   C12 3435   1.395   1.486   3.364
   47CHL1  H12A 3436   1.486   1.550   3.374
   47CHL1  H12B 3437   1.402   1.385   3.408
   47CHL1   C11 3438   1.390   1.467   3.205
   47CHL1  H11A 3439   1.398   1.564   3.152
   47CHL1  H11B 3440   1.493   1.427   3.189
   47CHL1    C9 3441   1.262   1.393   3.153
   47CHL1    H9 3442   1.276   1.290   3.191
   47CHL1   C10 3443   1.262   1.366   2.990
   47CHL1   C19 3444   1.294   1.507   2.923
   47CHL1  H19A 3445   1.222   1.579   2.965
   47CHL1  H19B 3446   1.400   1.524   2.951
   47CHL1  H19C 3447   1.299   1.503   2.812
   47CHL1    C1 3448   1.366   1.262   2.942
   47CHL1   H1A 3449   1.471   1.292   2.959
   47CHL1   H1B 3450   1.358   1.171   3.006
   47CHL1    C2 3451   1.354   1.215   2.795
   47CHL1   H2A 3452   1.430   1.140   2.764
   47CHL1   H2B 3453   1.367   1.304   2.729
   47CHL1   C20 3454   1.315   1.656   3.650
   47CHL1   H20 3455   1.318   1.758   3.606
   47CHL1   C21 3456   1.461   1.614   3.670
   47CHL1  H21A 3457   1.503   1.610   3.568
   47CHL1  H21B 3458   1.463   1.512   3.713
   47CHL1  H21C 3459   1.513   1.689   3.733
   47CHL1   C22 3460   1.248   1.673   3.791
   47CHL1  H22A 3461   1.327   1.735   3.840
   47CHL1  H22B 3462   1.159   1.739   3.794
   47CHL1   C23 3463   1.239   1.543   3.881
   47CHL1  H23A 3464   1.148   1.489   3.845
   47CHL1  H23B 3465   1.328   1.483   3.854
   47CHL1   C24 3466   1.226   1.564   4.035
   47CHL1  H24A 3467   1.311   1.631   4.060
   47CHL1  H24B 3468   1.129   1.617   4.051
   47CHL1   C25 3469   1.220   1.433   4.115
   47CHL1   H25 3470   1.321   1.387   4.107
   47CHL1   C26 3471   1.183   1.467   4.262
   47CHL1  H26A 3472   1.078   1.502   4.265
   47CHL1  H26B 3473   1.186   1.366   4.308
   47CHL1  H26C 3474   1.246   1.543   4.313
   47CHL1   C27 3475   1.133   1.326   4.048
   47CHL1  H27A 3476   1.140   1.231   4.106
   47CHL1  H27B 3477   1.030   1.365   4.034
   47CHL1  H27C 3478   1.168   1.295   3.948
   48CHL1    C3 3479   5.267   3.921   2.729
   48CHL1    H3 3480   5.364   3.969   2.706
   48CHL1    O3 3481   5.214   3.888   2.600
   48CHL1   H3' 3482   5.121   3.906   2.612
   48CHL1    C4 3483   5.274   3.789   2.813
   48CHL1   H4A 3484   5.175   3.743   2.794
   48CHL1   H4B 3485   5.355   3.725   2.772
   48CHL1    C5 3486   5.295   3.806   2.965
   48CHL1    C6 3487   5.385   3.730   3.028
   48CHL1    H6 3488   5.435   3.646   2.978
   48CHL1    C7 3489   5.402   3.733   3.179
   48CHL1   H7A 3490   5.406   3.628   3.213
   48CHL1   H7B 3491   5.488   3.794   3.213
   48CHL1    C8 3492   5.293   3.812   3.255
   48CHL1    H8 3493   5.197   3.756   3.260
   48CHL1   C14 3494   5.333   3.834   3.396
   48CHL1   H14 3495   5.428   3.891   3.391
   48CHL1   C15 3496   5.372   3.709   3.480
   48CHL1  H15A 3497   5.298   3.629   3.458
   48CHL1  H15B 3498   5.472   3.666   3.459
   48CHL1   C16 3499   5.357   3.756   3.625
   48CHL1  H16A 3500   5.288   3.690   3.682
   48CHL1  H16B 3501   5.453   3.749   3.681
   48CHL1   C17 3502   5.295   3.900   3.622
   48CHL1   H17 3503   5.379   3.974   3.627
   48CHL1   C13 3504   5.229   3.911   3.478
   48CHL1   C18 3505   5.085   3.841   3.481
   48CHL1  H18A 3506   5.017   3.885   3.557
   48CHL1  H18B 3507   5.046   3.837   3.378
   48CHL1  H18C 3508   5.093   3.738   3.523
   48CHL1   C12 3509   5.227   4.051   3.410
   48CHL1  H12A 3510   5.156   4.120   3.461
   48CHL1  H12B 3511   5.326   4.100   3.413
   48CHL1   C11 3512   5.167   4.043   3.263
   48CHL1  H11A 3513   5.061   4.010   3.256
   48CHL1  H11B 3514   5.166   4.144   3.218
   48CHL1    C9 3515   5.259   3.943   3.178
   48CHL1    H9 3516   5.358   3.993   3.172
   48CHL1   C10 3517   5.208   3.913   3.037
   48CHL1   C19 3518   5.067   3.859   3.047
   48CHL1  H19A 3519   4.984   3.930   3.069
   48CHL1  H19B 3520   5.045   3.820   2.945
   48CHL1  H19C 3521   5.060   3.771   3.114
   48CHL1    C1 3522   5.227   4.043   2.947
   48CHL1   H1A 3523   5.166   4.125   2.991
   48CHL1   H1B 3524   5.334   4.072   2.951
   48CHL1    C2 3525   5.185   4.030   2.801
   48CHL1   H2A 3526   5.198   4.126   2.747
   48CHL1   H2B 3527   5.080   3.996   2.803
   48CHL1   C20 3528   5.209   3.925   3.741
   48CHL1   H20 3529   5.118   3.860   3.735
   48CHL1   C21 3530   5.162   4.070   3.745
   48CHL1  H21A 3531   5.091   4.088   3.828
   48CHL1  H21B 3532   5.107   4.097   3.652
   48CHL1  H21C 3533   5.246   4.139   3.768
   48CHL1   C22 3534   5.274   3.890   3.883
   48CHL1  H22A 3535   5.321   3.790   3.871
   48CHL1  H22B 3536   5.356   3.963   3.901
   48CHL1   C23 3537   5.174   3.869   3.996
   48CHL1  H23A 3538   5.118   3.963   4.016
   48CHL1  H23B 3539   5.112   3.785   3.957
   48CHL1   C24 3540   5.237   3.817   4.128
   48CHL1  H24A 3541   5.290   3.723   4.103
   48CHL1  H24B 3542   5.310   3.889   4.171
   48CHL1   C25 3543   5.124   3.781   4.233
   48CHL1   H25 3544   5.037   3.722   4.196
   48CHL1   C26 3545   5.182   3.691   4.342
   48CHL1  H26A 3546   5.098   3.639   4.394
   48CHL1  H26B 3547   5.230   3.604   4.292
   48CHL1  H26C 3548   5.252   3.750   4.405
   48CHL1   C27 3549   5.064   3.911   4.295
   48CHL1  H27A 3550   5.150   3.964   4.341
   48CHL1  H27B 3551   5.009   3.970   4.219
   48CHL1  H27C 3552   4.985   3.891   4.371
   49CHL1    C3 3553   6.417   0.176   2.849
   49CHL1    H3 3554   6.517   0.130   2.867
   49CHL1    O3 3555   6.370   0.166   2.716
   49CHL1   H3' 3556   6.427   0.227   2.669
   49CHL1    C4 3557   6.317   0.111   2.932
   49CHL1   H4A 3558   6.212   0.145   2.918
   49CHL1   H4B 3559   6.321   0.006   2.898
   49CHL1    C5 3560   6.352   0.119   3.078
   49CHL1    C6 3561   6.363   0.008   3.153
   49CHL1    H6 3562   6.352  -0.094   3.113
   49CHL1    C7 3563   6.396   0.020   3.300
   49CHL1   H7A 3564   6.347  -0.051   3.371
   49CHL1   H7B 3565   6.504  -0.004   3.311
   49CHL1    C8 3566   6.364   0.160   3.376
   49CHL1    H8 3567   6.257   0.185   3.388
   49CHL1   C14 3568   6.440   0.175   3.512
   49CHL1   H14 3569   6.549   0.180   3.494
   49CHL1   C15 3570   6.435   0.063   3.606
   49CHL1  H15A 3571   6.326   0.046   3.619
   49CHL1  H15B 3572   6.492  -0.020   3.559
   49CHL1   C16 3573   6.489   0.111   3.736
   49CHL1  H16A 3574   6.406   0.099   3.809
   49CHL1  H16B 3575   6.583   0.062   3.769
   49CHL1   C17 3576   6.509   0.271   3.710
   49CHL1   H17 3577   6.616   0.262   3.683
   49CHL1   C13 3578   6.424   0.301   3.586
   49CHL1   C18 3579   6.275   0.315   3.627
   49CHL1  H18A 3580   6.238   0.238   3.698
   49CHL1  H18B 3581   6.254   0.418   3.664
   49CHL1  H18C 3582   6.217   0.313   3.532
   49CHL1   C12 3583   6.456   0.419   3.491
   49CHL1  H12A 3584   6.419   0.518   3.525
   49CHL1  H12B 3585   6.567   0.424   3.501
   49CHL1   C11 3586   6.398   0.406   3.354
   49CHL1  H11A 3587   6.290   0.429   3.364
   49CHL1  H11B 3588   6.438   0.479   3.281
   49CHL1    C9 3589   6.418   0.271   3.283
   49CHL1    H9 3590   6.528   0.260   3.272
   49CHL1   C10 3591   6.364   0.262   3.135
   49CHL1   C19 3592   6.230   0.338   3.121
   49CHL1  H19A 3593   6.247   0.443   3.152
   49CHL1  H19B 3594   6.203   0.355   3.014
   49CHL1  H19C 3595   6.149   0.281   3.170
   49CHL1    C1 3596   6.456   0.347   3.044
   49CHL1   H1A 3597   6.458   0.454   3.070
   49CHL1   H1B 3598   6.559   0.308   3.063
   49CHL1    C2 3599   6.433   0.323   2.887
   49CHL1   H2A 3600   6.522   0.357   2.829
   49CHL1   H2B 3601   6.337   0.374   2.862
   49CHL1   C20 3602   6.511   0.357   3.837
   49CHL1   H20 3603   6.408   0.363   3.879
   49CHL1   C21 3604   6.563   0.498   3.796
   49CHL1  H21A 3605   6.659   0.484   3.743
   49CHL1  H21B 3606   6.572   0.557   3.890
   49CHL1  H21C 3607   6.493   0.541   3.720
   49CHL1   C22 3608   6.597   0.295   3.952
   49CHL1  H22A 3609   6.577   0.186   3.962
   49CHL1  H22B 3610   6.706   0.307   3.934
   49CHL1   C23 3611   6.562   0.353   4.096
   49CHL1  H23A 3612   6.574   0.463   4.090
   49CHL1  H23B 3613   6.463   0.318   4.134
   49CHL1   C24 3614   6.665   0.303   4.197
   49CHL1  H24A 3615   6.637   0.355   4.291
   49CHL1  H24B 3616   6.648   0.195   4.214
   49CHL1   C25 3617   6.816   0.343   4.194
   49CHL1   H25 3618   6.864   0.324   4.095
   49CHL1   C26 3619   6.826   0.490   4.221
   49CHL1  H26A 3620   6.932   0.522   4.226
   49CHL1  H26B 3621   6.773   0.537   4.135
   49CHL1  H26C 3622   6.776   0.536   4.308
   49CHL1   C27 3623   6.893   0.266   4.292
   49CHL1  H27A 3624   6.867   0.277   4.399
   49CHL1  H27B 3625   6.888   0.157   4.270
   49CHL1  H27C 3626   6.999   0.296   4.276
   50CHL1    C3 3627   4.701   0.406   2.400
   50CHL1    H3 3628   4.603   0.354   2.399
   50CHL1    O3 3629   4.758   0.423   2.272
   50CHL1   H3' 3630   4.823   0.352   2.274
   50CHL1    C4 3631   4.658   0.545   2.455
   50CHL1   H4A 3632   4.744   0.615   2.462
   50CHL1   H4B 3633   4.584   0.580   2.379
   50CHL1    C5 3634   4.599   0.529   2.594
   50CHL1    C6 3635   4.473   0.578   2.623
   50CHL1    H6 3636   4.418   0.627   2.542
   50CHL1    C7 3637   4.420   0.584   2.758
   50CHL1   H7A 3638   4.384   0.688   2.772
   50CHL1   H7B 3639   4.336   0.512   2.770
   50CHL1    C8 3640   4.523   0.557   2.865
   50CHL1    H8 3641   4.578   0.653   2.871
   50CHL1   C14 3642   4.462   0.537   3.000
   50CHL1   H14 3643   4.402   0.444   2.992
   50CHL1   C15 3644   4.365   0.647   3.051
   50CHL1  H15A 3645   4.405   0.742   3.009
   50CHL1  H15B 3646   4.262   0.623   3.017
   50CHL1   C16 3647   4.371   0.640   3.202
   50CHL1  H16A 3648   4.400   0.740   3.238
   50CHL1  H16B 3649   4.275   0.615   3.253
   50CHL1   C17 3650   4.477   0.537   3.235
   50CHL1   H17 3651   4.426   0.439   3.239
   50CHL1   C13 3652   4.566   0.520   3.111
   50CHL1   C18 3653   4.670   0.644   3.111
   50CHL1  H18A 3654   4.729   0.644   3.205
   50CHL1  H18B 3655   4.725   0.645   3.014
   50CHL1  H18C 3656   4.611   0.738   3.117
   50CHL1   C12 3657   4.643   0.395   3.089
   50CHL1  H12A 3658   4.726   0.402   3.162
   50CHL1  H12B 3659   4.579   0.306   3.112
   50CHL1   C11 3660   4.704   0.379   2.948
   50CHL1  H11A 3661   4.798   0.438   2.949
   50CHL1  H11B 3662   4.742   0.278   2.927
   50CHL1    C9 3663   4.618   0.446   2.832
   50CHL1    H9 3664   4.551   0.361   2.808
   50CHL1   C10 3665   4.686   0.470   2.698
   50CHL1   C19 3666   4.800   0.573   2.721
   50CHL1  H19A 3667   4.857   0.600   2.629
   50CHL1  H19B 3668   4.767   0.670   2.765
   50CHL1  H19C 3669   4.880   0.532   2.786
   50CHL1    C1 3670   4.735   0.329   2.641
   50CHL1   H1A 3671   4.810   0.286   2.711
   50CHL1   H1B 3672   4.649   0.259   2.653
   50CHL1    C2 3673   4.800   0.336   2.499
   50CHL1   H2A 3674   4.823   0.232   2.468
   50CHL1   H2B 3675   4.895   0.393   2.511
   50CHL1   C20 3676   4.544   0.557   3.373
   50CHL1   H20 3677   4.652   0.532   3.370
   50CHL1   C21 3678   4.484   0.445   3.471
   50CHL1  H21A 3679   4.377   0.470   3.489
   50CHL1  H21B 3680   4.534   0.445   3.570
   50CHL1  H21C 3681   4.495   0.343   3.428
   50CHL1   C22 3682   4.545   0.697   3.429
   50CHL1  H22A 3683   4.603   0.765   3.363
   50CHL1  H22B 3684   4.438   0.724   3.448
   50CHL1   C23 3685   4.613   0.705   3.576
   50CHL1  H23A 3686   4.570   0.624   3.637
   50CHL1  H23B 3687   4.723   0.689   3.569
   50CHL1   C24 3688   4.592   0.841   3.641
   50CHL1  H24A 3689   4.631   0.921   3.574
   50CHL1  H24B 3690   4.485   0.863   3.663
   50CHL1   C25 3691   4.669   0.861   3.771
   50CHL1   H25 3692   4.773   0.833   3.743
   50CHL1   C26 3693   4.651   1.006   3.812
   50CHL1  H26A 3694   4.726   1.046   3.883
   50CHL1  H26B 3695   4.660   1.058   3.714
   50CHL1  H26C 3696   4.549   1.034   3.845
   50CHL1   C27 3697   4.632   0.764   3.884
   50CHL1  H27A 3698   4.639   0.805   3.987
   50CHL1  H27B 3699   4.539   0.709   3.858
   50CHL1  H27C 3700   4.707   0.682   3.879
   51CHL1    C3 3701   0.114   6.778   2.737
   51CHL1    H3 3702   0.221   6.755   2.718
   51CHL1    O3 3703   0.064   6.790   2.607
   51CHL1   H3' 3704  -0.011   6.730   2.614
   51CHL1    C4 3705   0.045   6.665   2.808
   51CHL1   H4A 3706  -0.064   6.683   2.796
   51CHL1   H4B 3707   0.066   6.573   2.750
   51CHL1    C5 3708   0.089   6.650   2.954
   51CHL1    C6 3709   0.153   6.539   2.999
   51CHL1    H6 3710   0.184   6.459   2.930
   51CHL1    C7 3711   0.199   6.535   3.149
   51CHL1   H7A 3712   0.181   6.434   3.193
   51CHL1   H7B 3713   0.310   6.542   3.146
   51CHL1    C8 3714   0.143   6.645   3.240
   51CHL1    H8 3715   0.037   6.620   3.257
   51CHL1   C14 3716   0.225   6.650   3.372
   51CHL1   H14 3717   0.320   6.706   3.366
   51CHL1   C15 3718   0.251   6.514   3.439
   51CHL1  H15A 3719   0.162   6.448   3.427
   51CHL1  H15B 3720   0.344   6.469   3.397
   51CHL1   C16 3721   0.265   6.554   3.588
   51CHL1  H16A 3722   0.186   6.490   3.632
   51CHL1  H16B 3723   0.365   6.523   3.626
   51CHL1   C17 3724   0.231   6.704   3.605
   51CHL1   H17 3725   0.324   6.765   3.597
   51CHL1   C13 3726   0.147   6.739   3.478
   51CHL1   C18 3727   0.005   6.691   3.501
   51CHL1  H18A 3728  -0.060   6.695   3.411
   51CHL1  H18B 3729   0.010   6.585   3.533
   51CHL1  H18C 3730  -0.048   6.739   3.586
   51CHL1   C12 3731   0.152   6.884   3.419
   51CHL1  H12A 3732   0.103   6.954   3.490
   51CHL1  H12B 3733   0.260   6.911   3.413
   51CHL1   C11 3734   0.085   6.893   3.283
   51CHL1  H11A 3735  -0.025   6.885   3.292
   51CHL1  H11B 3736   0.110   6.987   3.230
   51CHL1    C9 3737   0.139   6.783   3.185
   51CHL1    H9 3738   0.246   6.803   3.161
   51CHL1   C10 3739   0.069   6.780   3.043
   51CHL1   C19 3740  -0.092   6.783   3.060
   51CHL1  H19A 3741  -0.152   6.765   2.969
   51CHL1  H19B 3742  -0.118   6.714   3.143
   51CHL1  H19C 3743  -0.114   6.888   3.089
   51CHL1    C1 3744   0.115   6.907   2.960
   51CHL1   H1A 3745   0.080   6.990   3.026
   51CHL1   H1B 3746   0.225   6.905   2.975
   51CHL1    C2 3747   0.094   6.914   2.806
   51CHL1   H2A 3748   0.157   6.988   2.752
   51CHL1   H2B 3749  -0.012   6.947   2.796
   51CHL1   C20 3750   0.177   6.736   3.746
   51CHL1   H20 3751   0.085   6.677   3.764
   51CHL1   C21 3752   0.158   6.892   3.761
   51CHL1  H21A 3753   0.078   6.937   3.698
   51CHL1  H21B 3754   0.257   6.936   3.738
   51CHL1  H21C 3755   0.132   6.930   3.862
   51CHL1   C22 3756   0.270   6.684   3.853
   51CHL1  H22A 3757   0.307   6.581   3.835
   51CHL1  H22B 3758   0.360   6.750   3.851
   51CHL1   C23 3759   0.206   6.685   3.991
   51CHL1  H23A 3760   0.276   6.649   4.069
   51CHL1  H23B 3761   0.185   6.791   4.018
   51CHL1   C24 3762   0.079   6.594   4.003
   51CHL1  H24A 3763  -0.006   6.647   3.955
   51CHL1  H24B 3764   0.091   6.503   3.941
   51CHL1   C25 3765   0.044   6.565   4.152
   51CHL1   H25 3766  -0.063   6.533   4.153
   51CHL1   C26 3767   0.142   6.466   4.219
   51CHL1  H26A 3768   0.087   6.411   4.299
   51CHL1  H26B 3769   0.181   6.392   4.146
   51CHL1  H26C 3770   0.235   6.511   4.261
   51CHL1   C27 3771   0.041   6.694   4.240
   51CHL1  H27A 3772   0.004   6.782   4.183
   51CHL1  H27B 3773  -0.013   6.676   4.335
   51CHL1  H27C 3774   0.145   6.713   4.274
   52CHL1    C3 3775   5.271   2.772   2.775
   52CHL1    H3 3776   5.323   2.678   2.802
   52CHL1    O3 3777   5.292   2.788   2.635
   52CHL1   H3' 3778   5.276   2.875   2.600
   52CHL1    C4 3779   5.119   2.777   2.804
   52CHL1   H4A 3780   5.080   2.877   2.776
   52CHL1   H4B 3781   5.066   2.702   2.741
   52CHL1    C5 3782   5.096   2.761   2.951
   52CHL1    C6 3783   5.017   2.666   3.000
   52CHL1    H6 3784   4.972   2.599   2.925
   52CHL1    C7 3785   4.978   2.653   3.144
   52CHL1   H7A 3786   4.868   2.638   3.158
   52CHL1   H7B 3787   5.030   2.563   3.183
   52CHL1    C8 3788   5.021   2.774   3.229
   52CHL1    H8 3789   4.944   2.853   3.215
   52CHL1   C14 3790   5.027   2.737   3.377
   52CHL1   H14 3791   5.114   2.668   3.386
   52CHL1   C15 3792   4.912   2.659   3.438
   52CHL1  H15A 3793   4.814   2.695   3.398
   52CHL1  H15B 3794   4.924   2.553   3.410
   52CHL1   C16 3795   4.915   2.684   3.590
   52CHL1  H16A 3796   4.823   2.741   3.617
   52CHL1  H16B 3797   4.927   2.591   3.651
   52CHL1   C17 3798   5.035   2.783   3.611
   52CHL1   H17 3799   5.118   2.712   3.631
   52CHL1   C13 3800   5.064   2.852   3.473
   52CHL1   C18 3801   4.960   2.961   3.450
   52CHL1  H18A 3802   4.968   3.041   3.527
   52CHL1  H18B 3803   4.971   3.009   3.350
   52CHL1  H18C 3804   4.855   2.927   3.461
   52CHL1   C12 3805   5.198   2.900   3.434
   52CHL1  H12A 3806   5.234   2.984   3.496
   52CHL1  H12B 3807   5.270   2.817   3.452
   52CHL1   C11 3808   5.212   2.935   3.283
   52CHL1  H11A 3809   5.160   3.033   3.270
   52CHL1  H11B 3810   5.315   2.966   3.257
   52CHL1    C9 3811   5.154   2.829   3.189
   52CHL1    H9 3812   5.225   2.744   3.199
   52CHL1   C10 3813   5.163   2.866   3.043
   52CHL1   C19 3814   5.103   3.008   3.011
   52CHL1  H19A 3815   5.000   3.014   3.053
   52CHL1  H19B 3816   5.158   3.089   3.063
   52CHL1  H19C 3817   5.104   3.039   2.905
   52CHL1    C1 3818   5.316   2.873   3.009
   52CHL1   H1A 3819   5.369   2.960   3.054
   52CHL1   H1B 3820   5.377   2.788   3.046
   52CHL1    C2 3821   5.352   2.869   2.860
   52CHL1   H2A 3822   5.456   2.847   2.831
   52CHL1   H2B 3823   5.328   2.963   2.806
   52CHL1   C20 3824   5.031   2.867   3.738
   52CHL1   H20 3825   4.943   2.933   3.722
   52CHL1   C21 3826   5.163   2.942   3.756
   52CHL1  H21A 3827   5.190   2.989   3.853
   52CHL1  H21B 3828   5.177   3.030   3.690
   52CHL1  H21C 3829   5.254   2.882   3.735
   52CHL1   C22 3830   4.990   2.789   3.860
   52CHL1  H22A 3831   4.910   2.721   3.825
   52CHL1  H22B 3832   5.078   2.728   3.889
   52CHL1   C23 3833   4.940   2.877   3.979
   52CHL1  H23A 3834   5.001   2.968   3.999
   52CHL1  H23B 3835   4.841   2.919   3.953
   52CHL1   C24 3836   4.936   2.802   4.112
   52CHL1  H24A 3837   4.873   2.711   4.110
   52CHL1  H24B 3838   5.035   2.752   4.118
   52CHL1   C25 3839   4.890   2.899   4.224
   52CHL1   H25 3840   4.953   2.990   4.210
   52CHL1   C26 3841   4.738   2.933   4.230
   52CHL1  H26A 3842   4.701   3.007   4.156
   52CHL1  H26B 3843   4.675   2.841   4.224
   52CHL1  H26C 3844   4.714   2.978   4.329
   52CHL1   C27 3845   4.932   2.832   4.356
   52CHL1  H27A 3846   4.902   2.900   4.438
   52CHL1  H27B 3847   4.884   2.733   4.371
   52CHL1  H27C 3848   5.042   2.825   4.364
   53CHL1    C3 3849   1.149   0.146   2.822
   53CHL1    H3 3850   1.095   0.243   2.825
   53CHL1    O3 3851   1.144   0.115   2.686
   53CHL1   H3' 3852   1.165   0.022   2.678
   53CHL1    C4 3853   1.290   0.153   2.871
   53CHL1   H4A 3854   1.351   0.060   2.863
   53CHL1   H4B 3855   1.346   0.230   2.814
   53CHL1    C5 3856   1.270   0.201   3.020
   53CHL1    C6 3857   1.319   0.322   3.059
   53CHL1    H6 3858   1.369   0.387   2.986
   53CHL1    C7 3859   1.293   0.386   3.191
   53CHL1   H7A 3860   1.389   0.422   3.234
   53CHL1   H7B 3861   1.221   0.470   3.186
   53CHL1    C8 3862   1.241   0.288   3.292
   53CHL1    H8 3863   1.321   0.216   3.319
   53CHL1   C14 3864   1.197   0.362   3.420
   53CHL1   H14 3865   1.104   0.412   3.386
   53CHL1   C15 3866   1.285   0.463   3.492
   53CHL1  H15A 3867   1.388   0.423   3.481
   53CHL1  H15B 3868   1.286   0.560   3.438
   53CHL1   C16 3869   1.230   0.471   3.629
   53CHL1  H16A 3870   1.299   0.463   3.716
   53CHL1  H16B 3871   1.180   0.566   3.655
   53CHL1   C17 3872   1.119   0.358   3.645
   53CHL1   H17 3873   1.019   0.392   3.612
   53CHL1   C13 3874   1.154   0.263   3.529
   53CHL1   C18 3875   1.268   0.169   3.581
   53CHL1  H18A 3876   1.310   0.112   3.495
   53CHL1  H18B 3877   1.358   0.229   3.608
   53CHL1  H18C 3878   1.238   0.100   3.663
   53CHL1   C12 3879   1.032   0.195   3.466
   53CHL1  H12A 3880   0.990   0.120   3.536
   53CHL1  H12B 3881   0.953   0.265   3.431
   53CHL1   C11 3882   1.072   0.108   3.345
   53CHL1  H11A 3883   1.142   0.035   3.390
   53CHL1  H11B 3884   0.977   0.060   3.312
   53CHL1    C9 3885   1.130   0.198   3.234
   53CHL1    H9 3886   1.048   0.267   3.207
   53CHL1   C10 3887   1.178   0.119   3.118
   53CHL1   C19 3888   1.240  -0.019   3.161
   53CHL1  H19A 3889   1.273  -0.072   3.069
   53CHL1  H19B 3890   1.326   0.004   3.227
   53CHL1  H19C 3891   1.157  -0.079   3.204
   53CHL1    C1 3892   1.047   0.087   3.040
   53CHL1   H1A 3893   0.989   0.011   3.098
   53CHL1   H1B 3894   0.985   0.177   3.019
   53CHL1    C2 3895   1.071   0.042   2.897
   53CHL1   H2A 3896   0.972   0.030   2.848
   53CHL1   H2B 3897   1.114  -0.061   2.897
   53CHL1   C20 3898   1.105   0.303   3.791
   53CHL1   H20 3899   1.208   0.274   3.820
   53CHL1   C21 3900   1.013   0.177   3.811
   53CHL1  H21A 3901   0.910   0.207   3.781
   53CHL1  H21B 3902   1.030   0.147   3.917
   53CHL1  H21C 3903   1.049   0.100   3.740
   53CHL1   C22 3904   1.061   0.406   3.899
   53CHL1  H22A 3905   1.122   0.499   3.894
   53CHL1  H22B 3906   0.952   0.427   3.897
   53CHL1   C23 3907   1.083   0.363   4.044
   53CHL1  H23A 3908   1.029   0.274   4.085
   53CHL1  H23B 3909   1.189   0.330   4.049
   53CHL1   C24 3910   1.063   0.495   4.128
   53CHL1  H24A 3911   1.095   0.584   4.070
   53CHL1  H24B 3912   0.952   0.497   4.137
   53CHL1   C25 3913   1.125   0.488   4.276
   53CHL1   H25 3914   1.221   0.433   4.268
   53CHL1   C26 3915   1.151   0.627   4.322
   53CHL1  H26A 3916   1.049   0.664   4.344
   53CHL1  H26B 3917   1.211   0.624   4.416
   53CHL1  H26C 3918   1.212   0.676   4.243
   53CHL1   C27 3919   1.033   0.416   4.374
   53CHL1  H27A 3920   0.934   0.467   4.372
   53CHL1  H27B 3921   1.019   0.310   4.343
   53CHL1  H27C 3922   1.068   0.434   4.477
   54CHL1    C3 3923   0.393   0.403   2.997
   54CHL1    H3 3924   0.396   0.307   3.054
   54CHL1    O3 3925   0.393   0.372   2.864
   54CHL1   H3' 3926   0.385   0.455   2.816
   54CHL1    C4 3927   0.263   0.475   3.029
   54CHL1   H4A 3928   0.247   0.569   2.972
   54CHL1   H4B 3929   0.180   0.406   3.004
   54CHL1    C5 3930   0.254   0.525   3.180
   54CHL1    C6 3931   0.152   0.483   3.257
   54CHL1    H6 3932   0.071   0.418   3.220
   54CHL1    C7 3933   0.145   0.521   3.401
   54CHL1   H7A 3934   0.039   0.530   3.434
   54CHL1   H7B 3935   0.191   0.436   3.457
   54CHL1    C8 3936   0.232   0.642   3.442
   54CHL1    H8 3937   0.193   0.731   3.387
   54CHL1   C14 3938   0.242   0.651   3.590
   54CHL1   H14 3939   0.308   0.567   3.619
   54CHL1   C15 3940   0.113   0.631   3.668
   54CHL1  H15A 3941   0.022   0.664   3.613
   54CHL1  H15B 3942   0.096   0.525   3.697
   54CHL1   C16 3943   0.139   0.719   3.794
   54CHL1  H16A 3944   0.082   0.813   3.778
   54CHL1  H16B 3945   0.118   0.667   3.890
   54CHL1   C17 3946   0.288   0.768   3.786
   54CHL1   H17 3947   0.348   0.684   3.827
   54CHL1   C13 3948   0.313   0.781   3.637
   54CHL1   C18 3949   0.257   0.914   3.585
   54CHL1  H18A 3950   0.159   0.929   3.636
   54CHL1  H18B 3951   0.319   1.004   3.603
   54CHL1  H18C 3952   0.248   0.905   3.475
   54CHL1   C12 3953   0.458   0.766   3.586
   54CHL1  H12A 3954   0.531   0.845   3.614
   54CHL1  H12B 3955   0.497   0.678   3.641
   54CHL1   C11 3956   0.468   0.749   3.432
   54CHL1  H11A 3957   0.447   0.851   3.394
   54CHL1  H11B 3958   0.572   0.729   3.399
   54CHL1    C9 3959   0.378   0.636   3.379
   54CHL1    H9 3960   0.416   0.542   3.424
   54CHL1   C10 3961   0.379   0.615   3.222
   54CHL1   C19 3962   0.361   0.752   3.146
   54CHL1  H19A 3963   0.347   0.745   3.036
   54CHL1  H19B 3964   0.286   0.815   3.198
   54CHL1  H19C 3965   0.454   0.811   3.160
   54CHL1    C1 3966   0.509   0.556   3.174
   54CHL1   H1A 3967   0.581   0.639   3.194
   54CHL1   H1B 3968   0.528   0.477   3.249
   54CHL1    C2 3969   0.518   0.496   3.032
   54CHL1   H2A 3970   0.610   0.433   3.029
   54CHL1   H2B 3971   0.519   0.586   2.967
   54CHL1   C20 3972   0.305   0.901   3.861
   54CHL1   H20 3973   0.245   0.985   3.819
   54CHL1   C21 3974   0.450   0.953   3.865
   54CHL1  H21A 3975   0.472   0.991   3.763
   54CHL1  H21B 3976   0.522   0.876   3.901
   54CHL1  H21C 3977   0.456   1.037   3.937
   54CHL1   C22 3978   0.254   0.878   4.014
   54CHL1  H22A 3979   0.236   0.982   4.049
   54CHL1  H22B 3980   0.152   0.834   4.007
   54CHL1   C23 3981   0.338   0.797   4.112
   54CHL1  H23A 3982   0.339   0.691   4.077
   54CHL1  H23B 3983   0.442   0.835   4.103
   54CHL1   C24 3984   0.287   0.805   4.256
   54CHL1  H24A 3985   0.270   0.911   4.287
   54CHL1  H24B 3986   0.187   0.757   4.261
   54CHL1   C25 3987   0.376   0.736   4.354
   54CHL1   H25 3988   0.467   0.800   4.363
   54CHL1   C26 3989   0.316   0.719   4.494
   54CHL1  H26A 3990   0.380   0.654   4.558
   54CHL1  H26B 3991   0.308   0.815   4.549
   54CHL1  H26C 3992   0.215   0.677   4.473
   54CHL1   C27 3993   0.425   0.594   4.314
   54CHL1  H27A 3994   0.481   0.556   4.403
   54CHL1  H27B 3995   0.347   0.518   4.290
   54CHL1  H27C 3996   0.493   0.604   4.226
   55CHL1    C3 3997   5.025   1.283   2.502
   55CHL1    H3 3998   4.917   1.254   2.500
   55CHL1    O3 3999   5.084   1.271   2.370
   55CHL1   H3' 4000   5.178   1.292   2.372
   55CHL1    C4 4001   5.032   1.422   2.576
   55CHL1   H4A 4002   5.132   1.467   2.566
   55CHL1   H4B 4003   4.964   1.489   2.520
   55CHL1    C5 4004   5.001   1.413   2.721
   55CHL1    C6 4005   4.895   1.477   2.769
   55CHL1    H6 4006   4.832   1.530   2.697
   55CHL1    C7 4007   4.859   1.478   2.911
   55CHL1   H7A 4008   4.837   1.583   2.939
   55CHL1   H7B 4009   4.762   1.425   2.923
   55CHL1    C8 4010   4.956   1.415   3.006
   55CHL1    H8 4011   5.028   1.498   3.027
   55CHL1   C14 4012   4.893   1.388   3.150
   55CHL1   H14 4013   4.816   1.312   3.126
   55CHL1   C15 4014   4.829   1.506   3.224
   55CHL1  H15A 4015   4.895   1.595   3.218
   55CHL1  H15B 4016   4.728   1.535   3.186
   55CHL1   C16 4017   4.830   1.464   3.370
   55CHL1  H16A 4018   4.898   1.528   3.429
   55CHL1  H16B 4019   4.729   1.480   3.413
   55CHL1   C17 4020   4.886   1.319   3.372
   55CHL1   H17 4021   4.797   1.261   3.339
   55CHL1   C13 4022   4.986   1.321   3.250
   55CHL1   C18 4023   5.109   1.405   3.291
   55CHL1  H18A 4024   5.083   1.504   3.333
   55CHL1  H18B 4025   5.182   1.364   3.364
   55CHL1  H18C 4026   5.164   1.427   3.197
   55CHL1   C12 4027   5.037   1.195   3.196
   55CHL1  H12A 4028   5.112   1.162   3.271
   55CHL1  H12B 4029   4.950   1.126   3.189
   55CHL1   C11 4030   5.104   1.209   3.059
   55CHL1  H11A 4031   5.201   1.256   3.086
   55CHL1  H11B 4032   5.110   1.106   3.019
   55CHL1    C9 4033   5.017   1.286   2.959
   55CHL1    H9 4034   4.926   1.227   2.935
   55CHL1   C10 4035   5.075   1.309   2.814
   55CHL1   C19 4036   5.226   1.340   2.812
   55CHL1  H19A 4037   5.236   1.434   2.870
   55CHL1  H19B 4038   5.280   1.250   2.848
   55CHL1  H19C 4039   5.263   1.371   2.712
   55CHL1    C1 4040   5.068   1.178   2.740
   55CHL1   H1A 4041   5.141   1.111   2.791
   55CHL1   H1B 4042   4.963   1.141   2.744
   55CHL1    C2 4043   5.102   1.185   2.591
   55CHL1   H2A 4044   5.085   1.083   2.551
   55CHL1   H2B 4045   5.212   1.192   2.581
   55CHL1   C20 4046   4.925   1.267   3.512
   55CHL1   H20 4047   5.029   1.301   3.526
   55CHL1   C21 4048   4.907   1.113   3.504
   55CHL1  H21A 4049   4.944   1.067   3.598
   55CHL1  H21B 4050   4.971   1.057   3.433
   55CHL1  H21C 4051   4.800   1.084   3.492
   55CHL1   C22 4052   4.846   1.337   3.624
   55CHL1  H22A 4053   4.854   1.447   3.610
   55CHL1  H22B 4054   4.736   1.320   3.622
   55CHL1   C23 4055   4.897   1.303   3.768
   55CHL1  H23A 4056   4.881   1.193   3.779
   55CHL1  H23B 4057   5.007   1.316   3.753
   55CHL1   C24 4058   4.834   1.377   3.885
   55CHL1  H24A 4059   4.866   1.481   3.862
   55CHL1  H24B 4060   4.724   1.365   3.881
   55CHL1   C25 4061   4.891   1.335   4.024
   55CHL1   H25 4062   4.867   1.227   4.020
   55CHL1   C26 4063   5.039   1.358   4.046
   55CHL1  H26A 4064   5.052   1.469   4.041
   55CHL1  H26B 4065   5.070   1.318   4.144
   55CHL1  H26C 4066   5.099   1.303   3.971
   55CHL1   C27 4067   4.816   1.401   4.145
   55CHL1  H27A 4068   4.862   1.369   4.241
   55CHL1  H27B 4069   4.835   1.511   4.135
   55CHL1  H27C 4070   4.707   1.381   4.141
   56CHL1    C3 4071   5.211   0.684   2.646
   56CHL1    H3 4072   5.124   0.617   2.658
   56CHL1    O3 4073   5.239   0.723   2.512
   56CHL1   H3' 4074   5.309   0.789   2.519
   56CHL1    C4 4075   5.180   0.812   2.724
   56CHL1   H4A 4076   5.253   0.892   2.698
   56CHL1   H4B 4077   5.083   0.854   2.689
   56CHL1    C5 4078   5.182   0.791   2.873
   56CHL1    C6 4079   5.077   0.829   2.942
   56CHL1    H6 4080   5.000   0.888   2.889
   56CHL1    C7 4081   5.062   0.809   3.088
   56CHL1   H7A 4082   5.031   0.901   3.142
   56CHL1   H7B 4083   4.974   0.741   3.095
   56CHL1    C8 4084   5.184   0.751   3.166
   56CHL1    H8 4085   5.253   0.835   3.187
   56CHL1   C14 4086   5.138   0.684   3.294
   56CHL1   H14 4087   5.061   0.607   3.271
   56CHL1   C15 4088   5.054   0.776   3.385
   56CHL1  H15A 4089   5.095   0.879   3.384
   56CHL1  H15B 4090   4.949   0.782   3.349
   56CHL1   C16 4091   5.051   0.702   3.521
   56CHL1  H16A 4092   5.079   0.778   3.598
   56CHL1  H16B 4093   4.953   0.654   3.543
   56CHL1   C17 4094   5.160   0.588   3.510
   56CHL1   H17 4095   5.110   0.493   3.482
   56CHL1   C13 4096   5.245   0.630   3.383
   56CHL1   C18 4097   5.356   0.747   3.417
   56CHL1  H18A 4098   5.304   0.822   3.480
   56CHL1  H18B 4099   5.441   0.697   3.468
   56CHL1  H18C 4100   5.394   0.792   3.323
   56CHL1   C12 4101   5.317   0.519   3.302
   56CHL1  H12A 4102   5.407   0.486   3.358
   56CHL1  H12B 4103   5.251   0.431   3.289
   56CHL1   C11 4104   5.360   0.559   3.162
   56CHL1  H11A 4105   5.454   0.618   3.167
   56CHL1  H11B 4106   5.384   0.472   3.099
   56CHL1    C9 4107   5.256   0.643   3.080
   56CHL1    H9 4108   5.174   0.569   3.069
   56CHL1   C10 4109   5.291   0.697   2.939
   56CHL1   C19 4110   5.420   0.779   2.956
   56CHL1  H19A 4111   5.436   0.840   2.865
   56CHL1  H19B 4112   5.405   0.853   3.038
   56CHL1  H19C 4113   5.507   0.713   2.976
   56CHL1    C1 4114   5.322   0.583   2.849
   56CHL1   H1A 4115   5.416   0.535   2.884
   56CHL1   H1B 4116   5.236   0.513   2.860
   56CHL1    C2 4117   5.335   0.615   2.701
   56CHL1   H2A 4118   5.353   0.519   2.648
   56CHL1   H2B 4119   5.426   0.678   2.696
   56CHL1   C20 4120   5.244   0.561   3.634
   56CHL1   H20 4121   5.292   0.656   3.665
   56CHL1   C21 4122   5.344   0.448   3.610
   56CHL1  H21A 4123   5.373   0.412   3.711
   56CHL1  H21B 4124   5.441   0.481   3.567
   56CHL1  H21C 4125   5.305   0.359   3.556
   56CHL1   C22 4126   5.147   0.519   3.750
   56CHL1  H22A 4127   5.077   0.604   3.766
   56CHL1  H22B 4128   5.091   0.427   3.721
   56CHL1   C23 4129   5.216   0.486   3.882
   56CHL1  H23A 4130   5.271   0.390   3.867
   56CHL1  H23B 4131   5.288   0.568   3.904
   56CHL1   C24 4132   5.115   0.457   3.998
   56CHL1  H24A 4133   5.041   0.537   4.016
   56CHL1  H24B 4134   5.044   0.377   3.970
   56CHL1   C25 4135   5.169   0.427   4.135
   56CHL1   H25 4136   5.243   0.502   4.171
   56CHL1   C26 4137   5.059   0.427   4.238
   56CHL1  H26A 4138   5.087   0.391   4.339
   56CHL1  H26B 4139   5.013   0.529   4.241
   56CHL1  H26C 4140   4.977   0.361   4.203
   56CHL1   C27 4141   5.233   0.293   4.141
   56CHL1  H27A 4142   5.312   0.284   4.063
   56CHL1  H27B 4143   5.263   0.267   4.245
   56CHL1  H27C 4144   5.160   0.219   4.103
   57SAPC     N 4145   6.155   0.995   6.981
   57SAPC   C12 4146   6.230   0.926   6.870
   57SAPC  H12A 4147   6.235   0.984   6.779
   57SAPC  H12B 4148   6.183   0.837   6.831
   57SAPC   C13 4149   6.008   1.031   6.939
   57SAPC  H13A 4150   6.000   1.124   6.884
   57SAPC  H13B 4151   5.964   0.947   6.889
   57SAPC  H13C 4152   5.952   1.064   7.026
   57SAPC   C14 4153   6.141   0.896   7.089
   57SAPC  H14A 4154   6.234   0.858   7.130
   57SAPC  H14B 4155   6.087   0.949   7.165
   57SAPC  H14C 4156   6.082   0.812   7.055
   57SAPC   C15 4157   6.220   1.115   7.041
   57SAPC  H15A 4158   6.207   1.199   6.974
   57SAPC  H15B 4159   6.197   1.145   7.142
   57SAPC  H15C 4160   6.325   1.087   7.044
   57SAPC   C11 4161   6.375   0.879   6.904
   57SAPC  H11A 4162   6.403   0.809   6.822
   57SAPC  H11B 4163   6.384   0.826   7.001
   57SAPC     P 4164   6.502   1.078   6.793
   57SAPC   O13 4165   6.423   1.201   6.792
   57SAPC   O14 4166   6.646   1.092   6.819
   57SAPC   O12 4167   6.466   0.987   6.913
   57SAPC   O11 4168   6.469   0.997   6.664
   57SAPC    C1 4169   6.560   0.897   6.610
   57SAPC    HA 4170   6.665   0.896   6.646
   57SAPC    HB 4171   6.517   0.797   6.636
   57SAPC    C2 4172   6.559   0.908   6.451
   57SAPC    HS 4173   6.616   1.001   6.431
   57SAPC   O21 4174   6.423   0.913   6.396
   57SAPC   C21 4175   6.393   1.011   6.325
   57SAPC   O22 4176   6.464   1.105   6.287
   57SAPC   C22 4177   6.248   0.988   6.282
   57SAPC   H2R 4178   6.242   0.878   6.274
   57SAPC   H2S 4179   6.181   1.010   6.367
   57SAPC    C3 4180   6.643   0.794   6.383
   57SAPC    HX 4181   6.580   0.703   6.396
   57SAPC    HY 4182   6.730   0.773   6.448
   57SAPC   O31 4183   6.674   0.809   6.248
   57SAPC   C31 4184   6.781   0.868   6.209
   57SAPC   O32 4185   6.868   0.910   6.291
   57SAPC   C32 4186   6.784   0.888   6.055
   57SAPC   H2X 4187   6.698   0.955   6.033
   57SAPC   H2Y 4188   6.777   0.791   6.000
   57SAPC   C23 4189   6.214   1.055   6.139
   57SAPC   H3R 4190   6.310   1.049   6.083
   57SAPC   H3S 4191   6.204   1.162   6.166
   57SAPC   C24 4192   6.111   0.985   6.045
   57SAPC   H4R 4193   6.033   0.968   6.122
   57SAPC   H4S 4194   6.141   0.887   6.003
   57SAPC   C25 4195   6.064   1.078   5.941
   57SAPC   H5R 4196   6.102   1.181   5.944
   57SAPC   C26 4197   6.009   1.052   5.821
   57SAPC   H6R 4198   5.985   1.136   5.754
   57SAPC   C27 4199   5.998   0.907   5.774
   57SAPC   H7R 4200   5.969   0.845   5.862
   57SAPC   H7S 4201   6.096   0.862   5.747
   57SAPC   C28 4202   5.905   0.873   5.664
   57SAPC   H8R 4203   5.800   0.861   5.695
   57SAPC   C29 4204   5.932   0.860   5.531
   57SAPC   H9R 4205   5.848   0.843   5.462
   57SAPC  C210 4206   6.060   0.886   5.463
   57SAPC  H10R 4207   6.134   0.806   5.484
   57SAPC  H10S 4208   6.106   0.971   5.518
   57SAPC  C211 4209   6.057   0.935   5.319
   57SAPC  H11R 4210   6.024   1.040   5.309
   57SAPC  C212 4211   6.052   0.855   5.215
   57SAPC  H12R 4212   6.053   0.901   5.114
   57SAPC  C213 4213   6.034   0.710   5.214
   57SAPC  H13R 4214   6.014   0.666   5.314
   57SAPC  H13S 4215   6.136   0.681   5.180
   57SAPC  C214 4216   5.943   0.681   5.101
   57SAPC  H14R 4217   5.835   0.695   5.116
   57SAPC  C215 4218   5.985   0.647   4.975
   57SAPC  H15R 4219   5.908   0.653   4.897
   57SAPC  C216 4220   6.123   0.605   4.928
   57SAPC  H16R 4221   6.186   0.565   5.010
   57SAPC  H16S 4222   6.176   0.696   4.892
   57SAPC  C217 4223   6.132   0.502   4.807
   57SAPC  H17R 4224   6.229   0.525   4.758
   57SAPC  H17S 4225   6.059   0.526   4.726
   57SAPC  C218 4226   6.106   0.352   4.841
   57SAPC  H18R 4227   6.014   0.345   4.903
   57SAPC  H18S 4228   6.195   0.310   4.893
   57SAPC  C219 4229   6.083   0.263   4.719
   57SAPC  H19R 4230   6.093   0.159   4.757
   57SAPC  H19S 4231   6.163   0.287   4.645
   57SAPC  C220 4232   5.941   0.273   4.659
   57SAPC  H20R 4233   5.951   0.259   4.550
   57SAPC  H20S 4234   5.885   0.363   4.693
   57SAPC  H20T 4235   5.882   0.186   4.694
   57SAPC   C33 4236   6.918   0.950   6.010
   57SAPC   H3X 4237   7.005   0.885   6.032
   57SAPC   H3Y 4238   6.926   1.049   6.059
   57SAPC   C34 4239   6.914   0.973   5.856
   57SAPC   H4X 4240   6.929   0.873   5.810
   57SAPC   H4Y 4241   7.002   1.040   5.841
   57SAPC   C35 4242   6.789   1.040   5.796
   57SAPC   H5X 4243   6.770   1.135   5.850
   57SAPC   H5Y 4244   6.706   0.968   5.815
   57SAPC   C36 4245   6.802   1.079   5.650
   57SAPC   H6X 4246   6.898   1.133   5.635
   57SAPC   H6Y 4247   6.730   1.157   5.617
   57SAPC   C37 4248   6.784   0.958   5.569
   57SAPC   H7X 4249   6.688   0.907   5.593
   57SAPC   H7Y 4250   6.860   0.882   5.598
   57SAPC   C38 4251   6.809   1.002   5.426
   57SAPC   H8X 4252   6.775   1.107   5.417
   57SAPC   H8Y 4253   6.754   0.936   5.356
   57SAPC   C39 4254   6.957   0.998   5.397
   57SAPC   H9X 4255   7.006   0.903   5.428
   57SAPC   H9Y 4256   7.005   1.075   5.461
   57SAPC  C310 4257   6.988   1.044   5.255
   57SAPC  H10X 4258   7.089   1.088   5.257
   57SAPC  H10Y 4259   6.923   1.129   5.225
   57SAPC  C311 4260   6.984   0.938   5.149
   57SAPC  H11X 4261   6.896   0.872   5.134
   57SAPC  H11Y 4262   7.070   0.872   5.173
   57SAPC  C312 4263   7.008   0.992   5.009
   57SAPC  H12X 4264   7.060   0.924   4.938
   57SAPC  H12Y 4265   7.084   1.074   5.012
   57SAPC  C313 4266   6.875   1.041   4.942
   57SAPC  H13X 4267   6.828   1.120   5.004
   57SAPC  H13Y 4268   6.808   0.953   4.936
   57SAPC  C314 4269   6.909   1.096   4.801
   57SAPC  H14X 4270   6.961   1.013   4.749
   57SAPC  H14Y 4271   6.978   1.183   4.803
   57SAPC  C315 4272   6.782   1.127   4.715
   57SAPC  H15X 4273   6.710   1.187   4.774
   57SAPC  H15Y 4274   6.725   1.034   4.696
   57SAPC  C316 4275   6.830   1.199   4.584
   57SAPC  H16X 4276   6.880   1.115   4.532
   57SAPC  H16Y 4277   6.897   1.287   4.595
   57SAPC  C317 4278   6.710   1.246   4.496
   57SAPC  H17X 4279   6.656   1.328   4.547
   57SAPC  H17Y 4280   6.637   1.164   4.482
   57SAPC  C318 4281   6.763   1.286   4.361
   57SAPC  H18X 4282   6.819   1.207   4.309
   57SAPC  H18Y 4283   6.833   1.372   4.365
   57SAPC  H18Z 4284   6.676   1.318   4.300
   58SAPC     N 4285   3.021   0.115   6.544
   58SAPC   C12 4286   3.116   0.145   6.427
   58SAPC  H12A 4287   3.067   0.184   6.339
   58SAPC  H12B 4288   3.160   0.056   6.385
   58SAPC   C13 4289   2.944   0.240   6.577
   58SAPC  H13A 4290   2.871   0.267   6.502
   58SAPC  H13B 4291   2.892   0.233   6.671
   58SAPC  H13C 4292   3.021   0.316   6.582
   58SAPC   C14 4293   2.929   0.002   6.509
   58SAPC  H14A 4294   2.886  -0.036   6.601
   58SAPC  H14B 4295   2.850   0.030   6.441
   58SAPC  H14C 4296   2.989  -0.077   6.466
   58SAPC   C15 4297   3.107   0.080   6.666
   58SAPC  H15A 4298   3.177   0.003   6.637
   58SAPC  H15B 4299   3.151   0.175   6.692
   58SAPC  H15C 4300   3.043   0.045   6.746
   58SAPC   C11 4301   3.240   0.238   6.450
   58SAPC  H11A 4302   3.314   0.241   6.367
   58SAPC  H11B 4303   3.296   0.196   6.537
   58SAPC     P 4304   3.150   0.468   6.365
   58SAPC   O13 4305   3.036   0.543   6.424
   58SAPC   O14 4306   3.262   0.551   6.323
   58SAPC   O12 4307   3.202   0.372   6.480
   58SAPC   O11 4308   3.095   0.379   6.245
   58SAPC    C1 4309   3.172   0.365   6.126
   58SAPC    HA 4310   3.273   0.408   6.140
   58SAPC    HB 4311   3.184   0.258   6.098
   58SAPC    C2 4312   3.101   0.436   6.007
   58SAPC    HS 4313   3.096   0.546   6.020
   58SAPC   O21 4314   2.965   0.392   6.001
   58SAPC   C21 4315   2.870   0.470   5.960
   58SAPC   O22 4316   2.884   0.582   5.920
   58SAPC   C22 4317   2.726   0.409   5.953
   58SAPC   H2R 4318   2.667   0.430   6.046
   58SAPC   H2S 4319   2.681   0.465   5.869
   58SAPC    C3 4320   3.175   0.408   5.875
   58SAPC    HX 4321   3.110   0.421   5.786
   58SAPC    HY 4322   3.188   0.298   5.879
   58SAPC   O31 4323   3.297   0.476   5.850
   58SAPC   C31 4324   3.287   0.591   5.784
   58SAPC   O32 4325   3.182   0.657   5.758
   58SAPC   C32 4326   3.435   0.634   5.757
   58SAPC   H2X 4327   3.487   0.549   5.708
   58SAPC   H2Y 4328   3.486   0.657   5.853
   58SAPC   C23 4329   2.735   0.261   5.912
   58SAPC   H3R 4330   2.765   0.197   5.998
   58SAPC   H3S 4331   2.808   0.230   5.834
   58SAPC   C24 4332   2.597   0.207   5.883
   58SAPC   H4R 4333   2.555   0.277   5.807
   58SAPC   H4S 4334   2.536   0.215   5.975
   58SAPC   C25 4335   2.602   0.063   5.830
   58SAPC   H5R 4336   2.625  -0.018   5.901
   58SAPC   C26 4337   2.585   0.028   5.700
   58SAPC   H6R 4338   2.617  -0.076   5.683
   58SAPC   C27 4339   2.541   0.112   5.581
   58SAPC   H7R 4340   2.627   0.152   5.522
   58SAPC   H7S 4341   2.484   0.202   5.612
   58SAPC   C28 4342   2.448   0.016   5.499
   58SAPC   H8R 4343   2.367  -0.020   5.563
   58SAPC   C29 4344   2.449  -0.005   5.364
   58SAPC   H9R 4345   2.384  -0.083   5.320
   58SAPC  C210 4346   2.561   0.055   5.280
   58SAPC  H10R 4347   2.604  -0.019   5.209
   58SAPC  H10S 4348   2.653   0.060   5.341
   58SAPC  C211 4349   2.529   0.190   5.226
   58SAPC  H11R 4350   2.504   0.269   5.298
   58SAPC  C212 4351   2.531   0.218   5.093
   58SAPC  H12R 4352   2.512   0.322   5.063
   58SAPC  C213 4353   2.562   0.113   4.982
   58SAPC  H13R 4354   2.493   0.117   4.895
   58SAPC  H13S 4355   2.566   0.009   5.020
   58SAPC  C214 4356   2.697   0.160   4.936
   58SAPC  H14R 4357   2.760   0.201   5.016
   58SAPC  C215 4358   2.753   0.142   4.822
   58SAPC  H15R 4359   2.855   0.180   4.803
   58SAPC  C216 4360   2.695   0.074   4.705
   58SAPC  H16R 4361   2.625  -0.007   4.734
   58SAPC  H16S 4362   2.778   0.030   4.646
   58SAPC  C217 4363   2.601   0.163   4.629
   58SAPC  H17R 4364   2.635   0.267   4.610
   58SAPC  H17S 4365   2.504   0.176   4.683
   58SAPC  C218 4366   2.556   0.117   4.487
   58SAPC  H18R 4367   2.484   0.035   4.504
   58SAPC  H18S 4368   2.649   0.095   4.431
   58SAPC  C219 4369   2.471   0.221   4.403
   58SAPC  H19R 4370   2.396   0.253   4.478
   58SAPC  H19S 4371   2.416   0.161   4.327
   58SAPC  C220 4372   2.546   0.344   4.341
   58SAPC  H20R 4373   2.627   0.328   4.267
   58SAPC  H20S 4374   2.581   0.409   4.424
   58SAPC  H20T 4375   2.470   0.403   4.285
   58SAPC   C33 4376   3.443   0.764   5.669
   58SAPC   H3X 4377   3.508   0.843   5.715
   58SAPC   H3Y 4378   3.347   0.820   5.670
   58SAPC   C34 4379   3.487   0.727   5.528
   58SAPC   H4X 4380   3.418   0.652   5.483
   58SAPC   H4Y 4381   3.586   0.678   5.535
   58SAPC   C35 4382   3.492   0.836   5.426
   58SAPC   H5X 4383   3.562   0.916   5.459
   58SAPC   H5Y 4384   3.397   0.893   5.419
   58SAPC   C36 4385   3.545   0.798   5.285
   58SAPC   H6X 4386   3.471   0.726   5.244
   58SAPC   H6Y 4387   3.632   0.729   5.291
   58SAPC   C37 4388   3.559   0.911   5.180
   58SAPC   H7X 4389   3.645   0.979   5.197
   58SAPC   H7Y 4390   3.470   0.977   5.184
   58SAPC   C38 4391   3.580   0.852   5.043
   58SAPC   H8X 4392   3.491   0.814   4.989
   58SAPC   H8Y 4393   3.649   0.766   5.056
   58SAPC   C39 4394   3.642   0.950   4.942
   58SAPC   H9X 4395   3.746   0.977   4.972
   58SAPC   H9Y 4396   3.582   1.040   4.918
   58SAPC  C310 4397   3.649   0.877   4.806
   58SAPC  H10X 4398   3.556   0.823   4.781
   58SAPC  H10Y 4399   3.736   0.807   4.807
   58SAPC  C311 4400   3.683   0.976   4.694
   58SAPC  H11X 4401   3.740   1.068   4.721
   58SAPC  H11Y 4402   3.585   1.019   4.663
   58SAPC  C312 4403   3.752   0.908   4.577
   58SAPC  H12X 4404   3.706   0.808   4.560
   58SAPC  H12Y 4405   3.854   0.895   4.619
   58SAPC  C313 4406   3.751   0.994   4.451
   58SAPC  H13X 4407   3.799   0.948   4.362
   58SAPC  H13Y 4408   3.791   1.095   4.474
   58SAPC  C314 4409   3.616   1.041   4.398
   58SAPC  H14X 4410   3.635   1.093   4.301
   58SAPC  H14Y 4411   3.571   1.114   4.469
   58SAPC  C315 4412   3.516   0.922   4.377
   58SAPC  H15X 4413   3.493   0.865   4.470
   58SAPC  H15Y 4414   3.560   0.845   4.310
   58SAPC  C316 4415   3.384   0.965   4.314
   58SAPC  H16X 4416   3.339   1.057   4.358
   58SAPC  H16Y 4417   3.310   0.890   4.349
   58SAPC  C317 4418   3.394   0.972   4.160
   58SAPC  H17X 4419   3.496   0.995   4.124
   58SAPC  H17Y 4420   3.314   1.041   4.125
   58SAPC  C318 4421   3.376   0.834   4.100
   58SAPC  H18X 4422   3.402   0.827   3.993
   58SAPC  H18Y 4423   3.276   0.791   4.123
   58SAPC  H18Z 4424   3.445   0.766   4.154
   59SAPC     N 4425   1.491   2.989   7.423
   59SAPC   C12 4426   1.446   2.924   7.293
   59SAPC  H12A 4427   1.340   2.920   7.276
   59SAPC  H12B 4428   1.488   2.825   7.293
   59SAPC   C13 4429   1.466   3.138   7.415
   59SAPC  H13A 4430   1.492   3.202   7.497
   59SAPC  H13B 4431   1.518   3.169   7.325
   59SAPC  H13C 4432   1.360   3.157   7.407
   59SAPC   C14 4433   1.412   2.929   7.534
   59SAPC  H14A 4434   1.440   2.969   7.630
   59SAPC  H14B 4435   1.307   2.950   7.517
   59SAPC  H14C 4436   1.426   2.822   7.535
   59SAPC   C15 4437   1.633   2.958   7.439
   59SAPC  H15A 4438   1.671   3.002   7.530
   59SAPC  H15B 4439   1.657   2.852   7.440
   59SAPC  H15C 4440   1.694   3.001   7.360
   59SAPC   C11 4441   1.492   2.998   7.168
   59SAPC  H11A 4442   1.478   3.108   7.165
   59SAPC  H11B 4443   1.455   2.951   7.074
   59SAPC     P 4444   1.714   2.870   7.102
   59SAPC   O13 4445   1.856   2.886   7.145
   59SAPC   O14 4446   1.647   2.742   7.139
   59SAPC   O12 4447   1.636   2.984   7.151
   59SAPC   O11 4448   1.704   2.873   6.943
   59SAPC    C1 4449   1.715   2.998   6.869
   59SAPC    HA 4450   1.678   3.084   6.928
   59SAPC    HB 4451   1.820   3.018   6.840
   59SAPC    C2 4452   1.634   3.002   6.734
   59SAPC    HS 4453   1.537   2.951   6.755
   59SAPC   O21 4454   1.710   2.934   6.635
   59SAPC   C21 4455   1.640   2.869   6.539
   59SAPC   O22 4456   1.520   2.858   6.541
   59SAPC   C22 4457   1.728   2.819   6.430
   59SAPC   H2R 4458   1.799   2.899   6.403
   59SAPC   H2S 4459   1.777   2.732   6.478
   59SAPC    C3 4460   1.602   3.145   6.698
   59SAPC    HX 4461   1.687   3.214   6.715
   59SAPC    HY 4462   1.518   3.178   6.763
   59SAPC   O31 4463   1.553   3.160   6.562
   59SAPC   C31 4464   1.641   3.189   6.476
   59SAPC   O32 4465   1.761   3.185   6.485
   59SAPC   C32 4466   1.572   3.237   6.345
   59SAPC   H2X 4467   1.483   3.296   6.374
   59SAPC   H2Y 4468   1.518   3.153   6.296
   59SAPC   C23 4469   1.655   2.784   6.300
   59SAPC   H3R 4470   1.549   2.756   6.316
   59SAPC   H3S 4471   1.705   2.696   6.254
   59SAPC   C24 4472   1.655   2.898   6.195
   59SAPC   H4R 4473   1.740   2.968   6.208
   59SAPC   H4S 4474   1.572   2.965   6.226
   59SAPC   C25 4475   1.648   2.838   6.060
   59SAPC   H5R 4476   1.553   2.788   6.036
   59SAPC   C26 4477   1.747   2.837   5.964
   59SAPC   H6R 4478   1.722   2.794   5.866
   59SAPC   C27 4479   1.877   2.900   5.989
   59SAPC   H7R 4480   1.905   2.891   6.096
   59SAPC   H7S 4481   1.865   3.009   5.972
   59SAPC   C28 4482   2.002   2.856   5.909
   59SAPC   H8R 4483   2.050   2.772   5.961
   59SAPC   C29 4484   2.049   2.905   5.792
   59SAPC   H9R 4485   2.142   2.862   5.753
   59SAPC  C210 4486   1.996   3.021   5.705
   59SAPC  H10R 4487   1.936   3.095   5.764
   59SAPC  H10S 4488   1.914   2.979   5.642
   59SAPC  C211 4489   2.097   3.088   5.616
   59SAPC  H11R 4490   2.166   3.152   5.674
   59SAPC  C212 4491   2.101   3.072   5.482
   59SAPC  H12R 4492   2.194   3.108   5.436
   59SAPC  C213 4493   2.012   2.995   5.391
   59SAPC  H13R 4494   2.028   3.028   5.286
   59SAPC  H13S 4495   1.904   3.018   5.398
   59SAPC  C214 4496   2.021   2.846   5.407
   59SAPC  H14R 4497   2.021   2.816   5.513
   59SAPC  C215 4498   2.018   2.748   5.318
   59SAPC  H15R 4499   2.024   2.642   5.348
   59SAPC  C216 4500   1.995   2.775   5.172
   59SAPC  H16R 4501   1.941   2.872   5.160
   59SAPC  H16S 4502   1.930   2.693   5.135
   59SAPC  C217 4503   2.126   2.786   5.093
   59SAPC  H17R 4504   2.178   2.691   5.117
   59SAPC  H17S 4505   2.185   2.875   5.127
   59SAPC  C218 4506   2.101   2.786   4.943
   59SAPC  H18R 4507   2.042   2.878   4.924
   59SAPC  H18S 4508   2.030   2.702   4.932
   59SAPC  C219 4509   2.237   2.777   4.866
   59SAPC  H19R 4510   2.283   2.680   4.894
   59SAPC  H19S 4511   2.303   2.863   4.889
   59SAPC  C220 4512   2.212   2.795   4.719
   59SAPC  H20R 4513   2.114   2.749   4.693
   59SAPC  H20S 4514   2.298   2.751   4.664
   59SAPC  H20T 4515   2.209   2.903   4.692
   59SAPC   C33 4516   1.663   3.301   6.237
   59SAPC   H3X 4517   1.768   3.266   6.246
   59SAPC   H3Y 4518   1.652   3.411   6.253
   59SAPC   C34 4519   1.609   3.257   6.106
   59SAPC   H4X 4520   1.500   3.276   6.111
   59SAPC   H4Y 4521   1.610   3.146   6.095
   59SAPC   C35 4522   1.674   3.324   5.983
   59SAPC   H5X 4523   1.783   3.319   6.004
   59SAPC   H5Y 4524   1.642   3.430   5.986
   59SAPC   C36 4525   1.642   3.245   5.858
   59SAPC   H6X 4526   1.532   3.241   5.843
   59SAPC   H6Y 4527   1.684   3.143   5.859
   59SAPC   C37 4528   1.691   3.319   5.724
   59SAPC   H7X 4529   1.801   3.339   5.731
   59SAPC   H7Y 4530   1.639   3.416   5.712
   59SAPC   C38 4531   1.661   3.245   5.599
   59SAPC   H8X 4532   1.554   3.229   5.576
   59SAPC   H8Y 4533   1.714   3.148   5.610
   59SAPC   C39 4534   1.717   3.310   5.472
   59SAPC   H9X 4535   1.828   3.313   5.474
   59SAPC   H9Y 4536   1.689   3.416   5.459
   59SAPC  C310 4537   1.682   3.225   5.344
   59SAPC  H10X 4538   1.574   3.239   5.326
   59SAPC  H10Y 4539   1.685   3.117   5.369
   59SAPC  C311 4540   1.764   3.254   5.219
   59SAPC  H11X 4541   1.861   3.202   5.229
   59SAPC  H11Y 4542   1.784   3.364   5.214
   59SAPC  C312 4543   1.680   3.223   5.085
   59SAPC  H12X 4544   1.587   3.283   5.078
   59SAPC  H12Y 4545   1.652   3.117   5.101
   59SAPC  C313 4546   1.757   3.214   4.953
   59SAPC  H13X 4547   1.858   3.176   4.981
   59SAPC  H13Y 4548   1.775   3.315   4.910
   59SAPC  C314 4549   1.690   3.127   4.851
   59SAPC  H14X 4550   1.603   3.181   4.809
   59SAPC  H14Y 4551   1.640   3.039   4.896
   59SAPC  C315 4552   1.775   3.097   4.726
   59SAPC  H15X 4553   1.877   3.078   4.766
   59SAPC  H15Y 4554   1.779   3.180   4.652
   59SAPC  C316 4555   1.726   2.981   4.654
   59SAPC  H16X 4556   1.615   2.994   4.652
   59SAPC  H16Y 4557   1.750   2.890   4.713
   59SAPC  C317 4558   1.793   2.981   4.515
   59SAPC  H17X 4559   1.762   3.072   4.459
   59SAPC  H17Y 4560   1.761   2.885   4.469
   59SAPC  C318 4561   1.945   2.987   4.521
   59SAPC  H18X 4562   1.980   3.085   4.559
   59SAPC  H18Y 4563   1.977   2.950   4.422
   59SAPC  H18Z 4564   1.990   2.916   4.594
   60SAPC     N 4565   1.609   4.125   6.703
   60SAPC   C12 4566   1.630   4.283   6.697
   60SAPC  H12A 4567   1.736   4.296   6.712
   60SAPC  H12B 4568   1.585   4.325   6.786
   60SAPC   C13 4569   1.689   4.059   6.596
   60SAPC  H13A 4570   1.663   4.108   6.503
   60SAPC  H13B 4571   1.795   4.075   6.612
   60SAPC  H13C 4572   1.663   3.954   6.593
   60SAPC   C14 4573   1.636   4.066   6.844
   60SAPC  H14A 4574   1.652   3.960   6.838
   60SAPC  H14B 4575   1.728   4.109   6.881
   60SAPC  H14C 4576   1.557   4.096   6.911
   60SAPC   C15 4577   1.461   4.108   6.677
   60SAPC  H15A 4578   1.399   4.182   6.726
   60SAPC  H15B 4579   1.440   4.136   6.575
   60SAPC  H15C 4580   1.434   4.007   6.704
   60SAPC   C11 4581   1.581   4.358   6.566
   60SAPC  H11A 4582   1.593   4.468   6.570
   60SAPC  H11B 4583   1.471   4.344   6.559
   60SAPC     P 4584   1.812   4.358   6.441
   60SAPC   O13 4585   1.818   4.503   6.428
   60SAPC   O14 4586   1.887   4.292   6.546
   60SAPC   O12 4587   1.654   4.315   6.443
   60SAPC   O11 4588   1.865   4.297   6.308
   60SAPC    C1 4589   1.823   4.175   6.258
   60SAPC    HA 4590   1.900   4.096   6.265
   60SAPC    HB 4591   1.744   4.124   6.319
   60SAPC    C2 4592   1.771   4.179   6.110
   60SAPC    HS 4593   1.735   4.077   6.083
   60SAPC   O21 4594   1.866   4.226   6.017
   60SAPC   C21 4595   1.966   4.134   5.991
   60SAPC   O22 4596   1.977   4.019   6.038
   60SAPC   C22 4597   2.071   4.188   5.890
   60SAPC   H2R 4598   2.124   4.265   5.950
   60SAPC   H2S 4599   2.137   4.102   5.865
   60SAPC    C3 4600   1.646   4.280   6.099
   60SAPC    HX 4601   1.658   4.368   6.166
   60SAPC    HY 4602   1.562   4.226   6.148
   60SAPC   O31 4603   1.608   4.309   5.960
   60SAPC   C31 4604   1.662   4.418   5.909
   60SAPC   O32 4605   1.737   4.502   5.960
   60SAPC   C32 4606   1.634   4.402   5.755
   60SAPC   H2X 4607   1.523   4.401   5.747
   60SAPC   H2Y 4608   1.672   4.303   5.726
   60SAPC   C23 4609   2.008   4.254   5.759
   60SAPC   H3R 4610   2.089   4.315   5.714
   60SAPC   H3S 4611   1.926   4.325   5.785
   60SAPC   C24 4612   1.957   4.144   5.672
   60SAPC   H4R 4613   1.870   4.188   5.619
   60SAPC   H4S 4614   1.909   4.057   5.721
   60SAPC   C25 4615   2.060   4.096   5.574
   60SAPC   H5R 4616   2.106   3.998   5.594
   60SAPC   C26 4617   2.092   4.145   5.455
   60SAPC   H6R 4618   2.170   4.093   5.397
   60SAPC   C27 4619   2.019   4.259   5.382
   60SAPC   H7R 4620   2.021   4.353   5.442
   60SAPC   H7S 4621   1.913   4.228   5.372
   60SAPC   C28 4622   2.067   4.280   5.245
   60SAPC   H8R 4623   2.154   4.346   5.240
   60SAPC   C29 4624   2.014   4.216   5.141
   60SAPC   H9R 4625   2.032   4.256   5.040
   60SAPC  C210 4626   1.915   4.103   5.142
   60SAPC  H10R 4627   1.899   4.066   5.245
   60SAPC  H10S 4628   1.962   4.022   5.082
   60SAPC  C211 4629   1.783   4.133   5.082
   60SAPC  H11R 4630   1.716   4.176   5.157
   60SAPC  C212 4631   1.735   4.112   4.957
   60SAPC  H12R 4632   1.636   4.153   4.935
   60SAPC  C213 4633   1.817   4.051   4.846
   60SAPC  H13R 4634   1.784   3.948   4.822
   60SAPC  H13S 4635   1.922   4.032   4.877
   60SAPC  C214 4636   1.817   4.133   4.714
   60SAPC  H14R 4637   1.827   4.243   4.721
   60SAPC  C215 4638   1.750   4.105   4.599
   60SAPC  H15R 4639   1.748   4.182   4.520
   60SAPC  C216 4640   1.680   3.977   4.552
   60SAPC  H16R 4641   1.643   3.930   4.645
   60SAPC  H16S 4642   1.739   3.900   4.497
   60SAPC  C217 4643   1.545   4.015   4.485
   60SAPC  H17R 4644   1.561   4.043   4.379
   60SAPC  H17S 4645   1.494   4.101   4.534
   60SAPC  C218 4646   1.442   3.894   4.479
   60SAPC  H18R 4647   1.376   3.900   4.568
   60SAPC  H18S 4648   1.494   3.796   4.475
   60SAPC  C219 4649   1.342   3.907   4.356
   60SAPC  H19R 4650   1.264   3.830   4.374
   60SAPC  H19S 4651   1.386   3.877   4.259
   60SAPC  C220 4652   1.286   4.048   4.351
   60SAPC  H20R 4653   1.195   4.063   4.290
   60SAPC  H20S 4654   1.370   4.103   4.304
   60SAPC  H20T 4655   1.262   4.079   4.455
   60SAPC   C33 4656   1.707   4.507   5.671
   60SAPC   H3X 4657   1.812   4.530   5.701
   60SAPC   H3Y 4658   1.652   4.603   5.676
   60SAPC   C34 4659   1.706   4.453   5.528
   60SAPC   H4X 4660   1.607   4.413   5.497
   60SAPC   H4Y 4661   1.772   4.365   5.541
   60SAPC   C35 4662   1.762   4.547   5.428
   60SAPC   H5X 4663   1.873   4.551   5.432
   60SAPC   H5Y 4664   1.721   4.646   5.459
   60SAPC   C36 4665   1.732   4.508   5.281
   60SAPC   H6X 4666   1.629   4.492   5.242
   60SAPC   H6Y 4667   1.777   4.407   5.292
   60SAPC   C37 4668   1.807   4.594   5.187
   60SAPC   H7X 4669   1.916   4.584   5.209
   60SAPC   H7Y 4670   1.782   4.700   5.206
   60SAPC   C38 4671   1.773   4.569   5.040
   60SAPC   H8X 4672   1.668   4.604   5.027
   60SAPC   H8Y 4673   1.792   4.463   5.012
   60SAPC   C39 4674   1.868   4.651   4.950
   60SAPC   H9X 4675   1.974   4.619   4.952
   60SAPC   H9Y 4676   1.854   4.751   4.996
   60SAPC  C310 4677   1.822   4.668   4.804
   60SAPC  H10X 4678   1.892   4.735   4.751
   60SAPC  H10Y 4679   1.719   4.710   4.800
   60SAPC  C311 4680   1.826   4.537   4.721
   60SAPC  H11X 4681   1.740   4.471   4.745
   60SAPC  H11Y 4682   1.924   4.486   4.732
   60SAPC  C312 4683   1.811   4.572   4.574
   60SAPC  H12X 4684   1.881   4.650   4.536
   60SAPC  H12Y 4685   1.707   4.607   4.561
   60SAPC  C313 4686   1.799   4.454   4.480
   60SAPC  H13X 4687   1.723   4.380   4.512
   60SAPC  H13Y 4688   1.900   4.407   4.484
   60SAPC  C314 4689   1.768   4.502   4.339
   60SAPC  H14X 4690   1.844   4.450   4.276
   60SAPC  H14Y 4691   1.782   4.612   4.332
   60SAPC  C315 4692   1.619   4.486   4.299
   60SAPC  H15X 4693   1.554   4.538   4.373
   60SAPC  H15Y 4694   1.612   4.376   4.308
   60SAPC  C316 4695   1.585   4.538   4.159
   60SAPC  H16X 4696   1.494   4.488   4.122
   60SAPC  H16Y 4697   1.668   4.512   4.089
   60SAPC  C317 4698   1.562   4.686   4.148
   60SAPC  H17X 4699   1.656   4.738   4.176
   60SAPC  H17Y 4700   1.486   4.726   4.219
   60SAPC  C318 4701   1.527   4.734   4.011
   60SAPC  H18X 4702   1.434   4.682   3.978
   60SAPC  H18Y 4703   1.609   4.703   3.943
   60SAPC  H18Z 4704   1.509   4.844   4.004
   61SAPC     N 4705   6.733   3.360   7.037
   61SAPC   C12 4706   6.619   3.346   6.940
   61SAPC  H12A 4707   6.591   3.443   6.900
   61SAPC  H12B 4708   6.528   3.312   6.987
   61SAPC   C13 4709   6.811   3.473   7.002
   61SAPC  H13A 4710   6.883   3.465   6.921
   61SAPC  H13B 4711   6.756   3.564   6.981
   61SAPC  H13C 4712   6.876   3.498   7.085
   61SAPC   C14 4713   6.672   3.396   7.169
   61SAPC  H14A 4714   6.742   3.443   7.237
   61SAPC  H14B 4715   6.599   3.473   7.149
   61SAPC  H14C 4716   6.617   3.315   7.216
   61SAPC   C15 4717   6.829   3.243   7.046
   61SAPC  H15A 4718   6.769   3.167   7.095
   61SAPC  H15B 4719   6.860   3.207   6.949
   61SAPC  H15C 4720   6.919   3.274   7.097
   61SAPC   C11 4721   6.648   3.261   6.815
   61SAPC  H11A 4722   6.749   3.287   6.774
   61SAPC  H11B 4723   6.570   3.276   6.737
   61SAPC     P 4724   6.700   3.008   6.752
   61SAPC   O13 4725   6.843   3.032   6.733
   61SAPC   O14 4726   6.643   2.880   6.790
   61SAPC   O12 4727   6.646   3.123   6.855
   61SAPC   O11 4728   6.632   3.062   6.621
   61SAPC    C1 4729   6.493   3.020   6.594
   61SAPC    HA 4730   6.433   3.029   6.687
   61SAPC    HB 4731   6.451   3.087   6.517
   61SAPC    C2 4732   6.478   2.873   6.538
   61SAPC    HS 4733   6.487   2.807   6.627
   61SAPC   O21 4734   6.584   2.846   6.446
   61SAPC   C21 4735   6.602   2.711   6.435
   61SAPC   O22 4736   6.547   2.624   6.502
   61SAPC   C22 4737   6.714   2.685   6.333
   61SAPC   H2R 4738   6.804   2.746   6.354
   61SAPC   H2S 4739   6.741   2.577   6.332
   61SAPC    C3 4740   6.336   2.835   6.477
   61SAPC    HX 4741   6.267   2.869   6.557
   61SAPC    HY 4742   6.329   2.724   6.481
   61SAPC   O31 4743   6.316   2.886   6.351
   61SAPC   C31 4744   6.330   2.799   6.256
   61SAPC   O32 4745   6.338   2.677   6.262
   61SAPC   C32 4746   6.324   2.877   6.127
   61SAPC   H2X 4747   6.418   2.935   6.121
   61SAPC   H2Y 4748   6.243   2.951   6.145
   61SAPC   C23 4749   6.682   2.719   6.186
   61SAPC   H3R 4750   6.637   2.821   6.190
   61SAPC   H3S 4751   6.604   2.652   6.143
   61SAPC   C24 4752   6.807   2.720   6.084
   61SAPC   H4R 4753   6.880   2.640   6.107
   61SAPC   H4S 4754   6.859   2.813   6.116
   61SAPC   C25 4755   6.768   2.726   5.938
   61SAPC   H5R 4756   6.700   2.644   5.910
   61SAPC   C26 4757   6.772   2.832   5.852
   61SAPC   H6R 4758   6.731   2.814   5.752
   61SAPC   C27 4759   6.842   2.961   5.882
   61SAPC   H7R 4760   6.910   2.981   5.796
   61SAPC   H7S 4761   6.909   2.960   5.971
   61SAPC   C28 4762   6.730   3.064   5.902
   61SAPC   H8R 4763   6.671   3.065   5.995
   61SAPC   C29 4764   6.715   3.168   5.819
   61SAPC   H9R 4765   6.642   3.245   5.848
   61SAPC  C210 4766   6.781   3.191   5.684
   61SAPC  H10R 4767   6.783   3.100   5.620
   61SAPC  H10S 4768   6.886   3.219   5.704
   61SAPC  C211 4769   6.695   3.288   5.607
   61SAPC  H11R 4770   6.636   3.357   5.668
   61SAPC  C212 4771   6.655   3.288   5.474
   61SAPC  H12R 4772   6.582   3.369   5.456
   61SAPC  C213 4773   6.711   3.213   5.356
   61SAPC  H13R 4774   6.817   3.195   5.386
   61SAPC  H13S 4775   6.707   3.276   5.265
   61SAPC  C214 4776   6.637   3.080   5.353
   61SAPC  H14R 4777   6.574   3.056   5.439
   61SAPC  C215 4778   6.616   3.004   5.242
   61SAPC  H15R 4779   6.555   2.913   5.237
   61SAPC  C216 4780   6.696   3.028   5.111
   61SAPC  H16R 4781   6.746   2.936   5.074
   61SAPC  H16S 4782   6.787   3.092   5.123
   61SAPC  C217 4783   6.634   3.102   4.987
   61SAPC  H17R 4784   6.716   3.155   4.933
   61SAPC  H17S 4785   6.563   3.174   5.034
   61SAPC  C218 4786   6.574   3.002   4.889
   61SAPC  H18R 4787   6.497   2.942   4.942
   61SAPC  H18S 4788   6.657   2.933   4.862
   61SAPC  C219 4789   6.505   3.066   4.776
   61SAPC  H19R 4790   6.407   3.098   4.818
   61SAPC  H19S 4791   6.489   2.980   4.708
   61SAPC  C220 4792   6.582   3.173   4.704
   61SAPC  H20R 4793   6.684   3.128   4.707
   61SAPC  H20S 4794   6.566   3.271   4.752
   61SAPC  H20T 4795   6.549   3.182   4.599
   61SAPC   C33 4796   6.292   2.810   5.993
   61SAPC   H3X 4797   6.183   2.808   5.972
   61SAPC   H3Y 4798   6.333   2.706   5.990
   61SAPC   C34 4799   6.375   2.858   5.871
   61SAPC   H4X 4800   6.470   2.803   5.858
   61SAPC   H4Y 4801   6.409   2.961   5.899
   61SAPC   C35 4802   6.297   2.878   5.740
   61SAPC   H5X 4803   6.352   2.953   5.680
   61SAPC   H5Y 4804   6.198   2.922   5.760
   61SAPC   C36 4805   6.283   2.755   5.656
   61SAPC   H6X 4806   6.242   2.671   5.717
   61SAPC   H6Y 4807   6.383   2.723   5.621
   61SAPC   C37 4808   6.197   2.785   5.533
   61SAPC   H7X 4809   6.093   2.812   5.561
   61SAPC   H7Y 4810   6.194   2.686   5.482
   61SAPC   C38 4811   6.248   2.884   5.427
   61SAPC   H8X 4812   6.358   2.877   5.426
   61SAPC   H8Y 4813   6.240   2.989   5.462
   61SAPC   C39 4814   6.172   2.860   5.302
   61SAPC   H9X 4815   6.063   2.872   5.323
   61SAPC   H9Y 4816   6.190   2.758   5.260
   61SAPC  C310 4817   6.197   2.965   5.194
   61SAPC  H10X 4818   6.285   2.931   5.135
   61SAPC  H10Y 4819   6.211   3.060   5.250
   61SAPC  C311 4820   6.078   2.984   5.101
   61SAPC  H11X 4821   6.001   3.033   5.164
   61SAPC  H11Y 4822   6.051   2.879   5.075
   61SAPC  C312 4823   6.109   3.076   4.980
   61SAPC  H12X 4824   6.025   3.068   4.908
   61SAPC  H12Y 4825   6.201   3.043   4.929
   61SAPC  C313 4826   6.139   3.219   5.020
   61SAPC  H13X 4827   6.206   3.217   5.109
   61SAPC  H13Y 4828   6.049   3.259   5.071
   61SAPC  C314 4829   6.180   3.309   4.909
   61SAPC  H14X 4830   6.279   3.282   4.867
   61SAPC  H14Y 4831   6.196   3.414   4.942
   61SAPC  C315 4832   6.085   3.314   4.788
   61SAPC  H15X 4833   5.982   3.330   4.826
   61SAPC  H15Y 4834   6.080   3.215   4.738
   61SAPC  C316 4835   6.124   3.415   4.679
   61SAPC  H16X 4836   6.105   3.518   4.717
   61SAPC  H16Y 4837   6.050   3.409   4.596
   61SAPC  C317 4838   6.272   3.408   4.642
   61SAPC  H17X 4839   6.343   3.395   4.726
   61SAPC  H17Y 4840   6.295   3.506   4.595
   61SAPC  C318 4841   6.311   3.307   4.530
   61SAPC  H18X 4842   6.254   3.330   4.437
   61SAPC  H18Y 4843   6.298   3.200   4.557
   61SAPC  H18Z 4844   6.414   3.330   4.496
   62SAPC     N 4845   1.854   1.107   6.971
   62SAPC   C12 4846   1.879   1.106   6.825
   62SAPC  H12A 4847   1.819   1.026   6.785
   62SAPC  H12B 4848   1.985   1.093   6.812
   62SAPC   C13 4849   1.710   1.116   7.011
   62SAPC  H13A 4850   1.690   1.119   7.117
   62SAPC  H13B 4851   1.660   1.200   6.967
   62SAPC  H13C 4852   1.658   1.023   6.992
   62SAPC   C14 4853   1.903   0.979   7.034
   62SAPC  H14A 4854   1.866   0.893   6.980
   62SAPC  H14B 4855   2.010   0.977   7.026
   62SAPC  H14C 4856   1.883   0.974   7.141
   62SAPC   C15 4857   1.915   1.219   7.044
   62SAPC  H15A 4858   2.021   1.221   7.023
   62SAPC  H15B 4859   1.868   1.310   7.009
   62SAPC  H15C 4860   1.911   1.218   7.152
   62SAPC   C11 4861   1.846   1.224   6.730
   62SAPC  H11A 4862   1.737   1.223   6.706
   62SAPC  H11B 4863   1.901   1.194   6.639
   62SAPC     P 4864   1.980   1.448   6.689
   62SAPC   O13 4865   2.039   1.543   6.790
   62SAPC   O14 4866   2.066   1.368   6.598
   62SAPC   O12 4867   1.894   1.348   6.778
   62SAPC   O11 4868   1.879   1.530   6.601
   62SAPC    C1 4869   1.841   1.467   6.474
   62SAPC    HA 4870   1.926   1.418   6.423
   62SAPC    HB 4871   1.754   1.400   6.492
   62SAPC    C2 4872   1.783   1.567   6.372
   62SAPC    HS 4873   1.789   1.536   6.265
   62SAPC   O21 4874   1.862   1.689   6.377
   62SAPC   C21 4875   1.980   1.672   6.330
   62SAPC   O22 4876   2.018   1.582   6.258
   62SAPC   C22 4877   2.059   1.797   6.365
   62SAPC   H2R 4878   2.005   1.893   6.354
   62SAPC   H2S 4879   2.087   1.775   6.470
   62SAPC    C3 4880   1.624   1.596   6.384
   62SAPC    HX 4881   1.593   1.639   6.481
   62SAPC    HY 4882   1.574   1.497   6.383
   62SAPC   O31 4883   1.570   1.696   6.293
   62SAPC   C31 4884   1.552   1.650   6.166
   62SAPC   O32 4885   1.568   1.534   6.130
   62SAPC   C32 4886   1.498   1.755   6.074
   62SAPC   H2X 4887   1.410   1.805   6.120
   62SAPC   H2Y 4888   1.471   1.707   5.978
   62SAPC   C23 4889   2.198   1.809   6.283
   62SAPC   H3R 4890   2.234   1.704   6.295
   62SAPC   H3S 4891   2.252   1.885   6.343
   62SAPC   C24 4892   2.178   1.854   6.137
   62SAPC   H4R 4893   2.101   1.787   6.093
   62SAPC   H4S 4894   2.274   1.851   6.081
   62SAPC   C25 4895   2.128   2.002   6.134
   62SAPC   H5R 4896   2.126   2.058   6.229
   62SAPC   C26 4897   2.116   2.070   6.018
   62SAPC   H6R 4898   2.088   2.176   6.016
   62SAPC   C27 4899   2.131   2.001   5.879
   62SAPC   H7R 4900   2.036   1.956   5.845
   62SAPC   H7S 4901   2.208   1.921   5.875
   62SAPC   C28 4902   2.169   2.098   5.775
   62SAPC   H8R 4903   2.179   2.202   5.809
   62SAPC   C29 4904   2.164   2.078   5.640
   62SAPC   H9R 4905   2.199   2.163   5.580
   62SAPC  C210 4906   2.123   1.958   5.564
   62SAPC  H10R 4907   2.153   1.869   5.623
   62SAPC  H10S 4908   2.168   1.952   5.463
   62SAPC  C211 4909   1.972   1.947   5.538
   62SAPC  H11R 4910   1.917   2.007   5.612
   62SAPC  C212 4911   1.904   1.895   5.430
   62SAPC  H12R 4912   1.794   1.898   5.431
   62SAPC  C213 4913   1.966   1.821   5.314
   62SAPC  H13R 4914   1.905   1.730   5.298
   62SAPC  H13S 4915   2.075   1.812   5.334
   62SAPC  C214 4916   1.967   1.895   5.184
   62SAPC  H14R 4917   1.930   1.998   5.196
   62SAPC  C215 4918   1.991   1.848   5.057
   62SAPC  H15R 4919   1.979   1.921   4.976
   62SAPC  C216 4920   2.056   1.716   5.017
   62SAPC  H16R 4921   2.054   1.655   5.110
   62SAPC  H16S 4922   2.164   1.723   4.990
   62SAPC  C217 4923   1.976   1.651   4.906
   62SAPC  H17R 4924   1.874   1.629   4.945
   62SAPC  H17S 4925   2.015   1.551   4.876
   62SAPC  C218 4926   1.968   1.733   4.782
   62SAPC  H18R 4927   2.070   1.768   4.758
   62SAPC  H18S 4928   1.900   1.819   4.801
   62SAPC  C219 4929   1.919   1.655   4.655
   62SAPC  H19R 4930   1.981   1.565   4.636
   62SAPC  H19S 4931   1.916   1.730   4.573
   62SAPC  C220 4932   1.784   1.584   4.679
   62SAPC  H20R 4933   1.719   1.658   4.731
   62SAPC  H20S 4934   1.816   1.504   4.748
   62SAPC  H20T 4935   1.741   1.543   4.585
   62SAPC   C33 4936   1.600   1.863   6.049
   62SAPC   H3X 4937   1.691   1.813   6.008
   62SAPC   H3Y 4938   1.630   1.927   6.135
   62SAPC   C34 4939   1.556   1.967   5.942
   62SAPC   H4X 4940   1.468   2.029   5.972
   62SAPC   H4Y 4941   1.521   1.904   5.857
   62SAPC   C35 4942   1.660   2.059   5.890
   62SAPC   H5X 4943   1.760   2.009   5.884
   62SAPC   H5Y 4944   1.667   2.137   5.969
   62SAPC   C36 4945   1.617   2.135   5.760
   62SAPC   H6X 4946   1.704   2.182   5.709
   62SAPC   H6Y 4947   1.544   2.214   5.787
   62SAPC   C37 4948   1.546   2.045   5.658
   62SAPC   H7X 4949   1.448   2.010   5.696
   62SAPC   H7Y 4950   1.617   1.964   5.633
   62SAPC   C38 4951   1.515   2.121   5.518
   62SAPC   H8X 4952   1.454   2.208   5.549
   62SAPC   H8Y 4953   1.445   2.054   5.464
   62SAPC   C39 4954   1.640   2.165   5.440
   62SAPC   H9X 4955   1.710   2.080   5.427
   62SAPC   H9Y 4956   1.690   2.238   5.507
   62SAPC  C310 4957   1.614   2.218   5.300
   62SAPC  H10X 4958   1.708   2.268   5.271
   62SAPC  H10Y 4959   1.527   2.287   5.289
   62SAPC  C311 4960   1.618   2.105   5.193
   62SAPC  H11X 4961   1.544   2.025   5.217
   62SAPC  H11Y 4962   1.716   2.055   5.182
   62SAPC  C312 4963   1.595   2.174   5.056
   62SAPC  H12X 4964   1.672   2.251   5.040
   62SAPC  H12Y 4965   1.494   2.220   5.053
   62SAPC  C313 4966   1.603   2.063   4.948
   62SAPC  H13X 4967   1.533   1.981   4.973
   62SAPC  H13Y 4968   1.707   2.025   4.958
   62SAPC  C314 4969   1.575   2.120   4.810
   62SAPC  H14X 4970   1.639   2.207   4.785
   62SAPC  H14Y 4971   1.470   2.154   4.796
   62SAPC  C315 4972   1.596   2.006   4.703
   62SAPC  H15X 4973   1.521   1.924   4.704
   62SAPC  H15Y 4974   1.697   1.963   4.722
   62SAPC  C316 4975   1.582   2.059   4.558
   62SAPC  H16X 4976   1.646   2.148   4.542
   62SAPC  H16Y 4977   1.477   2.089   4.540
   62SAPC  C317 4978   1.612   1.950   4.455
   62SAPC  H17X 4979   1.561   1.975   4.360
   62SAPC  H17Y 4980   1.576   1.849   4.485
   62SAPC  C318 4981   1.766   1.945   4.438
   62SAPC  H18X 4982   1.801   1.864   4.370
   62SAPC  H18Y 4983   1.806   1.925   4.540
   62SAPC  H18Z 4984   1.807   2.043   4.407
   63SAPC     N 4985   2.806   5.411   6.308
   63SAPC   C12 4986   2.851   5.327   6.432
   63SAPC  H12A 4987   2.770   5.291   6.493
   63SAPC  H12B 4988   2.906   5.394   6.496
   63SAPC   C13 4989   2.913   5.399   6.203
   63SAPC  H13A 4990   2.996   5.461   6.234
   63SAPC  H13B 4991   2.935   5.295   6.184
   63SAPC  H13C 4992   2.886   5.449   6.111
   63SAPC   C14 4993   2.671   5.356   6.271
   63SAPC  H14A 4994   2.600   5.382   6.348
   63SAPC  H14B 4995   2.628   5.391   6.178
   63SAPC  H14C 4996   2.669   5.248   6.276
   63SAPC   C15 4997   2.796   5.558   6.341
   63SAPC  H15A 4998   2.715   5.575   6.411
   63SAPC  H15B 4999   2.886   5.613   6.362
   63SAPC  H15C 5000   2.755   5.600   6.250
   63SAPC   C11 5001   2.935   5.198   6.414
   63SAPC  H11A 5002   2.953   5.143   6.509
   63SAPC  H11B 5003   3.031   5.240   6.377
   63SAPC     P 5004   2.780   5.005   6.332
   63SAPC   O13 5005   2.825   4.864   6.293
   63SAPC   O14 5006   2.714   5.016   6.464
   63SAPC   O12 5007   2.898   5.105   6.311
   63SAPC   O11 5008   2.672   5.063   6.225
   63SAPC    C1 5009   2.539   5.009   6.231
   63SAPC    HA 5010   2.535   4.920   6.298
   63SAPC    HB 5011   2.472   5.090   6.265
   63SAPC    C2 5012   2.501   4.974   6.080
   63SAPC    HS 5013   2.397   4.942   6.061
   63SAPC   O21 5014   2.579   4.873   6.021
   63SAPC   C21 5015   2.567   4.752   6.059
   63SAPC   O22 5016   2.485   4.710   6.139
   63SAPC   C22 5017   2.668   4.660   5.987
   63SAPC   H2R 5018   2.717   4.724   5.910
   63SAPC   H2S 5019   2.748   4.637   6.061
   63SAPC    C3 5020   2.531   5.095   5.990
   63SAPC    HX 5021   2.637   5.122   6.006
   63SAPC    HY 5022   2.465   5.172   6.035
   63SAPC   O31 5023   2.504   5.078   5.848
   63SAPC   C31 5024   2.546   5.187   5.772
   63SAPC   O32 5025   2.591   5.292   5.819
   63SAPC   C32 5026   2.506   5.164   5.628
   63SAPC   H2X 5027   2.400   5.130   5.628
   63SAPC   H2Y 5028   2.554   5.073   5.585
   63SAPC   C23 5029   2.599   4.536   5.923
   63SAPC   H3R 5030   2.534   4.565   5.837
   63SAPC   H3S 5031   2.540   4.491   6.006
   63SAPC   C24 5032   2.702   4.424   5.885
   63SAPC   H4R 5033   2.646   4.345   5.831
   63SAPC   H4S 5034   2.741   4.377   5.978
   63SAPC   C25 5035   2.823   4.465   5.802
   63SAPC   H5R 5036   2.919   4.468   5.855
   63SAPC   C26 5037   2.820   4.492   5.668
   63SAPC   H6R 5038   2.912   4.533   5.624
   63SAPC   C27 5039   2.694   4.473   5.585
   63SAPC   H7R 5040   2.617   4.425   5.648
   63SAPC   H7S 5041   2.706   4.403   5.500
   63SAPC   C28 5042   2.653   4.614   5.542
   63SAPC   H8R 5043   2.586   4.665   5.613
   63SAPC   C29 5044   2.681   4.686   5.429
   63SAPC   H9R 5045   2.639   4.786   5.412
   63SAPC  C210 5046   2.749   4.631   5.317
   63SAPC  H10R 5047   2.831   4.564   5.350
   63SAPC  H10S 5048   2.795   4.713   5.257
   63SAPC  C211 5049   2.661   4.552   5.224
   63SAPC  H11R 5050   2.584   4.488   5.270
   63SAPC  C212 5051   2.674   4.545   5.091
   63SAPC  H12R 5052   2.609   4.476   5.036
   63SAPC  C213 5053   2.765   4.632   5.010
   63SAPC  H13R 5054   2.871   4.612   5.039
   63SAPC  H13S 5055   2.745   4.739   5.031
   63SAPC  C214 5056   2.759   4.599   4.861
   63SAPC  H14R 5057   2.840   4.531   4.829
   63SAPC  C215 5058   2.679   4.652   4.769
   63SAPC  H15R 5059   2.673   4.611   4.667
   63SAPC  C216 5060   2.572   4.757   4.801
   63SAPC  H16R 5061   2.604   4.856   4.762
   63SAPC  H16S 5062   2.553   4.765   4.911
   63SAPC  C217 5063   2.433   4.722   4.733
   63SAPC  H17R 5064   2.436   4.731   4.622
   63SAPC  H17S 5065   2.352   4.788   4.769
   63SAPC  C218 5066   2.389   4.571   4.764
   63SAPC  H18R 5067   2.380   4.558   4.874
   63SAPC  H18S 5068   2.469   4.508   4.720
   63SAPC  C219 5069   2.250   4.533   4.707
   63SAPC  H19R 5070   2.170   4.599   4.748
   63SAPC  H19S 5071   2.226   4.433   4.748
   63SAPC  C220 5072   2.250   4.546   4.558
   63SAPC  H20R 5073   2.326   4.481   4.509
   63SAPC  H20S 5074   2.265   4.652   4.528
   63SAPC  H20T 5075   2.147   4.511   4.534
   63SAPC   C33 5076   2.517   5.284   5.530
   63SAPC   H3X 5077   2.622   5.319   5.537
   63SAPC   H3Y 5078   2.456   5.358   5.586
   63SAPC   C34 5079   2.470   5.262   5.381
   63SAPC   H4X 5080   2.361   5.239   5.385
   63SAPC   H4Y 5081   2.536   5.179   5.351
   63SAPC   C35 5082   2.488   5.377   5.287
   63SAPC   H5X 5083   2.596   5.397   5.271
   63SAPC   H5Y 5084   2.446   5.473   5.322
   63SAPC   C36 5085   2.416   5.342   5.157
   63SAPC   H6X 5086   2.305   5.340   5.171
   63SAPC   H6Y 5087   2.450   5.242   5.123
   63SAPC   C37 5088   2.443   5.448   5.058
   63SAPC   H7X 5089   2.553   5.461   5.054
   63SAPC   H7Y 5090   2.404   5.545   5.095
   63SAPC   C38 5091   2.393   5.407   4.918
   63SAPC   H8X 5092   2.282   5.397   4.913
   63SAPC   H8Y 5093   2.439   5.311   4.887
   63SAPC   C39 5094   2.431   5.503   4.802
   63SAPC   H9X 5095   2.541   5.518   4.812
   63SAPC   H9Y 5096   2.378   5.600   4.814
   63SAPC  C310 5097   2.393   5.448   4.664
   63SAPC  H10X 5098   2.285   5.459   4.638
   63SAPC  H10Y 5099   2.407   5.338   4.655
   63SAPC  C311 5100   2.483   5.517   4.561
   63SAPC  H11X 5101   2.592   5.505   4.579
   63SAPC  H11Y 5102   2.451   5.623   4.576
   63SAPC  C312 5103   2.464   5.451   4.425
   63SAPC  H12X 5104   2.354   5.452   4.411
   63SAPC  H12Y 5105   2.494   5.344   4.432
   63SAPC  C313 5106   2.527   5.521   4.308
   63SAPC  H13X 5107   2.489   5.483   4.211
   63SAPC  H13Y 5108   2.637   5.508   4.312
   63SAPC  C314 5109   2.503   5.671   4.321
   63SAPC  H14X 5110   2.555   5.709   4.411
   63SAPC  H14Y 5111   2.394   5.695   4.328
   63SAPC  C315 5112   2.549   5.747   4.191
   63SAPC  H15X 5113   2.528   5.680   4.105
   63SAPC  H15Y 5114   2.660   5.743   4.190
   63SAPC  C316 5115   2.495   5.885   4.169
   63SAPC  H16X 5116   2.385   5.877   4.156
   63SAPC  H16Y 5117   2.542   5.926   4.077
   63SAPC  C317 5118   2.520   5.984   4.280
   63SAPC  H17X 5119   2.485   5.945   4.378
   63SAPC  H17Y 5120   2.460   6.074   4.253
   63SAPC  C318 5121   2.675   6.016   4.296
   63SAPC  H18X 5122   2.728   6.014   4.198
   63SAPC  H18Y 5123   2.721   5.927   4.343
   63SAPC  H18Z 5124   2.689   6.115   4.345
   64SAPC     N 5125   1.978   6.464   6.944
   64SAPC   C12 5126   1.933   6.410   6.809
   64SAPC  H12A 5127   1.825   6.398   6.813
   64SAPC  H12B 5128   1.975   6.312   6.793
   64SAPC   C13 5129   1.964   6.367   7.058
   64SAPC  H13A 5130   1.989   6.414   7.152
   64SAPC  H13B 5131   1.864   6.326   7.061
   64SAPC  H13C 5132   2.036   6.287   7.051
   64SAPC   C14 5133   2.126   6.491   6.933
   64SAPC  H14A 5134   2.187   6.405   6.910
   64SAPC  H14B 5135   2.154   6.555   6.851
   64SAPC  H14C 5136   2.168   6.539   7.020
   64SAPC   C15 5137   1.907   6.595   6.978
   64SAPC  H15A 5138   1.801   6.575   6.978
   64SAPC  H15B 5139   1.942   6.641   7.069
   64SAPC  H15C 5140   1.922   6.667   6.899
   64SAPC   C11 5141   1.971   6.490   6.682
   64SAPC  H11A 5142   1.980   6.596   6.713
   64SAPC  H11B 5143   1.898   6.498   6.599
   64SAPC     P 5144   2.145   6.308   6.597
   64SAPC   O13 5145   2.292   6.303   6.629
   64SAPC   O14 5146   2.054   6.204   6.645
   64SAPC   O12 5147   2.096   6.451   6.638
   64SAPC   O11 5148   2.126   6.304   6.438
   64SAPC    C1 5149   2.107   6.420   6.352
   64SAPC    HA 5150   2.041   6.388   6.269
   64SAPC    HB 5151   2.048   6.503   6.396
   64SAPC    C2 5152   2.237   6.464   6.286
   64SAPC    HS 5153   2.311   6.491   6.364
   64SAPC   O21 5154   2.209   6.569   6.193
   64SAPC   C21 5155   2.302   6.616   6.117
   64SAPC   O22 5156   2.423   6.603   6.127
   64SAPC   C22 5157   2.228   6.691   6.004
   64SAPC   H2R 5158   2.151   6.742   6.065
   64SAPC   H2S 5159   2.309   6.754   5.962
   64SAPC    C3 5160   2.300   6.335   6.214
   64SAPC    HX 5161   2.334   6.264   6.293
   64SAPC    HY 5162   2.391   6.372   6.162
   64SAPC   O31 5163   2.213   6.276   6.119
   64SAPC   C31 5164   2.188   6.148   6.117
   64SAPC   O32 5165   2.247   6.067   6.184
   64SAPC   C32 5166   2.091   6.111   6.006
   64SAPC   H2X 5167   1.991   6.132   6.049
   64SAPC   H2Y 5168   2.107   6.004   5.984
   64SAPC   C23 5169   2.159   6.613   5.893
   64SAPC   H3R 5170   2.083   6.555   5.949
   64SAPC   H3S 5171   2.223   6.536   5.844
   64SAPC   C24 5172   2.101   6.714   5.793
   64SAPC   H4R 5173   2.185   6.741   5.726
   64SAPC   H4S 5174   2.063   6.802   5.849
   64SAPC   C25 5175   1.979   6.659   5.721
   64SAPC   H5R 5176   1.889   6.625   5.774
   64SAPC   C26 5177   1.974   6.636   5.592
   64SAPC   H6R 5178   1.880   6.605   5.545
   64SAPC   C27 5179   2.082   6.653   5.485
   64SAPC   H7R 5180   2.183   6.656   5.532
   64SAPC   H7S 5181   2.069   6.742   5.421
   64SAPC   C28 5182   2.082   6.529   5.391
   64SAPC   H8R 5183   2.037   6.439   5.434
   64SAPC   C29 5184   2.121   6.528   5.258
   64SAPC   H9R 5185   2.106   6.441   5.192
   64SAPC  C210 5186   2.170   6.651   5.180
   64SAPC  H10R 5187   2.277   6.636   5.156
   64SAPC  H10S 5188   2.157   6.748   5.232
   64SAPC  C211 5189   2.080   6.670   5.059
   64SAPC  H11R 5190   1.971   6.667   5.075
   64SAPC  C212 5191   2.114   6.700   4.934
   64SAPC  H12R 5192   2.037   6.724   4.859
   64SAPC  C213 5193   2.249   6.725   4.882
   64SAPC  H13R 5194   2.322   6.739   4.965
   64SAPC  H13S 5195   2.239   6.814   4.816
   64SAPC  C214 5196   2.298   6.616   4.788
   64SAPC  H14R 5197   2.349   6.531   4.834
   64SAPC  C215 5198   2.275   6.612   4.652
   64SAPC  H15R 5199   2.310   6.520   4.604
   64SAPC  C216 5200   2.197   6.707   4.565
   64SAPC  H16R 5201   2.268   6.761   4.500
   64SAPC  H16S 5202   2.140   6.778   4.629
   64SAPC  C217 5203   2.083   6.630   4.495
   64SAPC  H17R 5204   2.013   6.590   4.571
   64SAPC  H17S 5205   2.123   6.535   4.454
   64SAPC  C218 5206   2.023   6.714   4.383
   64SAPC  H18R 5207   1.941   6.655   4.335
   64SAPC  H18S 5208   2.106   6.729   4.310
   64SAPC  C219 5209   1.972   6.854   4.417
   64SAPC  H19R 5210   1.938   6.907   4.325
   64SAPC  H19S 5211   2.049   6.921   4.460
   64SAPC  C220 5212   1.845   6.844   4.503
   64SAPC  H20R 5213   1.831   6.933   4.569
   64SAPC  H20S 5214   1.839   6.755   4.569
   64SAPC  H20T 5215   1.755   6.826   4.440
   64SAPC   C33 5216   2.118   6.169   5.863
   64SAPC   H3X 5217   2.228   6.186   5.857
   64SAPC   H3Y 5218   2.058   6.262   5.855
   64SAPC   C34 5219   2.089   6.064   5.753
   64SAPC   H4X 5220   1.982   6.033   5.745
   64SAPC   H4Y 5221   2.143   5.967   5.765
   64SAPC   C35 5222   2.127   6.132   5.617
   64SAPC   H5X 5223   2.236   6.155   5.613
   64SAPC   H5Y 5224   2.081   6.230   5.595
   64SAPC   C36 5225   2.088   6.043   5.503
   64SAPC   H6X 5226   1.978   6.028   5.513
   64SAPC   H6Y 5227   2.130   5.940   5.506
   64SAPC   C37 5228   2.102   6.107   5.368
   64SAPC   H7X 5229   2.210   6.091   5.344
   64SAPC   H7Y 5230   2.081   6.216   5.377
   64SAPC   C38 5231   2.021   6.038   5.255
   64SAPC   H8X 5232   1.911   6.033   5.270
   64SAPC   H8Y 5233   2.052   5.933   5.236
   64SAPC   C39 5234   2.031   6.113   5.121
   64SAPC   H9X 5235   1.999   6.218   5.139
   64SAPC   H9Y 5236   1.956   6.075   5.047
   64SAPC  C310 5237   2.170   6.103   5.050
   64SAPC  H10X 5238   2.191   5.996   5.032
   64SAPC  H10Y 5239   2.254   6.139   5.113
   64SAPC  C311 5240   2.159   6.184   4.925
   64SAPC  H11X 5241   2.124   6.286   4.951
   64SAPC  H11Y 5242   2.081   6.135   4.863
   64SAPC  C312 5243   2.290   6.195   4.847
   64SAPC  H12X 5244   2.334   6.098   4.819
   64SAPC  H12Y 5245   2.366   6.259   4.898
   64SAPC  C313 5246   2.268   6.250   4.704
   64SAPC  H13X 5247   2.366   6.257   4.651
   64SAPC  H13Y 5248   2.238   6.356   4.718
   64SAPC  C314 5249   2.158   6.181   4.613
   64SAPC  H14X 5250   2.066   6.239   4.635
   64SAPC  H14Y 5251   2.156   6.076   4.650
   64SAPC  C315 5252   2.179   6.200   4.460
   64SAPC  H15X 5253   2.274   6.148   4.436
   64SAPC  H15Y 5254   2.174   6.309   4.437
   64SAPC  C316 5255   2.058   6.143   4.387
   64SAPC  H16X 5256   1.957   6.177   4.420
   64SAPC  H16Y 5257   2.063   6.033   4.401
   64SAPC  C317 5258   2.056   6.146   4.227
   64SAPC  H17X 5259   1.974   6.086   4.184
   64SAPC  H17Y 5260   2.150   6.098   4.193
   64SAPC  C318 5261   2.042   6.289   4.173
   64SAPC  H18X 5262   2.039   6.281   4.062
   64SAPC  H18Y 5263   2.124   6.355   4.207
   64SAPC  H18Z 5264   1.949   6.330   4.218
   65SAPC     N 5265   0.461   0.906   2.263
   65SAPC   C12 5266   0.486   0.956   2.120
   65SAPC  H12A 5267   0.461   1.061   2.121
   65SAPC  H12B 5268   0.408   0.919   2.055
   65SAPC   C13 5269   0.328   0.955   2.323
   65SAPC  H13A 5270   0.312   1.053   2.280
   65SAPC  H13B 5271   0.240   0.897   2.299
   65SAPC  H13C 5272   0.333   0.965   2.430
   65SAPC   C14 5273   0.467   0.761   2.275
   65SAPC  H14A 5274   0.380   0.707   2.239
   65SAPC  H14B 5275   0.550   0.714   2.223
   65SAPC  H14C 5276   0.459   0.725   2.376
   65SAPC   C15 5277   0.562   0.977   2.344
   65SAPC  H15A 5278   0.552   1.084   2.357
   65SAPC  H15B 5279   0.575   0.940   2.445
   65SAPC  H15C 5280   0.657   0.961   2.295
   65SAPC   C11 5281   0.619   0.929   2.055
   65SAPC  H11A 5282   0.619   0.962   1.949
   65SAPC  H11B 5283   0.634   0.820   2.048
   65SAPC     P 5284   0.829   1.095   2.071
   65SAPC   O13 5285   0.877   1.057   1.936
   65SAPC   O14 5286   0.757   1.226   2.083
   65SAPC   O12 5287   0.728   0.988   2.126
   65SAPC   O11 5288   0.946   1.089   2.171
   65SAPC    C1 5289   0.950   1.142   2.306
   65SAPC    HA 5290   0.851   1.185   2.336
   65SAPC    HB 5291   0.960   1.059   2.379
   65SAPC    C2 5292   1.084   1.226   2.325
   65SAPC    HS 5293   1.106   1.239   2.433
   65SAPC   O21 5294   1.054   1.360   2.282
   65SAPC   C21 5295   0.964   1.431   2.358
   65SAPC   O22 5296   0.937   1.403   2.475
   65SAPC   C22 5297   0.923   1.560   2.289
   65SAPC   H2R 5298   1.012   1.622   2.269
   65SAPC   H2S 5299   0.887   1.528   2.189
   65SAPC    C3 5300   1.212   1.169   2.260
   65SAPC    HX 5301   1.191   1.127   2.160
   65SAPC    HY 5302   1.247   1.082   2.319
   65SAPC   O31 5303   1.324   1.261   2.249
   65SAPC   C31 5304   1.393   1.288   2.351
   65SAPC   O32 5305   1.385   1.227   2.459
   65SAPC   C32 5306   1.494   1.397   2.324
   65SAPC   H2X 5307   1.551   1.361   2.236
   65SAPC   H2Y 5308   1.560   1.398   2.413
   65SAPC   C23 5309   0.804   1.635   2.353
   65SAPC   H3R 5310   0.733   1.556   2.387
   65SAPC   H3S 5311   0.752   1.707   2.286
   65SAPC   C24 5312   0.863   1.722   2.469
   65SAPC   H4R 5313   0.911   1.816   2.435
   65SAPC   H4S 5314   0.943   1.658   2.512
   65SAPC   C25 5315   0.761   1.768   2.582
   65SAPC   H5R 5316   0.678   1.831   2.546
   65SAPC   C26 5317   0.752   1.716   2.701
   65SAPC   H6R 5318   0.670   1.740   2.770
   65SAPC   C27 5319   0.844   1.610   2.761
   65SAPC   H7R 5320   0.861   1.535   2.682
   65SAPC   H7S 5321   0.785   1.561   2.842
   65SAPC   C28 5322   0.965   1.663   2.824
   65SAPC   H8R 5323   1.058   1.640   2.770
   65SAPC   C29 5324   0.970   1.722   2.943
   65SAPC   H9R 5325   1.069   1.755   2.975
   65SAPC  C210 5326   0.857   1.737   3.040
   65SAPC  H10R 5327   0.913   1.731   3.136
   65SAPC  H10S 5328   0.792   1.647   3.039
   65SAPC  C211 5329   0.785   1.869   3.027
   65SAPC  H11R 5330   0.709   1.870   2.948
   65SAPC  C212 5331   0.792   1.975   3.107
   65SAPC  H12R 5332   0.714   2.051   3.094
   65SAPC  C213 5333   0.875   1.990   3.231
   65SAPC  H13R 5334   0.948   2.072   3.212
   65SAPC  H13S 5335   0.934   1.898   3.250
   65SAPC  C214 5336   0.793   2.038   3.348
   65SAPC  H14R 5337   0.748   2.137   3.336
   65SAPC  C215 5338   0.757   1.967   3.461
   65SAPC  H15R 5339   0.700   2.021   3.538
   65SAPC  C216 5340   0.806   1.827   3.486
   65SAPC  H16R 5341   0.888   1.829   3.560
   65SAPC  H16S 5342   0.853   1.789   3.393
   65SAPC  C217 5343   0.691   1.732   3.528
   65SAPC  H17R 5344   0.712   1.627   3.500
   65SAPC  H17S 5345   0.598   1.751   3.469
   65SAPC  C218 5346   0.652   1.746   3.682
   65SAPC  H18R 5347   0.559   1.686   3.685
   65SAPC  H18S 5348   0.612   1.844   3.716
   65SAPC  C219 5349   0.751   1.694   3.787
   65SAPC  H19R 5350   0.841   1.758   3.799
   65SAPC  H19S 5351   0.802   1.602   3.751
   65SAPC  C220 5352   0.687   1.678   3.925
   65SAPC  H20R 5353   0.594   1.620   3.908
   65SAPC  H20S 5354   0.640   1.774   3.953
   65SAPC  H20T 5355   0.749   1.644   4.011
   65SAPC   C33 5356   1.429   1.533   2.277
   65SAPC   H3X 5357   1.366   1.521   2.186
   65SAPC   H3Y 5358   1.512   1.603   2.255
   65SAPC   C34 5359   1.357   1.609   2.388
   65SAPC   H4X 5360   1.424   1.623   2.476
   65SAPC   H4Y 5361   1.280   1.540   2.428
   65SAPC   C35 5362   1.296   1.747   2.369
   65SAPC   H5X 5363   1.231   1.745   2.279
   65SAPC   H5Y 5364   1.378   1.816   2.341
   65SAPC   C36 5365   1.221   1.814   2.487
   65SAPC   H6X 5366   1.159   1.738   2.538
   65SAPC   H6Y 5367   1.146   1.890   2.456
   65SAPC   C37 5368   1.313   1.879   2.587
   65SAPC   H7X 5369   1.393   1.942   2.543
   65SAPC   H7Y 5370   1.360   1.795   2.642
   65SAPC   C38 5371   1.225   1.958   2.684
   65SAPC   H8X 5372   1.134   1.897   2.706
   65SAPC   H8Y 5373   1.190   2.048   2.630
   65SAPC   C39 5374   1.304   1.989   2.806
   65SAPC   H9X 5375   1.388   2.057   2.782
   65SAPC   H9Y 5376   1.331   1.889   2.847
   65SAPC  C310 5377   1.229   2.050   2.918
   65SAPC  H10X 5378   1.147   1.981   2.948
   65SAPC  H10Y 5379   1.188   2.144   2.874
   65SAPC  C311 5380   1.332   2.066   3.033
   65SAPC  H11X 5381   1.420   2.123   2.994
   65SAPC  H11Y 5382   1.364   1.968   3.073
   65SAPC  C312 5383   1.263   2.129   3.161
   65SAPC  H12X 5384   1.173   2.077   3.200
   65SAPC  H12Y 5385   1.209   2.223   3.137
   65SAPC  C313 5386   1.370   2.155   3.265
   65SAPC  H13X 5387   1.442   2.228   3.221
   65SAPC  H13Y 5388   1.421   2.058   3.283
   65SAPC  C314 5389   1.310   2.216   3.394
   65SAPC  H14X 5390   1.240   2.301   3.383
   65SAPC  H14Y 5391   1.384   2.254   3.467
   65SAPC  C315 5392   1.229   2.103   3.464
   65SAPC  H15X 5393   1.302   2.023   3.486
   65SAPC  H15Y 5394   1.146   2.064   3.402
   65SAPC  C316 5395   1.163   2.152   3.600
   65SAPC  H16X 5396   1.098   2.240   3.579
   65SAPC  H16Y 5397   1.252   2.180   3.660
   65SAPC  C317 5398   1.090   2.042   3.669
   65SAPC  H17X 5399   1.153   1.951   3.682
   65SAPC  H17Y 5400   1.001   2.001   3.618
   65SAPC  C318 5401   1.029   2.079   3.799
   65SAPC  H18X 5402   0.949   2.013   3.842
   65SAPC  H18Y 5403   0.979   2.177   3.787
   65SAPC  H18Z 5404   1.102   2.085   3.883
   66SAPC     N 5405   3.405   4.098   1.509
   66SAPC   C12 5406   3.459   4.116   1.651
   66SAPC  H12A 5407   3.481   4.221   1.662
   66SAPC  H12B 5408   3.553   4.064   1.664
   66SAPC   C13 5409   3.513   4.129   1.412
   66SAPC  H13A 5410   3.584   4.049   1.398
   66SAPC  H13B 5411   3.473   4.160   1.316
   66SAPC  H13C 5412   3.565   4.219   1.442
   66SAPC   C14 5413   3.368   3.954   1.491
   66SAPC  H14A 5414   3.305   3.926   1.574
   66SAPC  H14B 5415   3.313   3.931   1.401
   66SAPC  H14C 5416   3.452   3.885   1.486
   66SAPC   C15 5417   3.286   4.185   1.481
   66SAPC  H15A 5418   3.260   4.168   1.378
   66SAPC  H15B 5419   3.202   4.163   1.544
   66SAPC  H15C 5420   3.307   4.290   1.488
   66SAPC   C11 5421   3.367   4.068   1.770
   66SAPC  H11A 5422   3.272   4.124   1.777
   66SAPC  H11B 5423   3.426   4.095   1.861
   66SAPC     P 5424   3.449   3.820   1.803
   66SAPC   O13 5425   3.407   3.698   1.725
   66SAPC   O14 5426   3.578   3.879   1.776
   66SAPC   O12 5427   3.340   3.926   1.771
   66SAPC   O11 5428   3.433   3.788   1.959
   66SAPC    C1 5429   3.350   3.869   2.040
   66SAPC    HA 5430   3.361   3.976   2.013
   66SAPC    HB 5431   3.243   3.850   2.016
   66SAPC    C2 5432   3.380   3.850   2.194
   66SAPC    HS 5433   3.337   3.932   2.255
   66SAPC   O21 5434   3.523   3.847   2.215
   66SAPC   C21 5435   3.594   3.965   2.195
   66SAPC   O22 5436   3.547   4.075   2.182
   66SAPC   C22 5437   3.737   3.935   2.215
   66SAPC   H2R 5438   3.778   3.910   2.115
   66SAPC   H2S 5439   3.784   4.030   2.248
   66SAPC    C3 5440   3.323   3.712   2.241
   66SAPC    HX 5441   3.375   3.630   2.187
   66SAPC    HY 5442   3.216   3.701   2.213
   66SAPC   O31 5443   3.345   3.686   2.384
   66SAPC   C31 5444   3.259   3.745   2.467
   66SAPC   O32 5445   3.174   3.824   2.426
   66SAPC   C32 5446   3.286   3.696   2.607
   66SAPC   H2X 5447   3.355   3.609   2.604
   66SAPC   H2Y 5448   3.194   3.643   2.638
   66SAPC   C23 5449   3.772   3.829   2.323
   66SAPC   H3R 5450   3.733   3.730   2.292
   66SAPC   H3S 5451   3.711   3.850   2.413
   66SAPC   C24 5452   3.925   3.823   2.336
   66SAPC   H4R 5453   3.963   3.921   2.372
   66SAPC   H4S 5454   3.959   3.808   2.232
   66SAPC   C25 5455   3.968   3.708   2.425
   66SAPC   H5R 5456   4.023   3.626   2.377
   66SAPC   C26 5457   3.960   3.706   2.559
   66SAPC   H6R 5458   3.994   3.615   2.611
   66SAPC   C27 5459   3.918   3.818   2.650
   66SAPC   H7R 5460   3.858   3.897   2.600
   66SAPC   H7S 5461   4.009   3.869   2.689
   66SAPC   C28 5462   3.838   3.766   2.761
   66SAPC   H8R 5463   3.755   3.705   2.723
   66SAPC   C29 5464   3.880   3.751   2.886
   66SAPC   H9R 5465   3.817   3.704   2.963
   66SAPC  C210 5466   4.016   3.793   2.940
   66SAPC  H10R 5467   4.035   3.898   2.910
   66SAPC  H10S 5468   4.098   3.731   2.896
   66SAPC  C211 5469   4.017   3.793   3.091
   66SAPC  H11R 5470   4.084   3.720   3.138
   66SAPC  C212 5471   3.963   3.885   3.172
   66SAPC  H12R 5472   3.979   3.868   3.279
   66SAPC  C213 5473   3.896   4.018   3.151
   66SAPC  H13R 5474   3.917   4.056   3.048
   66SAPC  H13S 5475   3.938   4.098   3.216
   66SAPC  C214 5476   3.747   4.021   3.167
   66SAPC  H14R 5477   3.684   4.013   3.077
   66SAPC  C215 5478   3.686   4.035   3.289
   66SAPC  H15R 5479   3.578   4.058   3.290
   66SAPC  C216 5480   3.758   4.039   3.425
   66SAPC  H16R 5481   3.779   4.147   3.443
   66SAPC  H16S 5482   3.853   3.982   3.433
   66SAPC  C217 5483   3.662   3.995   3.535
   66SAPC  H17R 5484   3.635   3.889   3.516
   66SAPC  H17S 5485   3.566   4.051   3.525
   66SAPC  C218 5486   3.718   4.008   3.679
   66SAPC  H18R 5487   3.638   3.981   3.752
   66SAPC  H18S 5488   3.733   4.116   3.697
   66SAPC  C219 5489   3.834   3.916   3.713
   66SAPC  H19R 5490   3.917   3.918   3.640
   66SAPC  H19S 5491   3.795   3.813   3.693
   66SAPC  C220 5492   3.879   3.936   3.855
   66SAPC  H20R 5493   3.989   3.926   3.863
   66SAPC  H20S 5494   3.829   3.857   3.916
   66SAPC  H20T 5495   3.850   4.039   3.884
   66SAPC   C33 5496   3.340   3.797   2.708
   66SAPC   H3X 5497   3.271   3.881   2.733
   66SAPC   H3Y 5498   3.429   3.853   2.671
   66SAPC   C34 5499   3.393   3.727   2.836
   66SAPC   H4X 5500   3.464   3.794   2.890
   66SAPC   H4Y 5501   3.460   3.656   2.784
   66SAPC   C35 5502   3.294   3.665   2.937
   66SAPC   H5X 5503   3.203   3.634   2.881
   66SAPC   H5Y 5504   3.247   3.745   2.999
   66SAPC   C36 5505   3.333   3.547   3.028
   66SAPC   H6X 5506   3.368   3.466   2.960
   66SAPC   H6Y 5507   3.241   3.524   3.085
   66SAPC   C37 5508   3.456   3.573   3.129
   66SAPC   H7X 5509   3.539   3.620   3.073
   66SAPC   H7Y 5510   3.472   3.469   3.164
   66SAPC   C38 5511   3.407   3.655   3.247
   66SAPC   H8X 5512   3.300   3.684   3.246
   66SAPC   H8Y 5513   3.476   3.742   3.248
   66SAPC   C39 5514   3.435   3.589   3.387
   66SAPC   H9X 5515   3.544   3.579   3.402
   66SAPC   H9Y 5516   3.389   3.488   3.387
   66SAPC  C310 5517   3.380   3.683   3.500
   66SAPC  H10X 5518   3.271   3.668   3.512
   66SAPC  H10Y 5519   3.407   3.789   3.477
   66SAPC  C311 5520   3.439   3.654   3.643
   66SAPC  H11X 5521   3.550   3.665   3.651
   66SAPC  H11Y 5522   3.421   3.545   3.658
   66SAPC  C312 5523   3.366   3.722   3.752
   66SAPC  H12X 5524   3.257   3.707   3.740
   66SAPC  H12Y 5525   3.394   3.828   3.731
   66SAPC  C313 5526   3.388   3.671   3.897
   66SAPC  H13X 5527   3.495   3.687   3.919
   66SAPC  H13Y 5528   3.376   3.561   3.893
   66SAPC  C314 5529   3.321   3.742   4.009
   66SAPC  H14X 5530   3.336   3.852   4.005
   66SAPC  H14Y 5531   3.369   3.715   4.105
   66SAPC  C315 5532   3.174   3.718   4.028
   66SAPC  H15X 5533   3.151   3.610   4.040
   66SAPC  H15Y 5534   3.140   3.745   3.925
   66SAPC  C316 5535   3.114   3.794   4.139
   66SAPC  H16X 5536   3.177   3.799   4.231
   66SAPC  H16Y 5537   3.026   3.732   4.165
   66SAPC  C317 5538   3.070   3.934   4.099
   66SAPC  H17X 5539   3.002   3.945   4.011
   66SAPC  H17Y 5540   3.157   3.996   4.070
   66SAPC  C318 5541   3.008   4.014   4.222
   66SAPC  H18X 5542   2.975   4.118   4.199
   66SAPC  H18Y 5543   3.071   4.027   4.313
   66SAPC  H18Z 5544   2.914   3.960   4.247
   67SAPC     N 5545   1.051   3.270   1.979
   67SAPC   C12 5546   0.945   3.278   2.088
   67SAPC  H12A 5547   0.906   3.378   2.092
   67SAPC  H12B 5548   0.993   3.276   2.185
   67SAPC   C13 5549   1.000   3.290   1.837
   67SAPC  H13A 5550   0.940   3.201   1.828
   67SAPC  H13B 5551   0.944   3.382   1.829
   67SAPC  H13C 5552   1.080   3.285   1.765
   67SAPC   C14 5553   1.150   3.384   2.002
   67SAPC  H14A 5554   1.114   3.486   1.993
   67SAPC  H14B 5555   1.197   3.373   2.099
   67SAPC  H14C 5556   1.240   3.370   1.943
   67SAPC   C15 5557   1.121   3.144   1.988
   67SAPC  H15A 5558   1.055   3.058   1.984
   67SAPC  H15B 5559   1.187   3.134   1.904
   67SAPC  H15C 5560   1.194   3.133   2.067
   67SAPC   C11 5561   0.814   3.197   2.076
   67SAPC  H11A 5562   0.754   3.220   1.985
   67SAPC  H11B 5563   0.749   3.212   2.166
   67SAPC     P 5564   0.856   2.960   2.194
   67SAPC   O13 5565   0.733   2.876   2.217
   67SAPC   O14 5566   0.983   2.892   2.165
   67SAPC   O12 5567   0.833   3.057   2.067
   67SAPC   O11 5568   0.868   3.058   2.321
   67SAPC    C1 5569   0.981   3.059   2.407
   67SAPC    HA 5570   1.002   2.960   2.453
   67SAPC    HB 5571   1.068   3.093   2.347
   67SAPC    C2 5572   0.960   3.152   2.526
   67SAPC    HS 5573   1.059   3.173   2.573
   67SAPC   O21 5574   0.866   3.091   2.621
   67SAPC   C21 5575   0.910   3.000   2.705
   67SAPC   O22 5576   1.025   2.966   2.707
   67SAPC   C22 5577   0.795   2.968   2.803
   67SAPC   H2R 5578   0.700   3.017   2.773
   67SAPC   H2S 5579   0.783   2.858   2.816
   67SAPC    C3 5580   0.912   3.289   2.478
   67SAPC    HX 5581   0.822   3.281   2.414
   67SAPC    HY 5582   0.997   3.319   2.412
   67SAPC   O31 5583   0.897   3.380   2.586
   67SAPC   C31 5584   0.868   3.501   2.551
   67SAPC   O32 5585   0.852   3.543   2.437
   67SAPC   C32 5586   0.845   3.587   2.675
   67SAPC   H2X 5587   0.737   3.603   2.693
   67SAPC   H2Y 5588   0.889   3.687   2.653
   67SAPC   C23 5589   0.830   3.010   2.944
   67SAPC   H3R 5590   0.844   3.118   2.969
   67SAPC   H3S 5591   0.920   2.954   2.978
   67SAPC   C24 5592   0.712   2.973   3.041
   67SAPC   H4R 5593   0.671   2.876   3.004
   67SAPC   H4S 5594   0.627   3.043   3.032
   67SAPC   C25 5595   0.750   2.969   3.185
   67SAPC   H5R 5596   0.818   3.044   3.227
   67SAPC   C26 5597   0.711   2.868   3.259
   67SAPC   H6R 5598   0.736   2.870   3.366
   67SAPC   C27 5599   0.613   2.751   3.237
   67SAPC   H7R 5600   0.525   2.811   3.206
   67SAPC   H7S 5601   0.587   2.702   3.333
   67SAPC   C28 5602   0.654   2.650   3.135
   67SAPC   H8R 5603   0.761   2.628   3.124
   67SAPC   C29 5604   0.572   2.566   3.072
   67SAPC   H9R 5605   0.631   2.490   3.020
   67SAPC  C210 5606   0.424   2.543   3.090
   67SAPC  H10R 5607   0.397   2.488   2.997
   67SAPC  H10S 5608   0.377   2.643   3.102
   67SAPC  C211 5609   0.377   2.459   3.205
   67SAPC  H11R 5610   0.454   2.408   3.265
   67SAPC  C212 5611   0.256   2.417   3.230
   67SAPC  H12R 5612   0.246   2.354   3.319
   67SAPC  C213 5613   0.139   2.450   3.137
   67SAPC  H13R 5614   0.147   2.547   3.084
   67SAPC  H13S 5615   0.043   2.450   3.193
   67SAPC  C214 5616   0.142   2.352   3.028
   67SAPC  H14R 5617   0.175   2.251   3.056
   67SAPC  C215 5618   0.109   2.366   2.895
   67SAPC  H15R 5619   0.104   2.271   2.839
   67SAPC  C216 5620   0.050   2.487   2.833
   67SAPC  H16R 5621   0.109   2.502   2.740
   67SAPC  H16S 5622   0.071   2.571   2.903
   67SAPC  C217 5623  -0.107   2.478   2.814
   67SAPC  H17R 5624  -0.167   2.462   2.906
   67SAPC  H17S 5625  -0.135   2.388   2.755
   67SAPC  C218 5626  -0.165   2.597   2.738
   67SAPC  H18R 5627  -0.128   2.590   2.633
   67SAPC  H18S 5628  -0.133   2.697   2.772
   67SAPC  C219 5629  -0.320   2.595   2.732
   67SAPC  H19R 5630  -0.345   2.599   2.840
   67SAPC  H19S 5631  -0.354   2.498   2.690
   67SAPC  C220 5632  -0.364   2.709   2.650
   67SAPC  H20R 5633  -0.338   2.696   2.543
   67SAPC  H20S 5634  -0.313   2.806   2.669
   67SAPC  H20T 5635  -0.473   2.726   2.665
   67SAPC   C33 5636   0.908   3.540   2.806
   67SAPC   H3X 5637   1.015   3.514   2.794
   67SAPC   H3Y 5638   0.859   3.442   2.827
   67SAPC   C34 5639   0.869   3.640   2.919
   67SAPC   H4X 5640   0.759   3.653   2.909
   67SAPC   H4Y 5641   0.914   3.741   2.908
   67SAPC   C35 5642   0.911   3.579   3.055
   67SAPC   H5X 5643   1.021   3.572   3.069
   67SAPC   H5Y 5644   0.875   3.475   3.065
   67SAPC   C36 5645   0.857   3.664   3.174
   67SAPC   H6X 5646   0.763   3.622   3.216
   67SAPC   H6Y 5647   0.836   3.772   3.155
   67SAPC   C37 5648   0.942   3.651   3.298
   67SAPC   H7X 5649   1.029   3.718   3.280
   67SAPC   H7Y 5650   0.974   3.546   3.318
   67SAPC   C38 5651   0.870   3.693   3.426
   67SAPC   H8X 5652   0.775   3.636   3.437
   67SAPC   H8Y 5653   0.834   3.798   3.416
   67SAPC   C39 5654   0.952   3.679   3.560
   67SAPC   H9X 5655   1.052   3.720   3.535
   67SAPC   H9Y 5656   0.976   3.574   3.589
   67SAPC  C310 5657   0.892   3.759   3.674
   67SAPC  H10X 5658   0.881   3.866   3.647
   67SAPC  H10Y 5659   0.967   3.766   3.755
   67SAPC  C311 5660   0.759   3.705   3.732
   67SAPC  H11X 5661   0.782   3.600   3.759
   67SAPC  H11Y 5662   0.673   3.699   3.663
   67SAPC  C312 5663   0.712   3.781   3.854
   67SAPC  H12X 5664   0.609   3.749   3.881
   67SAPC  H12Y 5665   0.688   3.887   3.832
   67SAPC  C313 5666   0.802   3.766   3.977
   67SAPC  H13X 5667   0.906   3.802   3.960
   67SAPC  H13Y 5668   0.819   3.660   4.004
   67SAPC  C314 5669   0.747   3.839   4.100
   67SAPC  H14X 5670   0.653   3.795   4.138
   67SAPC  H14Y 5671   0.719   3.945   4.086
   67SAPC  C315 5672   0.845   3.842   4.215
   67SAPC  H15X 5673   0.939   3.891   4.183
   67SAPC  H15Y 5674   0.875   3.739   4.245
   67SAPC  C316 5675   0.800   3.905   4.347
   67SAPC  H16X 5676   0.723   3.846   4.402
   67SAPC  H16Y 5677   0.753   4.004   4.335
   67SAPC  C317 5678   0.918   3.917   4.440
   67SAPC  H17X 5679   0.994   3.994   4.412
   67SAPC  H17Y 5680   0.962   3.816   4.453
   67SAPC  C318 5681   0.872   3.959   4.579
   67SAPC  H18X 5682   0.792   4.035   4.571
   67SAPC  H18Y 5683   0.950   3.998   4.648
   67SAPC  H18Z 5684   0.821   3.872   4.626
   68SAPC     N 5685   3.243   2.657   1.929
   68SAPC   C12 5686   3.225   2.701   2.075
   68SAPC  H12A 5687   3.206   2.614   2.137
   68SAPC  H12B 5688   3.130   2.751   2.083
   68SAPC   C13 5689   3.108   2.611   1.883
   68SAPC  H13A 5690   3.110   2.555   1.791
   68SAPC  H13B 5691   3.072   2.541   1.957
   68SAPC  H13C 5692   3.041   2.693   1.862
   68SAPC   C14 5693   3.289   2.776   1.852
   68SAPC  H14A 5694   3.211   2.850   1.849
   68SAPC  H14B 5695   3.371   2.821   1.907
   68SAPC  H14C 5696   3.342   2.750   1.762
   68SAPC   C15 5697   3.340   2.545   1.920
   68SAPC  H15A 5698   3.349   2.508   1.819
   68SAPC  H15B 5699   3.439   2.569   1.955
   68SAPC  H15C 5700   3.307   2.472   1.993
   68SAPC   C11 5701   3.346   2.769   2.140
   68SAPC  H11A 5702   3.439   2.709   2.138
   68SAPC  H11B 5703   3.321   2.775   2.248
   68SAPC     P 5704   3.308   3.027   2.147
   68SAPC   O13 5705   3.348   3.150   2.067
   68SAPC   O14 5706   3.164   3.010   2.156
   68SAPC   O12 5707   3.370   2.901   2.082
   68SAPC   O11 5708   3.362   3.040   2.300
   68SAPC    C1 5709   3.496   3.003   2.338
   68SAPC    HA 5710   3.524   2.900   2.307
   68SAPC    HB 5711   3.563   3.075   2.285
   68SAPC    C2 5712   3.508   3.015   2.499
   68SAPC    HS 5713   3.599   2.966   2.540
   68SAPC   O21 5714   3.384   2.967   2.561
   68SAPC   C21 5715   3.356   2.839   2.535
   68SAPC   O22 5716   3.437   2.764   2.487
   68SAPC   C22 5717   3.212   2.793   2.565
   68SAPC   H2R 5718   3.147   2.867   2.513
   68SAPC   H2S 5719   3.194   2.697   2.512
   68SAPC    C3 5720   3.523   3.164   2.523
   68SAPC    HX 5721   3.429   3.206   2.480
   68SAPC    HY 5722   3.604   3.197   2.455
   68SAPC   O31 5723   3.548   3.202   2.663
   68SAPC   C31 5724   3.609   3.316   2.671
   68SAPC   O32 5725   3.657   3.382   2.579
   68SAPC   C32 5726   3.622   3.355   2.820
   68SAPC   H2X 5727   3.563   3.290   2.888
   68SAPC   H2Y 5728   3.576   3.455   2.830
   68SAPC   C23 5729   3.178   2.776   2.710
   68SAPC   H3R 5730   3.224   2.866   2.756
   68SAPC   H3S 5731   3.221   2.685   2.758
   68SAPC   C24 5732   3.032   2.772   2.732
   68SAPC   H4R 5733   2.989   2.872   2.707
   68SAPC   H4S 5734   2.997   2.753   2.836
   68SAPC   C25 5735   2.949   2.675   2.647
   68SAPC   H5R 5736   2.942   2.700   2.540
   68SAPC   C26 5737   2.861   2.577   2.686
   68SAPC   H6R 5738   2.813   2.524   2.603
   68SAPC   C27 5739   2.818   2.537   2.816
   68SAPC   H7R 5740   2.901   2.532   2.890
   68SAPC   H7S 5741   2.790   2.430   2.803
   68SAPC   C28 5742   2.700   2.618   2.871
   68SAPC   H8R 5743   2.616   2.646   2.806
   68SAPC   C29 5744   2.680   2.661   2.999
   68SAPC   H9R 5745   2.586   2.714   3.020
   68SAPC  C210 5746   2.772   2.621   3.117
   68SAPC  H10R 5747   2.810   2.518   3.101
   68SAPC  H10S 5748   2.714   2.596   3.208
   68SAPC  C211 5749   2.891   2.711   3.130
   68SAPC  H11R 5750   2.948   2.730   3.038
   68SAPC  C212 5751   2.925   2.773   3.248
   68SAPC  H12R 5752   3.016   2.833   3.234
   68SAPC  C213 5753   2.859   2.772   3.387
   68SAPC  H13R 5754   2.763   2.716   3.392
   68SAPC  H13S 5755   2.851   2.875   3.428
   68SAPC  C214 5756   2.963   2.710   3.481
   68SAPC  H14R 5757   2.951   2.601   3.479
   68SAPC  C215 5758   3.041   2.780   3.566
   68SAPC  H15R 5759   3.121   2.722   3.613
   68SAPC  C216 5760   3.072   2.927   3.558
   68SAPC  H16R 5761   3.010   2.980   3.483
   68SAPC  H16S 5762   3.179   2.945   3.533
   68SAPC  C217 5763   3.049   3.000   3.692
   68SAPC  H17R 5764   2.944   2.990   3.727
   68SAPC  H17S 5765   3.068   3.108   3.675
   68SAPC  C218 5766   3.132   2.939   3.808
   68SAPC  H18R 5767   3.120   2.829   3.804
   68SAPC  H18S 5768   3.090   2.978   3.903
   68SAPC  C219 5769   3.285   2.959   3.793
   68SAPC  H19R 5770   3.308   3.067   3.785
   68SAPC  H19S 5771   3.328   2.908   3.704
   68SAPC  C220 5772   3.347   2.908   3.926
   68SAPC  H20R 5773   3.446   2.954   3.945
   68SAPC  H20S 5774   3.357   2.798   3.919
   68SAPC  H20T 5775   3.274   2.929   4.008
   68SAPC   C33 5776   3.772   3.372   2.859
   68SAPC   H3X 5777   3.822   3.455   2.805
   68SAPC   H3Y 5778   3.837   3.285   2.833
   68SAPC   C34 5779   3.779   3.376   3.014
   68SAPC   H4X 5780   3.708   3.293   3.035
   68SAPC   H4Y 5781   3.739   3.476   3.043
   68SAPC   C35 5782   3.920   3.350   3.082
   68SAPC   H5X 5783   4.006   3.412   3.049
   68SAPC   H5Y 5784   3.944   3.244   3.059
   68SAPC   C36 5785   3.916   3.354   3.236
   68SAPC   H6X 5786   4.012   3.323   3.282
   68SAPC   H6Y 5787   3.840   3.284   3.277
   68SAPC   C37 5788   3.892   3.495   3.287
   68SAPC   H7X 5789   3.787   3.515   3.256
   68SAPC   H7Y 5790   3.970   3.564   3.250
   68SAPC   C38 5791   3.892   3.507   3.439
   68SAPC   H8X 5792   3.831   3.426   3.483
   68SAPC   H8Y 5793   3.838   3.602   3.460
   68SAPC   C39 5794   4.024   3.516   3.495
   68SAPC   H9X 5795   4.080   3.604   3.456
   68SAPC   H9Y 5796   4.082   3.423   3.477
   68SAPC  C310 5797   4.007   3.550   3.646
   68SAPC  H10X 5798   3.954   3.461   3.686
   68SAPC  H10Y 5799   3.953   3.646   3.648
   68SAPC  C311 5800   4.148   3.572   3.708
   68SAPC  H11X 5801   4.205   3.633   3.635
   68SAPC  H11Y 5802   4.209   3.478   3.708
   68SAPC  C312 5803   4.161   3.603   3.856
   68SAPC  H12X 5804   4.116   3.522   3.918
   68SAPC  H12Y 5805   4.102   3.696   3.877
   68SAPC  C313 5806   4.303   3.631   3.908
   68SAPC  H13X 5807   4.343   3.700   3.830
   68SAPC  H13Y 5808   4.353   3.532   3.900
   68SAPC  C314 5809   4.308   3.684   4.052
   68SAPC  H14X 5810   4.412   3.717   4.078
   68SAPC  H14Y 5811   4.288   3.608   4.131
   68SAPC  C315 5812   4.220   3.811   4.074
   68SAPC  H15X 5813   4.117   3.776   4.050
   68SAPC  H15Y 5814   4.240   3.889   3.997
   68SAPC  C316 5815   4.239   3.887   4.202
   68SAPC  H16X 5816   4.348   3.904   4.219
   68SAPC  H16Y 5817   4.205   3.832   4.292
   68SAPC  C317 5818   4.163   4.022   4.214
   68SAPC  H17X 5819   4.193   4.075   4.121
   68SAPC  H17Y 5820   4.199   4.090   4.294
   68SAPC  C318 5821   4.014   4.009   4.217
   68SAPC  H18X 5822   3.979   3.983   4.319
   68SAPC  H18Y 5823   3.988   3.936   4.138
   68SAPC  H18Z 5824   3.953   4.098   4.188
   69SAPC     N 5825   2.569   6.728   1.754
   69SAPC   C12 5826   2.578   6.791   1.890
   69SAPC  H12A 5827   2.502   6.753   1.956
   69SAPC  H12B 5828   2.559   6.897   1.884
   69SAPC   C13 5829   2.428   6.748   1.711
   69SAPC  H13A 5830   2.399   6.677   1.634
   69SAPC  H13B 5831   2.354   6.732   1.787
   69SAPC  H13C 5832   2.401   6.850   1.686
   69SAPC   C14 5833   2.671   6.783   1.659
   69SAPC  H14A 5834   2.768   6.749   1.691
   69SAPC  H14B 5835   2.653   6.743   1.560
   69SAPC  H14C 5836   2.678   6.891   1.657
   69SAPC   C15 5837   2.592   6.577   1.769
   69SAPC  H15A 5838   2.689   6.546   1.803
   69SAPC  H15B 5839   2.516   6.536   1.833
   69SAPC  H15C 5840   2.586   6.533   1.670
   69SAPC   C11 5841   2.713   6.779   1.963
   69SAPC  H11A 5842   2.757   6.678   1.950
   69SAPC  H11B 5843   2.689   6.783   2.072
   69SAPC     P 5844   2.784   7.026   1.982
   69SAPC   O13 5845   2.893   7.117   1.933
   69SAPC   O14 5846   2.647   7.067   1.941
   69SAPC   O12 5847   2.813   6.876   1.926
   69SAPC   O11 5848   2.784   7.019   2.137
   69SAPC    C1 5849   2.899   6.977   2.201
   69SAPC    HA 5850   2.918   6.874   2.164
   69SAPC    HB 5851   2.983   7.042   2.170
   69SAPC    C2 5852   2.895   6.989   2.355
   69SAPC    HS 5853   3.000   7.016   2.378
   69SAPC   O21 5854   2.865   6.862   2.416
   69SAPC   C21 5855   2.958   6.766   2.403
   69SAPC   O22 5856   3.049   6.759   2.322
   69SAPC   C22 5857   2.923   6.657   2.499
   69SAPC   H2R 5858   2.892   6.580   2.425
   69SAPC   H2S 5859   3.016   6.639   2.556
   69SAPC    C3 5860   2.799   7.099   2.417
   69SAPC    HX 5861   2.697   7.069   2.386
   69SAPC    HY 5862   2.810   7.190   2.353
   69SAPC   O31 5863   2.818   7.128   2.564
   69SAPC   C31 5864   2.707   7.153   2.620
   69SAPC   O32 5865   2.595   7.157   2.565
   69SAPC   C32 5866   2.732   7.170   2.764
   69SAPC   H2X 5867   2.836   7.208   2.774
   69SAPC   H2Y 5868   2.714   7.068   2.805
   69SAPC   C23 5869   2.797   6.680   2.587
   69SAPC   H3R 5870   2.776   6.588   2.646
   69SAPC   H3S 5871   2.707   6.711   2.530
   69SAPC   C24 5872   2.823   6.782   2.698
   69SAPC   H4R 5873   2.858   6.879   2.656
   69SAPC   H4S 5874   2.916   6.746   2.745
   69SAPC   C25 5875   2.699   6.810   2.786
   69SAPC   H5R 5876   2.612   6.856   2.738
   69SAPC   C26 5877   2.697   6.810   2.917
   69SAPC   H6R 5878   2.601   6.814   2.970
   69SAPC   C27 5879   2.811   6.765   2.999
   69SAPC   H7R 5880   2.913   6.793   2.966
   69SAPC   H7S 5881   2.821   6.656   2.986
   69SAPC   C28 5882   2.809   6.801   3.147
   69SAPC   H8R 5883   2.837   6.905   3.168
   69SAPC   C29 5884   2.771   6.731   3.256
   69SAPC   H9R 5885   2.807   6.775   3.351
   69SAPC  C210 5886   2.701   6.598   3.268
   69SAPC  H10R 5887   2.780   6.528   3.304
   69SAPC  H10S 5888   2.685   6.573   3.161
   69SAPC  C211 5889   2.574   6.592   3.356
   69SAPC  H11R 5890   2.597   6.557   3.458
   69SAPC  C212 5891   2.450   6.633   3.323
   69SAPC  H12R 5892   2.374   6.643   3.401
   69SAPC  C213 5893   2.405   6.697   3.193
   69SAPC  H13R 5894   2.307   6.657   3.160
   69SAPC  H13S 5895   2.464   6.669   3.103
   69SAPC  C214 5896   2.406   6.845   3.207
   69SAPC  H14R 5897   2.492   6.890   3.260
   69SAPC  C215 5898   2.301   6.922   3.175
   69SAPC  H15R 5899   2.313   7.027   3.207
   69SAPC  C216 5900   2.170   6.878   3.111
   69SAPC  H16R 5901   2.082   6.919   3.165
   69SAPC  H16S 5902   2.149   6.769   3.121
   69SAPC  C217 5903   2.154   6.921   2.958
   69SAPC  H17R 5904   2.195   7.022   2.935
   69SAPC  H17S 5905   2.045   6.922   2.937
   69SAPC  C218 5906   2.228   6.822   2.876
   69SAPC  H18R 5907   2.178   6.722   2.880
   69SAPC  H18S 5908   2.334   6.814   2.907
   69SAPC  C219 5909   2.222   6.867   2.727
   69SAPC  H19R 5910   2.285   6.958   2.733
   69SAPC  H19S 5911   2.125   6.915   2.700
   69SAPC  C220 5912   2.274   6.776   2.628
   69SAPC  H20R 5913   2.283   6.815   2.524
   69SAPC  H20S 5914   2.214   6.682   2.625
   69SAPC  H20T 5915   2.370   6.736   2.665
   69SAPC   C33 5916   2.634   7.260   2.838
   69SAPC   H3X 5917   2.528   7.246   2.806
   69SAPC   H3Y 5918   2.649   7.369   2.825
   69SAPC   C34 5919   2.626   7.229   2.990
   69SAPC   H4X 5920   2.733   7.228   3.020
   69SAPC   H4Y 5921   2.588   7.126   3.007
   69SAPC   C35 5922   2.539   7.318   3.083
   69SAPC   H5X 5923   2.436   7.293   3.051
   69SAPC   H5Y 5924   2.561   7.421   3.050
   69SAPC   C36 5925   2.562   7.288   3.229
   69SAPC   H6X 5926   2.535   7.185   3.262
   69SAPC   H6Y 5927   2.497   7.350   3.294
   69SAPC   C37 5928   2.708   7.313   3.278
   69SAPC   H7X 5929   2.742   7.411   3.239
   69SAPC   H7Y 5930   2.776   7.234   3.238
   69SAPC   C38 5931   2.723   7.309   3.434
   69SAPC   H8X 5932   2.647   7.376   3.480
   69SAPC   H8Y 5933   2.826   7.336   3.469
   69SAPC   C39 5934   2.704   7.171   3.504
   69SAPC   H9X 5935   2.780   7.113   3.448
   69SAPC   H9Y 5936   2.606   7.120   3.496
   69SAPC  C310 5937   2.747   7.174   3.653
   69SAPC  H10X 5938   2.689   7.242   3.719
   69SAPC  H10Y 5939   2.855   7.196   3.665
   69SAPC  C311 5940   2.731   7.029   3.710
   69SAPC  H11X 5941   2.805   6.968   3.655
   69SAPC  H11Y 5942   2.636   6.983   3.675
   69SAPC  C312 5943   2.735   7.010   3.863
   69SAPC  H12X 5944   2.652   7.055   3.921
   69SAPC  H12Y 5945   2.824   7.071   3.891
   69SAPC  C313 5946   2.743   6.863   3.909
   69SAPC  H13X 5947   2.762   6.863   4.019
   69SAPC  H13Y 5948   2.833   6.822   3.860
   69SAPC  C314 5949   2.620   6.779   3.882
   69SAPC  H14X 5950   2.590   6.791   3.776
   69SAPC  H14Y 5951   2.538   6.820   3.945
   69SAPC  C315 5952   2.632   6.629   3.900
   69SAPC  H15X 5953   2.527   6.594   3.909
   69SAPC  H15Y 5954   2.684   6.601   3.994
   69SAPC  C316 5955   2.692   6.561   3.781
   69SAPC  H16X 5956   2.802   6.570   3.795
   69SAPC  H16Y 5957   2.676   6.618   3.687
   69SAPC  C317 5958   2.636   6.418   3.759
   69SAPC  H17X 5959   2.630   6.372   3.860
   69SAPC  H17Y 5960   2.713   6.360   3.704
   69SAPC  C318 5961   2.506   6.410   3.689
   69SAPC  H18X 5962   2.498   6.311   3.640
   69SAPC  H18Y 5963   2.503   6.487   3.609
   69SAPC  H18Z 5964   2.421   6.434   3.757
   70SAPC     N 5965   4.988   4.938   2.510
   70SAPC   C12 5966   4.994   4.903   2.656
   70SAPC  H12A 5967   4.915   4.959   2.704
   70SAPC  H12B 5968   5.085   4.948   2.693
   70SAPC   C13 5969   5.008   5.086   2.495
   70SAPC  H13A 5970   4.943   5.151   2.552
   70SAPC  H13B 5971   5.104   5.110   2.537
   70SAPC  H13C 5972   5.000   5.116   2.392
   70SAPC   C14 5973   5.087   4.874   2.421
   70SAPC  H14A 5974   5.066   4.768   2.420
   70SAPC  H14B 5975   5.085   4.919   2.323
   70SAPC  H14C 5976   5.186   4.874   2.465
   70SAPC   C15 5977   4.850   4.904   2.453
   70SAPC  H15A 5978   4.831   4.811   2.504
   70SAPC  H15B 5979   4.786   4.986   2.481
   70SAPC  H15C 5980   4.843   4.896   2.345
   70SAPC   C11 5981   4.992   4.752   2.696
   70SAPC  H11A 5982   5.034   4.741   2.798
   70SAPC  H11B 5983   5.051   4.685   2.630
   70SAPC     P 5984   4.804   4.573   2.687
   70SAPC   O13 5985   4.733   4.556   2.559
   70SAPC   O14 5986   4.915   4.486   2.706
   70SAPC   O12 5987   4.854   4.725   2.693
   70SAPC   O11 5988   4.692   4.567   2.805
   70SAPC    C1 5989   4.567   4.635   2.796
   70SAPC    HA 5990   4.583   4.743   2.778
   70SAPC    HB 5991   4.508   4.595   2.711
   70SAPC    C2 5992   4.487   4.596   2.918
   70SAPC    HS 5993   4.384   4.638   2.918
   70SAPC   O21 5994   4.557   4.634   3.042
   70SAPC   C21 5995   4.519   4.751   3.095
   70SAPC   O22 5996   4.437   4.828   3.052
   70SAPC   C22 5997   4.591   4.771   3.233
   70SAPC   H2R 5998   4.662   4.688   3.252
   70SAPC   H2S 5999   4.649   4.866   3.232
   70SAPC    C3 6000   4.460   4.437   2.912
   70SAPC    HX 6001   4.565   4.400   2.915
   70SAPC    HY 6002   4.410   4.427   2.813
   70SAPC   O31 6003   4.390   4.385   3.029
   70SAPC   C31 6004   4.381   4.250   3.011
   70SAPC   O32 6005   4.420   4.198   2.905
   70SAPC   C32 6006   4.341   4.184   3.139
   70SAPC   H2X 6007   4.232   4.201   3.154
   70SAPC   H2Y 6008   4.407   4.223   3.219
   70SAPC   C23 6009   4.482   4.769   3.348
   70SAPC   H3R 6010   4.406   4.847   3.324
   70SAPC   H3S 6011   4.538   4.785   3.442
   70SAPC   C24 6012   4.437   4.622   3.376
   70SAPC   H4R 6013   4.408   4.607   3.482
   70SAPC   H4S 6014   4.515   4.545   3.358
   70SAPC   C25 6015   4.325   4.568   3.287
   70SAPC   H5R 6016   4.359   4.574   3.183
   70SAPC   C26 6017   4.206   4.517   3.324
   70SAPC   H6R 6018   4.136   4.486   3.245
   70SAPC   C27 6019   4.130   4.511   3.461
   70SAPC   H7R 6020   4.104   4.611   3.504
   70SAPC   H7S 6021   4.203   4.468   3.533
   70SAPC   C28 6022   4.008   4.420   3.464
   70SAPC   H8R 6023   3.954   4.407   3.369
   70SAPC   C29 6024   3.965   4.346   3.572
   70SAPC   H9R 6025   3.883   4.275   3.554
   70SAPC  C210 6026   4.015   4.362   3.714
   70SAPC  H10R 6027   4.125   4.376   3.711
   70SAPC  H10S 6028   3.993   4.268   3.770
   70SAPC  C211 6029   3.954   4.478   3.793
   70SAPC  H11R 6030   3.905   4.545   3.720
   70SAPC  C212 6031   3.913   4.480   3.921
   70SAPC  H12R 6032   3.881   4.577   3.963
   70SAPC  C213 6033   3.938   4.375   4.021
   70SAPC  H13R 6034   4.047   4.382   4.042
   70SAPC  H13S 6035   3.921   4.275   3.977
   70SAPC  C214 6036   3.856   4.389   4.143
   70SAPC  H14R 6037   3.750   4.388   4.116
   70SAPC  C215 6038   3.905   4.383   4.270
   70SAPC  H15R 6039   3.836   4.394   4.355
   70SAPC  C216 6040   4.049   4.390   4.304
   70SAPC  H16R 6041   4.101   4.299   4.268
   70SAPC  H16S 6042   4.051   4.379   4.414
   70SAPC  C217 6043   4.139   4.511   4.271
   70SAPC  H17R 6044   4.089   4.605   4.302
   70SAPC  H17S 6045   4.158   4.524   4.162
   70SAPC  C218 6046   4.277   4.484   4.338
   70SAPC  H18R 6047   4.354   4.536   4.278
   70SAPC  H18S 6048   4.292   4.378   4.309
   70SAPC  C219 6049   4.278   4.513   4.485
   70SAPC  H19R 6050   4.365   4.461   4.531
   70SAPC  H19S 6051   4.185   4.473   4.532
   70SAPC  C220 6052   4.285   4.660   4.526
   70SAPC  H20R 6053   4.191   4.708   4.492
   70SAPC  H20S 6054   4.363   4.717   4.471
   70SAPC  H20T 6055   4.294   4.665   4.637
   70SAPC   C33 6056   4.366   4.028   3.136
   70SAPC   H3X 6057   4.475   4.007   3.135
   70SAPC   H3Y 6058   4.317   3.966   3.057
   70SAPC   C34 6059   4.295   3.975   3.265
   70SAPC   H4X 6060   4.288   3.865   3.255
   70SAPC   H4Y 6061   4.191   4.011   3.276
   70SAPC   C35 6062   4.369   4.017   3.393
   70SAPC   H5X 6063   4.386   4.126   3.386
   70SAPC   H5Y 6064   4.474   3.981   3.392
   70SAPC   C36 6065   4.301   3.977   3.532
   70SAPC   H6X 6066   4.301   3.866   3.519
   70SAPC   H6Y 6067   4.195   4.009   3.525
   70SAPC   C37 6068   4.375   4.026   3.657
   70SAPC   H7X 6069   4.308   3.996   3.740
   70SAPC   H7Y 6070   4.470   3.967   3.654
   70SAPC   C38 6071   4.402   4.173   3.652
   70SAPC   H8X 6072   4.299   4.214   3.646
   70SAPC   H8Y 6073   4.459   4.212   3.564
   70SAPC   C39 6074   4.466   4.232   3.778
   70SAPC   H9X 6075   4.478   4.341   3.759
   70SAPC   H9Y 6076   4.567   4.188   3.786
   70SAPC  C310 6077   4.377   4.222   3.903
   70SAPC  H10X 6078   4.375   4.117   3.940
   70SAPC  H10Y 6079   4.275   4.252   3.871
   70SAPC  C311 6080   4.420   4.311   4.016
   70SAPC  H11X 6081   4.346   4.319   4.099
   70SAPC  H11Y 6082   4.435   4.416   3.981
   70SAPC  C312 6083   4.552   4.269   4.080
   70SAPC  H12X 6084   4.614   4.354   4.116
   70SAPC  H12Y 6085   4.615   4.225   4.000
   70SAPC  C313 6086   4.540   4.176   4.199
   70SAPC  H13X 6087   4.525   4.074   4.160
   70SAPC  H13Y 6088   4.458   4.211   4.265
   70SAPC  C314 6089   4.675   4.157   4.276
   70SAPC  H14X 6090   4.706   4.258   4.312
   70SAPC  H14Y 6091   4.749   4.114   4.206
   70SAPC  C315 6092   4.661   4.060   4.394
   70SAPC  H15X 6093   4.691   3.956   4.369
   70SAPC  H15Y 6094   4.555   4.069   4.428
   70SAPC  C316 6095   4.769   4.101   4.500
   70SAPC  H16X 6096   4.741   4.204   4.532
   70SAPC  H16Y 6097   4.866   4.111   4.447
   70SAPC  C317 6098   4.783   4.002   4.608
   70SAPC  H17X 6099   4.828   4.054   4.696
   70SAPC  H17Y 6100   4.848   3.920   4.570
   70SAPC  C318 6101   4.648   3.944   4.665
   70SAPC  H18X 6102   4.669   3.881   4.755
   70SAPC  H18Y 6103   4.600   3.871   4.597
   70SAPC  H18Z 6104   4.576   4.019   4.703
   71SAPC     N 6105   4.234   2.463   2.110
   71SAPC   C12 6106   4.273   2.610   2.083
   71SAPC  H12A 6107   4.190   2.673   2.111
   71SAPC  H12B 6108   4.300   2.633   1.981
   71SAPC   C13 6109   4.219   2.437   2.256
   71SAPC  H13A 6110   4.310   2.449   2.311
   71SAPC  H13B 6111   4.150   2.507   2.300
   71SAPC  H13C 6112   4.193   2.336   2.285
   71SAPC   C14 6113   4.106   2.421   2.050
   71SAPC  H14A 6114   4.023   2.474   2.094
   71SAPC  H14B 6115   4.124   2.442   1.946
   71SAPC  H14C 6116   4.092   2.316   2.074
   71SAPC   C15 6117   4.331   2.367   2.057
   71SAPC  H15A 6118   4.314   2.350   1.951
   71SAPC  H15B 6119   4.425   2.417   2.073
   71SAPC  H15C 6120   4.317   2.276   2.114
   71SAPC   C11 6121   4.383   2.676   2.179
   71SAPC  H11A 6122   4.335   2.688   2.278
   71SAPC  H11B 6123   4.401   2.778   2.138
   71SAPC     P 6124   4.619   2.616   2.075
   71SAPC   O13 6125   4.637   2.492   1.999
   71SAPC   O14 6126   4.611   2.744   1.990
   71SAPC   O12 6127   4.500   2.597   2.177
   71SAPC   O11 6128   4.734   2.629   2.175
   71SAPC    C1 6129   4.792   2.736   2.252
   71SAPC    HA 6130   4.903   2.737   2.259
   71SAPC    HB 6131   4.764   2.837   2.216
   71SAPC    C2 6132   4.719   2.731   2.388
   71SAPC    HS 6133   4.672   2.630   2.394
   71SAPC   O21 6134   4.620   2.837   2.390
   71SAPC   C21 6135   4.515   2.830   2.468
   71SAPC   O22 6136   4.486   2.739   2.543
   71SAPC   C22 6137   4.418   2.941   2.429
   71SAPC   H2R 6138   4.467   3.040   2.436
   71SAPC   H2S 6139   4.391   2.928   2.322
   71SAPC    C3 6140   4.812   2.767   2.521
   71SAPC    HX 6141   4.835   2.876   2.523
   71SAPC    HY 6142   4.909   2.714   2.512
   71SAPC   O31 6143   4.748   2.744   2.646
   71SAPC   C31 6144   4.725   2.614   2.680
   71SAPC   O32 6145   4.747   2.523   2.600
   71SAPC   C32 6146   4.671   2.600   2.820
   71SAPC   H2X 6147   4.563   2.624   2.817
   71SAPC   H2Y 6148   4.708   2.685   2.882
   71SAPC   C23 6149   4.290   2.944   2.507
   71SAPC   H3R 6150   4.242   2.844   2.518
   71SAPC   H3S 6151   4.212   3.000   2.451
   71SAPC   C24 6152   4.306   2.997   2.646
   71SAPC   H4R 6153   4.379   2.926   2.690
   71SAPC   H4S 6154   4.210   2.984   2.700
   71SAPC   C25 6155   4.356   3.139   2.670
   71SAPC   H5R 6156   4.440   3.171   2.607
   71SAPC   C26 6157   4.303   3.229   2.755
   71SAPC   H6R 6158   4.341   3.333   2.752
   71SAPC   C27 6159   4.182   3.207   2.837
   71SAPC   H7R 6160   4.108   3.172   2.761
   71SAPC   H7S 6161   4.138   3.306   2.861
   71SAPC   C28 6162   4.202   3.116   2.952
   71SAPC   H8R 6163   4.199   3.009   2.927
   71SAPC   C29 6164   4.250   3.157   3.073
   71SAPC   H9R 6165   4.253   3.085   3.156
   71SAPC  C210 6166   4.288   3.300   3.103
   71SAPC  H10R 6167   4.244   3.325   3.202
   71SAPC  H10S 6168   4.234   3.372   3.038
   71SAPC  C211 6169   4.438   3.319   3.103
   71SAPC  H11R 6170   4.469   3.338   2.999
   71SAPC  C212 6171   4.519   3.302   3.207
   71SAPC  H12R 6172   4.627   3.316   3.193
   71SAPC  C213 6173   4.480   3.268   3.351
   71SAPC  H13R 6174   4.400   3.192   3.360
   71SAPC  H13S 6175   4.451   3.352   3.417
   71SAPC  C214 6176   4.604   3.196   3.406
   71SAPC  H14R 6177   4.625   3.100   3.357
   71SAPC  C215 6178   4.652   3.213   3.532
   71SAPC  H15R 6179   4.744   3.160   3.560
   71SAPC  C216 6180   4.602   3.314   3.628
   71SAPC  H16R 6181   4.508   3.273   3.670
   71SAPC  H16S 6182   4.578   3.413   3.584
   71SAPC  C217 6183   4.705   3.332   3.736
   71SAPC  H17R 6184   4.676   3.419   3.799
   71SAPC  H17S 6185   4.806   3.346   3.694
   71SAPC  C218 6186   4.708   3.204   3.832
   71SAPC  H18R 6187   4.760   3.116   3.788
   71SAPC  H18S 6188   4.607   3.161   3.850
   71SAPC  C219 6189   4.775   3.235   3.968
   71SAPC  H19R 6190   4.853   3.309   3.942
   71SAPC  H19S 6191   4.827   3.150   4.017
   71SAPC  C220 6192   4.677   3.298   4.069
   71SAPC  H20R 6193   4.594   3.234   4.104
   71SAPC  H20S 6194   4.632   3.378   4.007
   71SAPC  H20T 6195   4.735   3.340   4.154
   71SAPC   C33 6196   4.684   2.463   2.892
   71SAPC   H3X 6197   4.794   2.456   2.901
   71SAPC   H3Y 6198   4.642   2.387   2.823
   71SAPC   C34 6199   4.619   2.474   3.031
   71SAPC   H4X 6200   4.516   2.510   3.010
   71SAPC   H4Y 6201   4.671   2.548   3.096
   71SAPC   C35 6202   4.616   2.345   3.101
   71SAPC   H5X 6203   4.718   2.302   3.107
   71SAPC   H5Y 6204   4.555   2.277   3.037
   71SAPC   C36 6205   4.552   2.352   3.242
   71SAPC   H6X 6206   4.527   2.248   3.274
   71SAPC   H6Y 6207   4.458   2.410   3.227
   71SAPC   C37 6208   4.655   2.397   3.347
   71SAPC   H7X 6209   4.679   2.506   3.345
   71SAPC   H7Y 6210   4.751   2.350   3.317
   71SAPC   C38 6211   4.625   2.339   3.483
   71SAPC   H8X 6212   4.627   2.228   3.482
   71SAPC   H8Y 6213   4.525   2.379   3.514
   71SAPC   C39 6214   4.718   2.390   3.586
   71SAPC   H9X 6215   4.708   2.500   3.581
   71SAPC   H9Y 6216   4.821   2.357   3.562
   71SAPC  C310 6217   4.685   2.336   3.728
   71SAPC  H10X 6218   4.678   2.226   3.718
   71SAPC  H10Y 6219   4.587   2.374   3.764
   71SAPC  C311 6220   4.792   2.370   3.831
   71SAPC  H11X 6221   4.777   2.478   3.850
   71SAPC  H11Y 6222   4.891   2.363   3.780
   71SAPC  C312 6223   4.786   2.289   3.968
   71SAPC  H12X 6224   4.837   2.191   3.962
   71SAPC  H12Y 6225   4.679   2.261   3.980
   71SAPC  C313 6226   4.832   2.373   4.089
   71SAPC  H13X 6227   4.765   2.461   4.100
   71SAPC  H13Y 6228   4.935   2.413   4.078
   71SAPC  C314 6229   4.820   2.287   4.217
   71SAPC  H14X 6230   4.719   2.240   4.220
   71SAPC  H14Y 6231   4.851   2.342   4.308
   71SAPC  C315 6232   4.910   2.164   4.220
   71SAPC  H15X 6233   5.013   2.203   4.217
   71SAPC  H15Y 6234   4.895   2.103   4.128
   71SAPC  C316 6235   4.905   2.078   4.347
   71SAPC  H16X 6236   4.911   2.141   4.438
   71SAPC  H16Y 6237   4.998   2.017   4.347
   71SAPC  C317 6238   4.774   1.996   4.355
   71SAPC  H17X 6239   4.791   1.916   4.281
   71SAPC  H17Y 6240   4.691   2.058   4.315
   71SAPC  C318 6241   4.748   1.928   4.489
   71SAPC  H18X 6242   4.652   1.873   4.487
   71SAPC  H18Y 6243   4.741   1.999   4.575
   71SAPC  H18Z 6244   4.839   1.867   4.506
   72SAPC     N 6245   4.056   1.896   1.934
   72SAPC   C12 6246   4.132   1.773   1.979
   72SAPC  H12A 6247   4.237   1.798   1.971
   72SAPC  H12B 6248   4.107   1.690   1.914
   72SAPC   C13 6249   3.910   1.861   1.943
   72SAPC  H13A 6250   3.887   1.799   2.028
   72SAPC  H13B 6251   3.845   1.947   1.952
   72SAPC  H13C 6252   3.890   1.815   1.848
   72SAPC   C14 6253   4.101   2.028   2.000
   72SAPC  H14A 6254   4.061   2.054   2.097
   72SAPC  H14B 6255   4.209   2.030   2.003
   72SAPC  H14C 6256   4.079   2.114   1.939
   72SAPC   C15 6257   4.086   1.920   1.787
   72SAPC  H15A 6258   4.042   1.846   1.721
   72SAPC  H15B 6259   4.047   2.016   1.757
   72SAPC  H15C 6260   4.191   1.931   1.764
   72SAPC   C11 6261   4.095   1.719   2.118
   72SAPC  H11A 6262   4.108   1.804   2.189
   72SAPC  H11B 6263   4.173   1.643   2.142
   72SAPC     P 6264   3.966   1.496   2.105
   72SAPC   O13 6265   3.830   1.456   2.060
   72SAPC   O14 6266   4.072   1.462   2.003
   72SAPC   O12 6267   3.965   1.656   2.121
   72SAPC   O11 6268   3.994   1.438   2.254
   72SAPC    C1 6269   3.919   1.488   2.358
   72SAPC    HA 6270   3.812   1.507   2.334
   72SAPC    HB 6271   3.907   1.414   2.440
   72SAPC    C2 6272   3.975   1.610   2.434
   72SAPC    HS 6273   3.982   1.691   2.357
   72SAPC   O21 6274   4.097   1.586   2.505
   72SAPC   C21 6275   4.183   1.683   2.525
   72SAPC   O22 6276   4.173   1.793   2.474
   72SAPC   C22 6277   4.297   1.632   2.621
   72SAPC   H2R 6278   4.319   1.725   2.678
   72SAPC   H2S 6279   4.256   1.557   2.693
   72SAPC    C3 6280   3.876   1.663   2.539
   72SAPC    HX 6281   3.774   1.648   2.500
   72SAPC    HY 6282   3.902   1.771   2.549
   72SAPC   O31 6283   3.877   1.593   2.661
   72SAPC   C31 6284   3.956   1.624   2.750
   72SAPC   O32 6285   4.020   1.731   2.762
   72SAPC   C32 6286   3.963   1.516   2.857
   72SAPC   H2X 6287   4.059   1.462   2.844
   72SAPC   H2Y 6288   3.883   1.442   2.832
   72SAPC   C23 6289   4.433   1.597   2.569
   72SAPC   H3R 6290   4.483   1.677   2.511
   72SAPC   H3S 6291   4.419   1.512   2.499
   72SAPC   C24 6292   4.520   1.548   2.688
   72SAPC   H4R 6293   4.519   1.626   2.768
   72SAPC   H4S 6294   4.626   1.546   2.654
   72SAPC   C25 6295   4.485   1.408   2.742
   72SAPC   H5R 6296   4.495   1.326   2.669
   72SAPC   C26 6297   4.453   1.382   2.869
   72SAPC   H6R 6298   4.419   1.280   2.893
   72SAPC   C27 6299   4.443   1.489   2.980
   72SAPC   H7R 6300   4.438   1.594   2.945
   72SAPC   H7S 6301   4.537   1.483   3.040
   72SAPC   C28 6302   4.324   1.466   3.064
   72SAPC   H8R 6303   4.251   1.395   3.022
   72SAPC   C29 6304   4.305   1.515   3.190
   72SAPC   H9R 6305   4.217   1.491   3.251
   72SAPC  C210 6306   4.403   1.619   3.248
   72SAPC  H10R 6307   4.397   1.706   3.179
   72SAPC  H10S 6308   4.501   1.569   3.236
   72SAPC  C211 6309   4.382   1.660   3.387
   72SAPC  H11R 6310   4.443   1.596   3.452
   72SAPC  C212 6311   4.308   1.762   3.437
   72SAPC  H12R 6312   4.297   1.789   3.543
   72SAPC  C213 6313   4.212   1.847   3.349
   72SAPC  H13R 6314   4.131   1.880   3.417
   72SAPC  H13S 6315   4.165   1.796   3.262
   72SAPC  C214 6316   4.293   1.963   3.303
   72SAPC  H14R 6317   4.328   2.030   3.382
   72SAPC  C215 6318   4.328   2.000   3.182
   72SAPC  H15R 6319   4.395   2.084   3.158
   72SAPC  C216 6320   4.265   1.943   3.054
   72SAPC  H16R 6321   4.171   1.887   3.069
   72SAPC  H16S 6322   4.335   1.866   3.014
   72SAPC  C217 6323   4.250   2.056   2.956
   72SAPC  H17R 6324   4.343   2.116   2.951
   72SAPC  H17S 6325   4.175   2.128   2.994
   72SAPC  C218 6326   4.202   2.021   2.815
   72SAPC  H18R 6327   4.100   1.980   2.833
   72SAPC  H18S 6328   4.257   1.935   2.771
   72SAPC  C219 6329   4.189   2.139   2.718
   72SAPC  H19R 6330   4.140   2.230   2.760
   72SAPC  H19S 6331   4.122   2.112   2.633
   72SAPC  C220 6332   4.321   2.170   2.650
   72SAPC  H20R 6333   4.302   2.250   2.575
   72SAPC  H20S 6334   4.351   2.081   2.590
   72SAPC  H20T 6335   4.403   2.194   2.721
   72SAPC   C33 6336   3.944   1.578   2.999
   72SAPC   H3X 6337   3.851   1.638   3.002
   72SAPC   H3Y 6338   4.025   1.649   3.027
   72SAPC   C34 6339   3.923   1.485   3.121
   72SAPC   H4X 6340   4.011   1.417   3.130
   72SAPC   H4Y 6341   3.831   1.428   3.096
   72SAPC   C35 6342   3.894   1.549   3.264
   72SAPC   H5X 6343   3.844   1.648   3.256
   72SAPC   H5Y 6344   3.990   1.568   3.317
   72SAPC   C36 6345   3.828   1.448   3.365
   72SAPC   H6X 6346   3.720   1.432   3.344
   72SAPC   H6Y 6347   3.842   1.511   3.456
   72SAPC   C37 6348   3.902   1.309   3.376
   72SAPC   H7X 6349   4.009   1.324   3.403
   72SAPC   H7Y 6350   3.875   1.254   3.284
   72SAPC   C38 6351   3.843   1.213   3.488
   72SAPC   H8X 6352   3.899   1.118   3.493
   72SAPC   H8Y 6353   3.736   1.193   3.464
   72SAPC   C39 6354   3.838   1.270   3.628
   72SAPC   H9X 6355   3.768   1.355   3.641
   72SAPC   H9Y 6356   3.937   1.313   3.655
   72SAPC  C310 6357   3.807   1.171   3.740
   72SAPC  H10X 6358   3.849   1.070   3.716
   72SAPC  H10Y 6359   3.699   1.156   3.721
   72SAPC  C311 6360   3.816   1.214   3.882
   72SAPC  H11X 6361   3.764   1.143   3.951
   72SAPC  H11Y 6362   3.763   1.309   3.906
   72SAPC  C312 6363   3.964   1.228   3.925
   72SAPC  H12X 6364   4.008   1.316   3.874
   72SAPC  H12Y 6365   4.009   1.137   3.880
   72SAPC  C313 6366   3.994   1.229   4.073
   72SAPC  H13X 6367   4.100   1.257   4.091
   72SAPC  H13Y 6368   3.984   1.128   4.117
   72SAPC  C314 6369   3.893   1.304   4.149
   72SAPC  H14X 6370   3.794   1.257   4.134
   72SAPC  H14Y 6371   3.887   1.409   4.111
   72SAPC  C315 6372   3.909   1.317   4.298
   72SAPC  H15X 6373   4.004   1.365   4.330
   72SAPC  H15Y 6374   3.890   1.218   4.344
   72SAPC  C316 6375   3.800   1.407   4.349
   72SAPC  H16X 6376   3.708   1.348   4.368
   72SAPC  H16Y 6377   3.780   1.497   4.287
   72SAPC  C317 6378   3.832   1.461   4.481
   72SAPC  H17X 6379   3.749   1.528   4.513
   72SAPC  H17Y 6380   3.926   1.521   4.480
   72SAPC  C318 6381   3.856   1.358   4.594
   72SAPC  H18X 6382   3.907   1.264   4.562
   72SAPC  H18Y 6383   3.758   1.334   4.641
   72SAPC  H18Z 6384   3.916   1.411   4.671
   73SLPC     N 6385   4.356   2.562   7.289
   73SLPC   C13 6386   4.474   2.654   7.268
   73SLPC  H13A 6387   4.453   2.759   7.282
   73SLPC  H13B 6388   4.556   2.635   7.336
   73SLPC  H13C 6389   4.525   2.644   7.173
   73SLPC   C14 6390   4.314   2.583   7.429
   73SLPC  H14A 6391   4.301   2.688   7.452
   73SLPC  H14B 6392   4.232   2.517   7.455
   73SLPC  H14C 6393   4.394   2.567   7.499
   73SLPC   C15 6394   4.403   2.414   7.275
   73SLPC  H15A 6395   4.451   2.404   7.179
   73SLPC  H15B 6396   4.476   2.373   7.343
   73SLPC  H15C 6397   4.322   2.342   7.273
   73SLPC   C12 6398   4.240   2.593   7.195
   73SLPC  H12A 6399   4.209   2.696   7.206
   73SLPC  H12B 6400   4.162   2.520   7.209
   73SLPC   C11 6401   4.274   2.571   7.039
   73SLPC  H11A 6402   4.185   2.575   6.973
   73SLPC  H11B 6403   4.299   2.464   7.021
   73SLPC     P 6404   4.350   2.791   6.940
   73SLPC   O13 6405   4.251   2.852   7.035
   73SLPC   O14 6406   4.467   2.873   6.897
   73SLPC   O12 6407   4.385   2.648   6.987
   73SLPC   O11 6408   4.275   2.753   6.808
   73SLPC    C1 6409   4.320   2.651   6.719
   73SLPC    HA 6410   4.353   2.556   6.767
   73SLPC    HB 6411   4.252   2.622   6.636
   73SLPC    C2 6412   4.450   2.693   6.638
   73SLPC    HS 6413   4.533   2.686   6.710
   73SLPC   O21 6414   4.433   2.819   6.592
   73SLPC   C21 6415   4.541   2.898   6.579
   73SLPC   O22 6416   4.649   2.864   6.616
   73SLPC   C22 6417   4.494   3.021   6.506
   73SLPC   H2R 6418   4.388   3.008   6.476
   73SLPC   H2S 6419   4.493   3.102   6.583
   73SLPC    C3 6420   4.483   2.587   6.525
   73SLPC    HX 6421   4.403   2.578   6.448
   73SLPC    HY 6422   4.486   2.487   6.573
   73SLPC   O31 6423   4.602   2.623   6.444
   73SLPC   C31 6424   4.717   2.576   6.487
   73SLPC   O32 6425   4.740   2.519   6.591
   73SLPC   C32 6426   4.831   2.610   6.386
   73SLPC   H2X 6427   4.855   2.718   6.392
   73SLPC   H2Y 6428   4.792   2.586   6.284
   73SLPC   C23 6429   4.579   3.084   6.402
   73SLPC   H3R 6430   4.668   3.129   6.450
   73SLPC   H3S 6431   4.533   3.176   6.361
   73SLPC   C24 6432   4.623   2.985   6.286
   73SLPC   H4R 6433   4.538   2.920   6.257
   73SLPC   H4S 6434   4.699   2.914   6.324
   73SLPC   C25 6435   4.662   3.079   6.171
   73SLPC   H5R 6436   4.764   3.116   6.192
   73SLPC   H5S 6437   4.586   3.160   6.165
   73SLPC   C26 6438   4.667   3.013   6.029
   73SLPC   H6R 6439   4.673   3.092   5.950
   73SLPC   H6S 6440   4.571   2.963   6.005
   73SLPC   C27 6441   4.790   2.922   5.996
   73SLPC   H7R 6442   4.785   2.833   6.062
   73SLPC   H7S 6443   4.885   2.978   6.012
   73SLPC   C28 6444   4.796   2.873   5.851
   73SLPC   H8R 6445   4.782   2.949   5.772
   73SLPC   H8S 6446   4.715   2.797   5.839
   73SLPC   C29 6447   4.928   2.806   5.826
   73SLPC   H9R 6448   4.979   2.770   5.916
   73SLPC  C210 6449   4.981   2.774   5.710
   73SLPC  H10R 6450   5.078   2.722   5.714
   73SLPC  C211 6451   4.921   2.800   5.573
   73SLPC  H11R 6452   4.958   2.897   5.533
   73SLPC  H11S 6453   4.812   2.814   5.592
   73SLPC  C212 6454   4.943   2.683   5.477
   73SLPC  H12R 6455   4.951   2.586   5.527
   73SLPC  C213 6456   4.952   2.685   5.341
   73SLPC  H13R 6457   4.972   2.591   5.287
   73SLPC  C214 6458   4.937   2.807   5.250
   73SLPC  H14R 6459   5.037   2.849   5.227
   73SLPC  H14S 6460   4.879   2.882   5.307
   73SLPC  C215 6461   4.859   2.761   5.116
   73SLPC  H15R 6462   4.760   2.720   5.145
   73SLPC  H15S 6463   4.925   2.684   5.072
   73SLPC  C216 6464   4.852   2.878   5.021
   73SLPC  H16R 6465   4.953   2.922   5.012
   73SLPC  H16S 6466   4.780   2.947   5.070
   73SLPC  C217 6467   4.804   2.827   4.884
   73SLPC  H17R 6468   4.696   2.803   4.884
   73SLPC  H17S 6469   4.850   2.726   4.870
   73SLPC  C218 6470   4.839   2.924   4.771
   73SLPC  H18R 6471   4.813   2.884   4.671
   73SLPC  H18S 6472   4.946   2.951   4.760
   73SLPC  H18T 6473   4.783   3.021   4.769
   73SLPC   C33 6474   4.958   2.518   6.408
   73SLPC   H3X 6475   4.914   2.418   6.427
   73SLPC   H3Y 6476   5.001   2.550   6.506
   73SLPC   C34 6477   5.063   2.518   6.297
   73SLPC   H4X 6478   5.132   2.451   6.353
   73SLPC   H4Y 6479   5.105   2.618   6.277
   73SLPC   C35 6480   5.016   2.475   6.153
   73SLPC   H5X 6481   4.978   2.569   6.106
   73SLPC   H5Y 6482   4.928   2.407   6.154
   73SLPC   C36 6483   5.123   2.431   6.052
   73SLPC   H6X 6484   5.178   2.344   6.092
   73SLPC   H6Y 6485   5.189   2.519   6.065
   73SLPC   C37 6486   5.075   2.414   5.907
   73SLPC   H7X 6487   5.028   2.510   5.878
   73SLPC   H7Y 6488   4.990   2.343   5.914
   73SLPC   C38 6489   5.184   2.386   5.806
   73SLPC   H8X 6490   5.235   2.296   5.846
   73SLPC   H8Y 6491   5.248   2.477   5.808
   73SLPC   C39 6492   5.138   2.357   5.663
   73SLPC   H9X 6493   5.054   2.427   5.647
   73SLPC   H9Y 6494   5.085   2.260   5.665
   73SLPC  C310 6495   5.245   2.375   5.549
   73SLPC  H10X 6496   5.320   2.295   5.569
   73SLPC  H10Y 6497   5.302   2.467   5.573
   73SLPC  C311 6498   5.192   2.359   5.409
   73SLPC  H11X 6499   5.128   2.447   5.387
   73SLPC  H11Y 6500   5.124   2.272   5.415
   73SLPC  C312 6501   5.299   2.349   5.301
   73SLPC  H12X 6502   5.367   2.264   5.322
   73SLPC  H12Y 6503   5.352   2.447   5.305
   73SLPC  C313 6504   5.241   2.325   5.160
   73SLPC  H13X 6505   5.332   2.344   5.099
   73SLPC  H13Y 6506   5.163   2.397   5.128
   73SLPC  C314 6507   5.185   2.183   5.141
   73SLPC  H14X 6508   5.097   2.174   5.208
   73SLPC  H14Y 6509   5.249   2.101   5.180
   73SLPC  C315 6510   5.155   2.157   4.987
   73SLPC  H15X 6511   5.219   2.223   4.925
   73SLPC  H15Y 6512   5.053   2.195   4.964
   73SLPC  C316 6513   5.158   2.015   4.936
   73SLPC  H16X 6514   5.101   1.968   5.019
   73SLPC  H16Y 6515   5.257   1.965   4.923
   73SLPC  C317 6516   5.089   1.985   4.809
   73SLPC  H17X 6517   5.136   2.037   4.722
   73SLPC  H17Y 6518   4.986   2.026   4.797
   73SLPC  C318 6519   5.094   1.834   4.774
   73SLPC  H18X 6520   5.057   1.787   4.868
   73SLPC  H18Y 6521   5.199   1.800   4.764
   73SLPC  H18Z 6522   5.041   1.816   4.677
   74SLPC     N 6523   3.086   1.885   6.895
   74SLPC   C13 6524   3.185   1.992   6.894
   74SLPC  H13A 6525   3.130   2.085   6.893
   74SLPC  H13B 6526   3.248   1.995   6.983
   74SLPC  H13C 6527   3.260   1.991   6.817
   74SLPC   C14 6528   2.986   1.897   7.009
   74SLPC  H14A 6529   2.897   1.837   7.003
   74SLPC  H14B 6530   3.031   1.861   7.100
   74SLPC  H14C 6531   2.958   2.001   7.014
   74SLPC   C15 6532   3.150   1.746   6.916
   74SLPC  H15A 6533   3.081   1.663   6.913
   74SLPC  H15B 6534   3.219   1.728   6.835
   74SLPC  H15C 6535   3.202   1.744   7.010
   74SLPC   C12 6536   3.010   1.884   6.762
   74SLPC  H12A 6537   3.079   1.889   6.678
   74SLPC  H12B 6538   2.948   1.972   6.766
   74SLPC   C11 6539   2.926   1.760   6.731
   74SLPC  H11A 6540   2.981   1.663   6.734
   74SLPC  H11B 6541   2.886   1.771   6.628
   74SLPC     P 6542   2.684   1.834   6.793
   74SLPC   O13 6543   2.613   1.769   6.677
   74SLPC   O14 6544   2.610   1.861   6.920
   74SLPC   O12 6545   2.815   1.742   6.821
   74SLPC   O11 6546   2.751   1.972   6.739
   74SLPC    C1 6547   2.664   2.073   6.681
   74SLPC    HA 6548   2.557   2.053   6.699
   74SLPC    HB 6549   2.676   2.169   6.735
   74SLPC    C2 6550   2.708   2.114   6.537
   74SLPC    HS 6551   2.629   2.179   6.493
   74SLPC   O21 6552   2.726   2.005   6.437
   74SLPC   C21 6553   2.613   1.937   6.389
   74SLPC   O22 6554   2.500   1.979   6.412
   74SLPC   C22 6555   2.644   1.818   6.308
   74SLPC   H2R 6556   2.727   1.770   6.364
   74SLPC   H2S 6557   2.558   1.747   6.314
   74SLPC    C3 6558   2.836   2.196   6.540
   74SLPC    HX 6559   2.924   2.131   6.562
   74SLPC    HY 6560   2.831   2.270   6.623
   74SLPC   O31 6561   2.854   2.272   6.419
   74SLPC   C31 6562   2.960   2.232   6.343
   74SLPC   O32 6563   3.043   2.153   6.378
   74SLPC   C32 6564   2.961   2.300   6.205
   74SLPC   H2X 6565   3.051   2.365   6.210
   74SLPC   H2Y 6566   2.875   2.371   6.199
   74SLPC   C23 6567   2.690   1.843   6.162
   74SLPC   H3R 6568   2.741   1.755   6.118
   74SLPC   H3S 6569   2.761   1.929   6.165
   74SLPC   C24 6570   2.585   1.898   6.073
   74SLPC   H4R 6571   2.519   1.975   6.118
   74SLPC   H4S 6572   2.520   1.812   6.046
   74SLPC   C25 6573   2.639   1.944   5.930
   74SLPC   H5R 6574   2.744   1.920   5.904
   74SLPC   H5S 6575   2.633   2.055   5.929
   74SLPC   C26 6576   2.550   1.907   5.812
   74SLPC   H6R 6577   2.455   1.958   5.838
   74SLPC   H6S 6578   2.531   1.797   5.814
   74SLPC   C27 6579   2.610   1.942   5.678
   74SLPC   H7R 6580   2.705   1.886   5.660
   74SLPC   H7S 6581   2.644   2.047   5.671
   74SLPC   C28 6582   2.507   1.934   5.561
   74SLPC   H8R 6583   2.543   2.004   5.482
   74SLPC   H8S 6584   2.409   1.961   5.606
   74SLPC   C29 6585   2.497   1.794   5.506
   74SLPC   H9R 6586   2.508   1.717   5.584
   74SLPC  C210 6587   2.461   1.773   5.379
   74SLPC  H10R 6588   2.463   1.666   5.350
   74SLPC  C211 6589   2.425   1.874   5.270
   74SLPC  H11R 6590   2.412   1.972   5.321
   74SLPC  H11S 6591   2.329   1.846   5.221
   74SLPC  C212 6592   2.523   1.894   5.162
   74SLPC  H12R 6593   2.623   1.856   5.189
   74SLPC  C213 6594   2.508   1.941   5.035
   74SLPC  H13R 6595   2.601   1.947   4.978
   74SLPC  C214 6596   2.379   1.995   4.970
   74SLPC  H14R 6597   2.411   2.094   4.932
   74SLPC  H14S 6598   2.300   2.005   5.048
   74SLPC  C215 6599   2.311   1.920   4.847
   74SLPC  H15R 6600   2.202   1.944   4.843
   74SLPC  H15S 6601   2.327   1.814   4.875
   74SLPC  C216 6602   2.367   1.953   4.709
   74SLPC  H16R 6603   2.472   1.919   4.719
   74SLPC  H16S 6604   2.361   2.060   4.680
   74SLPC  C217 6605   2.274   1.882   4.601
   74SLPC  H17R 6606   2.180   1.940   4.598
   74SLPC  H17S 6607   2.256   1.776   4.627
   74SLPC  C218 6608   2.333   1.894   4.460
   74SLPC  H18R 6609   2.370   1.997   4.444
   74SLPC  H18S 6610   2.251   1.862   4.391
   74SLPC  H18T 6611   2.419   1.824   4.451
   74SLPC   C33 6612   2.972   2.204   6.083
   74SLPC   H3X 6613   2.895   2.125   6.091
   74SLPC   H3Y 6614   3.071   2.155   6.075
   74SLPC   C34 6615   2.960   2.271   5.950
   74SLPC   H4X 6616   3.046   2.339   5.935
   74SLPC   H4Y 6617   2.867   2.331   5.943
   74SLPC   C35 6618   2.939   2.167   5.840
   74SLPC   H5X 6619   2.851   2.109   5.874
   74SLPC   H5Y 6620   3.026   2.099   5.833
   74SLPC   C36 6621   2.908   2.237   5.707
   74SLPC   H6X 6622   2.989   2.308   5.678
   74SLPC   H6Y 6623   2.815   2.294   5.726
   74SLPC   C37 6624   2.909   2.142   5.593
   74SLPC   H7X 6625   2.852   2.047   5.602
   74SLPC   H7Y 6626   3.012   2.101   5.593
   74SLPC   C38 6627   2.878   2.209   5.457
   74SLPC   H8X 6628   2.933   2.305   5.447
   74SLPC   H8Y 6629   2.773   2.246   5.455
   74SLPC   C39 6630   2.897   2.122   5.333
   74SLPC   H9X 6631   2.810   2.053   5.327
   74SLPC   H9Y 6632   2.985   2.055   5.347
   74SLPC  C310 6633   2.897   2.205   5.207
   74SLPC  H10X 6634   2.991   2.262   5.190
   74SLPC  H10Y 6635   2.808   2.270   5.219
   74SLPC  C311 6636   2.881   2.124   5.076
   74SLPC  H11X 6637   2.779   2.083   5.060
   74SLPC  H11Y 6638   2.948   2.036   5.086
   74SLPC  C312 6639   2.916   2.207   4.953
   74SLPC  H12X 6640   3.013   2.260   4.966
   74SLPC  H12Y 6641   2.854   2.299   4.955
   74SLPC  C313 6642   2.908   2.134   4.813
   74SLPC  H13X 6643   2.805   2.093   4.813
   74SLPC  H13Y 6644   2.984   2.053   4.805
   74SLPC  C314 6645   2.932   2.237   4.696
   74SLPC  H14X 6646   3.035   2.276   4.703
   74SLPC  H14Y 6647   2.857   2.319   4.702
   74SLPC  C315 6648   2.914   2.170   4.558
   74SLPC  H15X 6649   2.810   2.131   4.561
   74SLPC  H15Y 6650   2.982   2.082   4.555
   74SLPC  C316 6651   2.934   2.254   4.427
   74SLPC  H16X 6652   3.031   2.307   4.440
   74SLPC  H16Y 6653   2.850   2.326   4.414
   74SLPC  C317 6654   2.905   2.172   4.296
   74SLPC  H17X 6655   2.845   2.233   4.226
   74SLPC  H17Y 6656   2.849   2.078   4.318
   74SLPC  C318 6657   3.033   2.116   4.229
   74SLPC  H18X 6658   3.091   2.059   4.305
   74SLPC  H18Y 6659   3.090   2.202   4.190
   74SLPC  H18Z 6660   3.018   2.049   4.142
   75SLPC     N 6661   6.013   2.588   7.057
   75SLPC   C13 6662   6.099   2.476   7.006
   75SLPC  H13A 6663   6.059   2.440   6.912
   75SLPC  H13B 6664   6.204   2.497   6.998
   75SLPC  H13C 6665   6.095   2.395   7.077
   75SLPC   C14 6666   6.070   2.663   7.169
   75SLPC  H14A 6667   6.064   2.598   7.255
   75SLPC  H14B 6668   6.177   2.667   7.151
   75SLPC  H14C 6669   6.018   2.758   7.177
   75SLPC   C15 6670   5.889   2.535   7.107
   75SLPC  H15A 6671   5.833   2.467   7.043
   75SLPC  H15B 6672   5.901   2.481   7.200
   75SLPC  H15C 6673   5.816   2.608   7.139
   75SLPC   C12 6674   5.987   2.688   6.942
   75SLPC  H12A 6675   6.078   2.740   6.916
   75SLPC  H12B 6676   5.919   2.758   6.986
   75SLPC   C11 6677   5.927   2.637   6.805
   75SLPC  H11A 6678   5.906   2.722   6.737
   75SLPC  H11B 6679   5.824   2.594   6.814
   75SLPC     P 6680   6.139   2.596   6.666
   75SLPC   O13 6681   6.207   2.700   6.743
   75SLPC   O14 6682   6.221   2.479   6.629
   75SLPC   O12 6683   6.012   2.539   6.742
   75SLPC   O11 6684   6.086   2.666   6.526
   75SLPC    C1 6685   5.956   2.620   6.480
   75SLPC    HA 6686   5.965   2.510   6.480
   75SLPC    HB 6687   5.873   2.644   6.550
   75SLPC    C2 6688   5.917   2.683   6.343
   75SLPC    HS 6689   5.809   2.662   6.328
   75SLPC   O21 6690   6.015   2.646   6.245
   75SLPC   C21 6691   5.998   2.523   6.195
   75SLPC   O22 6692   5.903   2.449   6.218
   75SLPC   C22 6693   6.104   2.507   6.078
   75SLPC   H2R 6694   6.109   2.605   6.026
   75SLPC   H2S 6695   6.199   2.486   6.131
   75SLPC    C3 6696   5.914   2.842   6.356
   75SLPC    HX 6697   6.014   2.865   6.400
   75SLPC    HY 6698   5.836   2.880   6.426
   75SLPC   O31 6699   5.896   2.915   6.231
   75SLPC   C31 6700   5.778   2.906   6.177
   75SLPC   O32 6701   5.683   2.844   6.225
   75SLPC   C32 6702   5.789   2.977   6.042
   75SLPC   H2X 6703   5.871   3.049   6.064
   75SLPC   H2Y 6704   5.696   3.036   6.032
   75SLPC   C23 6705   6.057   2.404   5.982
   75SLPC   H3R 6706   5.961   2.424   5.931
   75SLPC   H3S 6707   6.024   2.310   6.032
   75SLPC   C24 6708   6.166   2.373   5.881
   75SLPC   H4R 6709   6.254   2.337   5.939
   75SLPC   H4S 6710   6.187   2.472   5.836
   75SLPC   C25 6711   6.125   2.278   5.771
   75SLPC   H5R 6712   6.025   2.311   5.734
   75SLPC   H5S 6713   6.118   2.178   5.820
   75SLPC   C26 6714   6.231   2.268   5.662
   75SLPC   H6R 6715   6.329   2.237   5.705
   75SLPC   H6S 6716   6.242   2.368   5.615
   75SLPC   C27 6717   6.209   2.169   5.546
   75SLPC   H7R 6718   6.110   2.171   5.495
   75SLPC   H7S 6719   6.220   2.062   5.576
   75SLPC   C28 6720   6.295   2.202   5.422
   75SLPC   H8R 6721   6.283   2.108   5.364
   75SLPC   H8S 6722   6.402   2.203   5.451
   75SLPC   C29 6723   6.240   2.318   5.344
   75SLPC   H9R 6724   6.215   2.412   5.396
   75SLPC  C210 6725   6.216   2.317   5.210
   75SLPC  H10R 6726   6.190   2.414   5.164
   75SLPC  C211 6727   6.234   2.203   5.113
   75SLPC  H11R 6728   6.303   2.124   5.150
   75SLPC  H11S 6729   6.277   2.247   5.020
   75SLPC  C212 6730   6.103   2.142   5.068
   75SLPC  H12R 6731   6.070   2.057   5.131
   75SLPC  C213 6732   6.014   2.181   4.971
   75SLPC  H13R 6733   5.930   2.113   4.951
   75SLPC  C214 6734   6.036   2.295   4.874
   75SLPC  H14R 6735   6.119   2.354   4.918
   75SLPC  H14S 6736   5.947   2.362   4.870
   75SLPC  C215 6737   6.064   2.252   4.731
   75SLPC  H15R 6738   6.072   2.344   4.669
   75SLPC  H15S 6739   5.982   2.188   4.693
   75SLPC  C216 6740   6.191   2.162   4.731
   75SLPC  H16R 6741   6.180   2.081   4.806
   75SLPC  H16S 6742   6.274   2.225   4.769
   75SLPC  C217 6743   6.210   2.108   4.591
   75SLPC  H17R 6744   6.127   2.049   4.546
   75SLPC  H17S 6745   6.299   2.041   4.592
   75SLPC  C218 6746   6.240   2.231   4.506
   75SLPC  H18R 6747   6.321   2.209   4.433
   75SLPC  H18S 6748   6.271   2.323   4.561
   75SLPC  H18T 6749   6.145   2.252   4.452
   75SLPC   C33 6750   5.806   2.887   5.922
   75SLPC   H3X 6751   5.709   2.840   5.892
   75SLPC   H3Y 6752   5.886   2.811   5.937
   75SLPC   C34 6753   5.863   2.975   5.804
   75SLPC   H4X 6754   5.909   2.911   5.726
   75SLPC   H4Y 6755   5.947   3.028   5.853
   75SLPC   C35 6756   5.765   3.079   5.745
   75SLPC   H5X 6757   5.774   3.149   5.831
   75SLPC   H5Y 6758   5.660   3.045   5.755
   75SLPC   C36 6759   5.798   3.134   5.602
   75SLPC   H6X 6760   5.908   3.131   5.586
   75SLPC   H6Y 6761   5.756   3.237   5.602
   75SLPC   C37 6762   5.738   3.056   5.481
   75SLPC   H7X 6763   5.637   3.019   5.508
   75SLPC   H7Y 6764   5.801   2.965   5.470
   75SLPC   C38 6765   5.746   3.133   5.349
   75SLPC   H8X 6766   5.852   3.162   5.337
   75SLPC   H8Y 6767   5.692   3.229   5.366
   75SLPC   C39 6768   5.690   3.049   5.233
   75SLPC   H9X 6769   5.583   3.018   5.242
   75SLPC   H9Y 6770   5.746   2.953   5.232
   75SLPC  C310 6771   5.704   3.128   5.103
   75SLPC  H10X 6772   5.813   3.140   5.082
   75SLPC  H10Y 6773   5.640   3.217   5.124
   75SLPC  C311 6774   5.642   3.047   4.989
   75SLPC  H11X 6775   5.533   3.059   5.003
   75SLPC  H11Y 6776   5.680   2.944   5.003
   75SLPC  C312 6777   5.690   3.099   4.859
   75SLPC  H12X 6778   5.707   3.013   4.790
   75SLPC  H12Y 6779   5.787   3.152   4.864
   75SLPC  C313 6780   5.587   3.185   4.784
   75SLPC  H13X 6781   5.589   3.287   4.830
   75SLPC  H13Y 6782   5.487   3.140   4.800
   75SLPC  C314 6783   5.611   3.181   4.631
   75SLPC  H14X 6784   5.542   3.253   4.582
   75SLPC  H14Y 6785   5.585   3.080   4.591
   75SLPC  C315 6786   5.751   3.224   4.592
   75SLPC  H15X 6787   5.835   3.188   4.654
   75SLPC  H15Y 6788   5.774   3.332   4.595
   75SLPC  C316 6789   5.768   3.174   4.456
   75SLPC  H16X 6790   5.681   3.194   4.389
   75SLPC  H16Y 6791   5.785   3.064   4.450
   75SLPC  C317 6792   5.898   3.237   4.395
   75SLPC  H17X 6793   5.991   3.219   4.453
   75SLPC  H17Y 6794   5.878   3.346   4.394
   75SLPC  C318 6795   5.928   3.178   4.253
   75SLPC  H18X 6796   5.920   3.068   4.243
   75SLPC  H18Y 6797   6.031   3.213   4.228
   75SLPC  H18Z 6798   5.851   3.216   4.182
   76SLPC     N 6799   0.068   2.658   6.955
   76SLPC   C13 6800  -0.009   2.761   7.038
   76SLPC  H13A 6801  -0.041   2.714   7.130
   76SLPC  H13B 6802   0.062   2.837   7.065
   76SLPC  H13C 6803  -0.092   2.804   6.985
   76SLPC   C14 6804  -0.032   2.569   6.891
   76SLPC  H14A 6805  -0.092   2.623   6.819
   76SLPC  H14B 6806   0.006   2.483   6.838
   76SLPC  H14C 6807  -0.106   2.531   6.960
   76SLPC   C15 6808   0.158   2.584   7.044
   76SLPC  H15A 6809   0.210   2.513   6.981
   76SLPC  H15B 6810   0.233   2.650   7.086
   76SLPC  H15C 6811   0.114   2.520   7.118
   76SLPC   C12 6812   0.140   2.735   6.836
   76SLPC  H12A 6813   0.219   2.785   6.889
   76SLPC  H12B 6814   0.075   2.809   6.791
   76SLPC   C11 6815   0.210   2.647   6.723
   76SLPC  H11A 6816   0.239   2.727   6.652
   76SLPC  H11B 6817   0.135   2.583   6.672
   76SLPC     P 6818   0.458   2.631   6.816
   76SLPC   O13 6819   0.424   2.756   6.883
   76SLPC   O14 6820   0.543   2.536   6.883
   76SLPC   O12 6821   0.321   2.567   6.775
   76SLPC   O11 6822   0.522   2.675   6.679
   76SLPC    C1 6823   0.595   2.591   6.592
   76SLPC    HA 6824   0.669   2.657   6.543
   76SLPC    HB 6825   0.650   2.516   6.652
   76SLPC    C2 6826   0.511   2.530   6.482
   76SLPC    HS 6827   0.580   2.489   6.404
   76SLPC   O21 6828   0.419   2.615   6.411
   76SLPC   C21 6829   0.469   2.700   6.322
   76SLPC   O22 6830   0.579   2.704   6.277
   76SLPC   C22 6831   0.352   2.782   6.263
   76SLPC   H2R 6832   0.291   2.713   6.200
   76SLPC   H2S 6833   0.287   2.816   6.347
   76SLPC    C3 6834   0.432   2.400   6.525
   76SLPC    HX 6835   0.345   2.427   6.589
   76SLPC    HY 6836   0.506   2.341   6.582
   76SLPC   O31 6837   0.394   2.332   6.409
   76SLPC   C31 6838   0.271   2.343   6.367
   76SLPC   O32 6839   0.175   2.386   6.427
   76SLPC   C32 6840   0.242   2.280   6.232
   76SLPC   H2X 6841   0.174   2.351   6.179
   76SLPC   H2Y 6842   0.187   2.184   6.240
   76SLPC   C23 6843   0.383   2.909   6.175
   76SLPC   H3R 6844   0.472   2.966   6.209
   76SLPC   H3S 6845   0.305   2.986   6.158
   76SLPC   C24 6846   0.420   2.862   6.034
   76SLPC   H4R 6847   0.336   2.799   5.997
   76SLPC   H4S 6848   0.512   2.800   6.037
   76SLPC   C25 6849   0.433   2.986   5.946
   76SLPC   H5R 6850   0.523   3.045   5.972
   76SLPC   H5S 6851   0.349   3.059   5.941
   76SLPC   C26 6852   0.439   2.938   5.803
   76SLPC   H6R 6853   0.346   2.886   5.770
   76SLPC   H6S 6854   0.526   2.870   5.800
   76SLPC   C27 6855   0.459   3.048   5.701
   76SLPC   H7R 6856   0.562   3.084   5.721
   76SLPC   H7S 6857   0.403   3.140   5.731
   76SLPC   C28 6858   0.463   3.001   5.556
   76SLPC   H8R 6859   0.514   2.902   5.550
   76SLPC   H8S 6860   0.524   3.066   5.489
   76SLPC   C29 6861   0.318   2.993   5.508
   76SLPC   H9R 6862   0.251   2.938   5.576
   76SLPC  C210 6863   0.264   3.042   5.393
   76SLPC  H10R 6864   0.159   3.021   5.368
   76SLPC  C211 6865   0.331   3.126   5.285
   76SLPC  H11R 6866   0.425   3.173   5.323
   76SLPC  H11S 6867   0.264   3.210   5.254
   76SLPC  C212 6868   0.372   3.049   5.159
   76SLPC  H12R 6869   0.443   2.971   5.186
   76SLPC  C213 6870   0.331   3.063   5.031
   76SLPC  H13R 6871   0.381   3.005   4.953
   76SLPC  C214 6872   0.220   3.144   4.972
   76SLPC  H14R 6873   0.168   3.216   5.037
   76SLPC  H14S 6874   0.138   3.077   4.937
   76SLPC  C215 6875   0.269   3.225   4.845
   76SLPC  H15R 6876   0.307   3.152   4.770
   76SLPC  H15S 6877   0.344   3.298   4.883
   76SLPC  C216 6878   0.152   3.292   4.773
   76SLPC  H16R 6879   0.096   3.370   4.829
   76SLPC  H16S 6880   0.073   3.226   4.734
   76SLPC  C217 6881   0.205   3.376   4.649
   76SLPC  H17R 6882   0.119   3.379   4.579
   76SLPC  H17S 6883   0.290   3.318   4.607
   76SLPC  C218 6884   0.252   3.514   4.690
   76SLPC  H18R 6885   0.302   3.568   4.608
   76SLPC  H18S 6886   0.316   3.508   4.781
   76SLPC  H18T 6887   0.164   3.580   4.703
   76SLPC   C33 6888   0.372   2.256   6.144
   76SLPC   H3X 6889   0.354   2.191   6.056
   76SLPC   H3Y 6890   0.441   2.204   6.214
   76SLPC   C34 6891   0.441   2.384   6.088
   76SLPC   H4X 6892   0.544   2.365   6.051
   76SLPC   H4Y 6893   0.455   2.462   6.167
   76SLPC   C35 6894   0.356   2.459   5.984
   76SLPC   H5X 6895   0.403   2.555   5.956
   76SLPC   H5Y 6896   0.258   2.492   6.025
   76SLPC   C36 6897   0.351   2.380   5.844
   76SLPC   H6X 6898   0.295   2.288   5.870
   76SLPC   H6Y 6899   0.457   2.356   5.819
   76SLPC   C37 6900   0.282   2.444   5.721
   76SLPC   H7X 6901   0.172   2.453   5.738
   76SLPC   H7Y 6902   0.296   2.365   5.645
   76SLPC   C38 6903   0.338   2.574   5.669
   76SLPC   H8X 6904   0.422   2.603   5.737
   76SLPC   H8Y 6905   0.261   2.653   5.678
   76SLPC   C39 6906   0.388   2.558   5.522
   76SLPC   H9X 6907   0.415   2.451   5.506
   76SLPC   H9Y 6908   0.482   2.617   5.514
   76SLPC  C310 6909   0.289   2.611   5.410
   76SLPC  H10X 6910   0.267   2.716   5.440
   76SLPC  H10Y 6911   0.199   2.551   5.431
   76SLPC  C311 6912   0.350   2.599   5.266
   76SLPC  H11X 6913   0.375   2.492   5.250
   76SLPC  H11Y 6914   0.439   2.665   5.254
   76SLPC  C312 6915   0.262   2.654   5.158
   76SLPC  H12X 6916   0.234   2.759   5.183
   76SLPC  H12Y 6917   0.168   2.594   5.155
   76SLPC  C313 6918   0.328   2.648   5.019
   76SLPC  H13X 6919   0.352   2.540   5.005
   76SLPC  H13Y 6920   0.422   2.706   5.016
   76SLPC  C314 6921   0.226   2.693   4.915
   76SLPC  H14X 6922   0.195   2.798   4.935
   76SLPC  H14Y 6923   0.138   2.627   4.927
   76SLPC  C315 6924   0.269   2.682   4.763
   76SLPC  H15X 6925   0.298   2.576   4.747
   76SLPC  H15Y 6926   0.360   2.739   4.735
   76SLPC  C316 6927   0.158   2.703   4.651
   76SLPC  H16X 6928   0.085   2.620   4.657
   76SLPC  H16Y 6929   0.196   2.687   4.548
   76SLPC  C317 6930   0.089   2.842   4.661
   76SLPC  H17X 6931   0.168   2.920   4.651
   76SLPC  H17Y 6932   0.042   2.850   4.761
   76SLPC  C318 6933  -0.013   2.862   4.552
   76SLPC  H18X 6934  -0.113   2.821   4.576
   76SLPC  H18Y 6935   0.018   2.816   4.456
   76SLPC  H18Z 6936  -0.032   2.971   4.540
   77SLPC     N 6937   0.725   1.363   6.783
   77SLPC   C13 6938   0.752   1.367   6.638
   77SLPC  H13A 6939   0.761   1.470   6.609
   77SLPC  H13B 6940   0.842   1.319   6.602
   77SLPC  H13C 6941   0.675   1.311   6.588
   77SLPC   C14 6942   0.805   1.468   6.847
   77SLPC  H14A 6943   0.758   1.561   6.819
   77SLPC  H14B 6944   0.795   1.459   6.954
   77SLPC  H14C 6945   0.911   1.460   6.830
   77SLPC   C15 6946   0.775   1.230   6.837
   77SLPC  H15A 6947   0.762   1.221   6.943
   77SLPC  H15B 6948   0.726   1.146   6.789
   77SLPC  H15C 6949   0.882   1.226   6.817
   77SLPC   C12 6950   0.576   1.393   6.814
   77SLPC  H12A 6951   0.574   1.423   6.918
   77SLPC  H12B 6952   0.515   1.304   6.807
   77SLPC   C11 6953   0.507   1.507   6.743
   77SLPC  H11A 6954   0.403   1.502   6.783
   77SLPC  H11B 6955   0.504   1.483   6.635
   77SLPC     P 6956   0.548   1.702   6.914
   77SLPC   O13 6957   0.413   1.679   6.965
   77SLPC   O14 6958   0.662   1.668   6.995
   77SLPC   O12 6959   0.569   1.638   6.770
   77SLPC   O11 6960   0.557   1.854   6.885
   77SLPC    C1 6961   0.448   1.938   6.847
   77SLPC    HA 6962   0.349   1.890   6.864
   77SLPC    HB 6963   0.443   2.036   6.899
   77SLPC    C2 6964   0.460   1.982   6.696
   77SLPC    HS 6965   0.384   2.059   6.672
   77SLPC   O21 6966   0.451   1.880   6.594
   77SLPC   C21 6967   0.341   1.821   6.563
   77SLPC   O22 6968   0.233   1.823   6.630
   77SLPC   C22 6969   0.370   1.760   6.427
   77SLPC   H2R 6970   0.477   1.743   6.402
   77SLPC   H2S 6971   0.332   1.655   6.427
   77SLPC    C3 6972   0.599   2.053   6.682
   77SLPC    HX 6973   0.683   1.994   6.724
   77SLPC    HY 6974   0.588   2.143   6.746
   77SLPC   O31 6975   0.628   2.104   6.547
   77SLPC   C31 6976   0.719   2.035   6.489
   77SLPC   O32 6977   0.790   1.951   6.536
   77SLPC   C32 6978   0.726   2.070   6.334
   77SLPC   H2X 6979   0.819   2.131   6.330
   77SLPC   H2Y 6980   0.634   2.128   6.310
   77SLPC   C23 6981   0.300   1.831   6.313
   77SLPC   H3R 6982   0.319   1.941   6.310
   77SLPC   H3S 6983   0.193   1.805   6.329
   77SLPC   C24 6984   0.334   1.771   6.172
   77SLPC   H4R 6985   0.270   1.679   6.171
   77SLPC   H4S 6986   0.439   1.737   6.159
   77SLPC   C25 6987   0.280   1.868   6.057
   77SLPC   H5R 6988   0.286   1.819   5.957
   77SLPC   H5S 6989   0.350   1.954   6.063
   77SLPC   C26 6990   0.130   1.887   6.072
   77SLPC   H6R 6991   0.089   1.920   6.169
   77SLPC   H6S 6992   0.075   1.793   6.050
   77SLPC   C27 6993   0.084   2.000   5.970
   77SLPC   H7R 6994   0.114   2.101   6.005
   77SLPC   H7S 6995  -0.027   1.991   5.975
   77SLPC   C28 6996   0.116   1.991   5.816
   77SLPC   H8R 6997   0.224   2.002   5.796
   77SLPC   H8S 6998   0.068   2.079   5.767
   77SLPC   C29 6999   0.062   1.869   5.747
   77SLPC   H9R 7000   0.043   1.785   5.817
   77SLPC  C210 7001   0.042   1.843   5.619
   77SLPC  H10R 7002   0.001   1.744   5.595
   77SLPC  C211 7003   0.079   1.933   5.500
   77SLPC  H11R 7004   0.061   1.863   5.416
   77SLPC  H11S 7005   0.188   1.956   5.500
   77SLPC  C212 7006   0.008   2.062   5.481
   77SLPC  H12R 7007   0.030   2.145   5.550
   77SLPC  C213 7008  -0.089   2.094   5.390
   77SLPC  H13R 7009  -0.121   2.198   5.404
   77SLPC  C214 7010  -0.173   1.998   5.306
   77SLPC  H14R 7011  -0.277   1.999   5.345
   77SLPC  H14S 7012  -0.132   1.894   5.314
   77SLPC  C215 7013  -0.193   2.034   5.160
   77SLPC  H15R 7014  -0.089   2.047   5.124
   77SLPC  H15S 7015  -0.250   2.129   5.160
   77SLPC  C216 7016  -0.250   1.923   5.070
   77SLPC  H16R 7017  -0.351   1.893   5.104
   77SLPC  H16S 7018  -0.181   1.836   5.071
   77SLPC  C217 7019  -0.293   1.974   4.927
   77SLPC  H17R 7020  -0.209   2.022   4.872
   77SLPC  H17S 7021  -0.366   2.057   4.934
   77SLPC  C218 7022  -0.360   1.864   4.847
   77SLPC  H18R 7023  -0.432   1.910   4.776
   77SLPC  H18S 7024  -0.412   1.788   4.908
   77SLPC  H18T 7025  -0.281   1.797   4.805
   77SLPC   C33 7026   0.740   1.948   6.237
   77SLPC   H3X 7027   0.665   1.868   6.252
   77SLPC   H3Y 7028   0.837   1.898   6.257
   77SLPC   C34 7029   0.731   1.997   6.095
   77SLPC   H4X 7030   0.823   2.045   6.056
   77SLPC   H4Y 7031   0.673   2.092   6.094
   77SLPC   C35 7032   0.675   1.895   5.999
   77SLPC   H5X 7033   0.564   1.900   6.010
   77SLPC   H5Y 7034   0.715   1.794   6.021
   77SLPC   C36 7035   0.705   1.914   5.848
   77SLPC   H6X 7036   0.687   1.821   5.789
   77SLPC   H6Y 7037   0.810   1.950   5.835
   77SLPC   C37 7038   0.600   2.008   5.786
   77SLPC   H7X 7039   0.600   2.118   5.800
   77SLPC   H7Y 7040   0.504   1.970   5.826
   77SLPC   C38 7041   0.595   1.998   5.634
   77SLPC   H8X 7042   0.548   1.900   5.612
   77SLPC   H8Y 7043   0.702   2.004   5.605
   77SLPC   C39 7044   0.500   2.104   5.575
   77SLPC   H9X 7045   0.514   2.213   5.588
   77SLPC   H9Y 7046   0.401   2.082   5.621
   77SLPC  C310 7047   0.467   2.076   5.432
   77SLPC  H10X 7048   0.424   1.973   5.434
   77SLPC  H10Y 7049   0.556   2.078   5.365
   77SLPC  C311 7050   0.350   2.156   5.372
   77SLPC  H11X 7051   0.381   2.262   5.381
   77SLPC  H11Y 7052   0.253   2.143   5.423
   77SLPC  C312 7053   0.322   2.122   5.224
   77SLPC  H12X 7054   0.295   2.015   5.217
   77SLPC  H12Y 7055   0.415   2.128   5.164
   77SLPC  C313 7056   0.222   2.213   5.154
   77SLPC  H13X 7057   0.248   2.316   5.189
   77SLPC  H13Y 7058   0.125   2.188   5.203
   77SLPC  C314 7059   0.216   2.199   5.002
   77SLPC  H14X 7060   0.297   2.268   4.970
   77SLPC  H14Y 7061   0.116   2.235   4.970
   77SLPC  C315 7062   0.234   2.054   4.949
   77SLPC  H15X 7063   0.166   1.991   5.010
   77SLPC  H15Y 7064   0.335   2.012   4.971
   77SLPC  C316 7065   0.197   2.042   4.799
   77SLPC  H16X 7066   0.108   2.104   4.777
   77SLPC  H16Y 7067   0.165   1.940   4.768
   77SLPC  C317 7068   0.306   2.106   4.709
   77SLPC  H17X 7069   0.403   2.053   4.723
   77SLPC  H17Y 7070   0.323   2.211   4.743
   77SLPC  C318 7071   0.267   2.119   4.560
   77SLPC  H18X 7072   0.266   2.025   4.500
   77SLPC  H18Y 7073   0.341   2.190   4.518
   77SLPC  H18Z 7074   0.165   2.164   4.558
   78SLPC     N 7075   2.403   5.964   6.727
   78SLPC   C13 7076   2.479   5.839   6.738
   78SLPC  H13A 7077   2.449   5.774   6.657
   78SLPC  H13B 7078   2.584   5.860   6.721
   78SLPC  H13C 7079   2.475   5.797   6.837
   78SLPC   C14 7080   2.448   6.061   6.839
   78SLPC  H14A 7081   2.439   6.010   6.934
   78SLPC  H14B 7082   2.542   6.109   6.816
   78SLPC  H14C 7083   2.382   6.146   6.852
   78SLPC   C15 7084   2.260   5.933   6.753
   78SLPC  H15A 7085   2.224   5.874   6.670
   78SLPC  H15B 7086   2.251   5.868   6.839
   78SLPC  H15C 7087   2.200   6.022   6.755
   78SLPC   C12 7088   2.411   6.033   6.595
   78SLPC  H12A 7089   2.336   6.110   6.586
   78SLPC  H12B 7090   2.393   5.961   6.517
   78SLPC   C11 7091   2.533   6.110   6.563
   78SLPC  H11A 7092   2.618   6.042   6.588
   78SLPC  H11B 7093   2.533   6.199   6.629
   78SLPC     P 7094   2.666   6.186   6.355
   78SLPC   O13 7095   2.719   6.299   6.439
   78SLPC   O14 7096   2.761   6.071   6.330
   78SLPC   O12 7097   2.534   6.137   6.428
   78SLPC   O11 7098   2.615   6.244   6.219
   78SLPC    C1 7099   2.688   6.344   6.150
   78SLPC    HA 7100   2.622   6.433   6.137
   78SLPC    HB 7101   2.782   6.382   6.196
   78SLPC    C2 7102   2.751   6.297   6.012
   78SLPC    HS 7103   2.817   6.380   5.979
   78SLPC   O21 7104   2.638   6.280   5.924
   78SLPC   C21 7105   2.579   6.397   5.899
   78SLPC   O22 7106   2.625   6.504   5.931
   78SLPC   C22 7107   2.441   6.362   5.845
   78SLPC   H2R 7108   2.431   6.252   5.836
   78SLPC   H2S 7109   2.364   6.394   5.917
   78SLPC    C3 7110   2.840   6.170   6.020
   78SLPC    HX 7111   2.775   6.089   6.061
   78SLPC    HY 7112   2.919   6.194   6.094
   78SLPC   O31 7113   2.906   6.146   5.894
   78SLPC   C31 7114   2.884   6.026   5.839
   78SLPC   O32 7115   2.809   5.938   5.879
   78SLPC   C32 7116   2.959   6.020   5.706
   78SLPC   H2X 7117   2.945   5.912   5.680
   78SLPC   H2Y 7118   3.067   6.038   5.724
   78SLPC   C23 7119   2.412   6.423   5.701
   78SLPC   H3R 7120   2.430   6.533   5.699
   78SLPC   H3S 7121   2.309   6.399   5.670
   78SLPC   C24 7122   2.489   6.350   5.592
   78SLPC   H4R 7123   2.467   6.244   5.566
   78SLPC   H4S 7124   2.594   6.361   5.627
   78SLPC   C25 7125   2.515   6.413   5.447
   78SLPC   H5R 7126   2.560   6.514   5.458
   78SLPC   H5S 7127   2.412   6.435   5.412
   78SLPC   C26 7128   2.591   6.329   5.348
   78SLPC   H6R 7129   2.515   6.257   5.312
   78SLPC   H6S 7130   2.671   6.279   5.407
   78SLPC   C27 7131   2.660   6.388   5.223
   78SLPC   H7R 7132   2.738   6.319   5.184
   78SLPC   H7S 7133   2.714   6.479   5.257
   78SLPC   C28 7134   2.555   6.435   5.114
   78SLPC   H8R 7135   2.474   6.497   5.160
   78SLPC   H8S 7136   2.513   6.343   5.068
   78SLPC   C29 7137   2.625   6.525   5.025
   78SLPC   H9R 7138   2.673   6.615   5.068
   78SLPC  C210 7139   2.668   6.492   4.904
   78SLPC  H10R 7140   2.707   6.574   4.842
   78SLPC  C211 7141   2.632   6.365   4.823
   78SLPC  H11R 7142   2.543   6.384   4.760
   78SLPC  H11S 7143   2.592   6.290   4.894
   78SLPC  C212 7144   2.736   6.310   4.725
   78SLPC  H12R 7145   2.767   6.210   4.759
   78SLPC  C213 7146   2.787   6.361   4.611
   78SLPC  H13R 7147   2.869   6.309   4.560
   78SLPC  C214 7148   2.767   6.494   4.549
   78SLPC  H14R 7149   2.867   6.543   4.543
   78SLPC  H14S 7150   2.700   6.555   4.614
   78SLPC  C215 7151   2.706   6.485   4.406
   78SLPC  H15R 7152   2.754   6.398   4.356
   78SLPC  H15S 7153   2.733   6.577   4.350
   78SLPC  C216 7154   2.554   6.466   4.414
   78SLPC  H16R 7155   2.510   6.520   4.501
   78SLPC  H16S 7156   2.537   6.358   4.430
   78SLPC  C217 7157   2.476   6.523   4.293
   78SLPC  H17R 7158   2.538   6.604   4.251
   78SLPC  H17S 7159   2.382   6.575   4.322
   78SLPC  C218 7160   2.442   6.407   4.201
   78SLPC  H18R 7161   2.525   6.335   4.182
   78SLPC  H18S 7162   2.407   6.444   4.103
   78SLPC  H18T 7163   2.361   6.351   4.253
   78SLPC   C33 7164   2.908   6.117   5.599
   78SLPC   H3X 7165   2.955   6.208   5.642
   78SLPC   H3Y 7166   2.798   6.131   5.604
   78SLPC   C34 7167   2.948   6.086   5.458
   78SLPC   H4X 7168   2.905   6.164   5.392
   78SLPC   H4Y 7169   2.916   5.986   5.421
   78SLPC   C35 7170   3.099   6.080   5.448
   78SLPC   H5X 7171   3.143   5.989   5.495
   78SLPC   H5Y 7172   3.149   6.159   5.508
   78SLPC   C36 7173   3.119   6.093   5.297
   78SLPC   H6X 7174   3.096   6.198   5.270
   78SLPC   H6Y 7175   3.038   6.033   5.251
   78SLPC   C37 7176   3.258   6.043   5.254
   78SLPC   H7X 7177   3.257   5.933   5.243
   78SLPC   H7Y 7178   3.338   6.052   5.331
   78SLPC   C38 7179   3.302   6.117   5.122
   78SLPC   H8X 7180   3.412   6.104   5.114
   78SLPC   H8Y 7181   3.278   6.223   5.145
   78SLPC   C39 7182   3.225   6.074   5.003
   78SLPC   H9X 7183   3.118   6.096   5.025
   78SLPC   H9Y 7184   3.253   5.967   4.992
   78SLPC  C310 7185   3.264   6.153   4.875
   78SLPC  H10X 7186   3.372   6.133   4.862
   78SLPC  H10Y 7187   3.245   6.261   4.896
   78SLPC  C311 7188   3.200   6.098   4.745
   78SLPC  H11X 7189   3.090   6.097   4.759
   78SLPC  H11Y 7190   3.223   5.991   4.725
   78SLPC  C312 7191   3.252   6.177   4.621
   78SLPC  H12X 7192   3.243   6.282   4.657
   78SLPC  H12Y 7193   3.194   6.154   4.530
   78SLPC  C313 7194   3.393   6.139   4.578
   78SLPC  H13X 7195   3.410   6.029   4.566
   78SLPC  H13Y 7196   3.461   6.169   4.660
   78SLPC  C314 7197   3.431   6.226   4.459
   78SLPC  H14X 7198   3.410   6.335   4.471
   78SLPC  H14Y 7199   3.377   6.186   4.370
   78SLPC  C315 7200   3.579   6.217   4.404
   78SLPC  H15X 7201   3.590   6.280   4.314
   78SLPC  H15Y 7202   3.595   6.112   4.372
   78SLPC  C316 7203   3.687   6.253   4.505
   78SLPC  H16X 7204   3.679   6.164   4.571
   78SLPC  H16Y 7205   3.647   6.345   4.553
   78SLPC  C317 7206   3.834   6.272   4.474
   78SLPC  H17X 7207   3.841   6.364   4.412
   78SLPC  H17Y 7208   3.859   6.183   4.413
   78SLPC  C318 7209   3.924   6.273   4.602
   78SLPC  H18X 7210   3.933   6.171   4.644
   78SLPC  H18Y 7211   3.882   6.337   4.682
   78SLPC  H18Z 7212   4.029   6.303   4.586
   79SLPC     N 7213   1.740   1.859   6.750
   79SLPC   C13 7214   1.720   1.996   6.816
   79SLPC  H13A 7215   1.704   2.075   6.744
   79SLPC  H13B 7216   1.633   1.990   6.880
   79SLPC  H13C 7217   1.808   2.019   6.874
   79SLPC   C14 7218   1.838   1.775   6.830
   79SLPC  H14A 7219   1.934   1.824   6.831
   79SLPC  H14B 7220   1.799   1.749   6.927
   79SLPC  H14C 7221   1.861   1.680   6.785
   79SLPC   C15 7222   1.799   1.877   6.615
   79SLPC  H15A 7223   1.907   1.882   6.616
   79SLPC  H15B 7224   1.779   1.789   6.555
   79SLPC  H15C 7225   1.764   1.966   6.565
   79SLPC   C12 7226   1.601   1.788   6.732
   79SLPC  H12A 7227   1.556   1.783   6.830
   79SLPC  H12B 7228   1.619   1.684   6.708
   79SLPC   C11 7229   1.502   1.852   6.632
   79SLPC  H11A 7230   1.418   1.781   6.614
   79SLPC  H11B 7231   1.560   1.871   6.539
   79SLPC     P 7232   1.368   2.084   6.604
   79SLPC   O13 7233   1.234   2.093   6.661
   79SLPC   O14 7234   1.434   2.220   6.596
   79SLPC   O12 7235   1.448   1.975   6.683
   79SLPC   O11 7236   1.358   2.027   6.453
   79SLPC    C1 7237   1.456   2.060   6.355
   79SLPC    HA 7238   1.552   2.090   6.402
   79SLPC    HB 7239   1.481   1.963   6.307
   79SLPC    C2 7240   1.406   2.155   6.253
   79SLPC    HS 7241   1.348   2.227   6.314
   79SLPC   O21 7242   1.342   2.089   6.144
   79SLPC   C21 7243   1.211   2.064   6.171
   79SLPC   O22 7244   1.141   2.126   6.249
   79SLPC   C22 7245   1.162   1.942   6.097
   79SLPC   H2R 7246   1.238   1.870   6.059
   79SLPC   H2S 7247   1.087   1.885   6.156
   79SLPC    C3 7248   1.524   2.242   6.210
   79SLPC    HX 7249   1.588   2.176   6.148
   79SLPC    HY 7250   1.591   2.267   6.296
   79SLPC   O31 7251   1.489   2.350   6.117
   79SLPC   C31 7252   1.450   2.464   6.182
   79SLPC   O32 7253   1.464   2.489   6.298
   79SLPC   C32 7254   1.381   2.557   6.081
   79SLPC   H2X 7255   1.437   2.559   5.985
   79SLPC   H2Y 7256   1.382   2.658   6.127
   79SLPC   C23 7257   1.083   1.997   5.969
   79SLPC   H3R 7258   1.013   2.080   5.993
   79SLPC   H3S 7259   1.019   1.921   5.918
   79SLPC   C24 7260   1.164   2.050   5.851
   79SLPC   H4R 7261   1.246   1.977   5.834
   79SLPC   H4S 7262   1.218   2.141   5.885
   79SLPC   C25 7263   1.093   2.083   5.719
   79SLPC   H5R 7264   1.051   2.185   5.733
   79SLPC   H5S 7265   1.012   2.008   5.706
   79SLPC   C26 7266   1.176   2.092   5.590
   79SLPC   H6R 7267   1.231   1.996   5.579
   79SLPC   H6S 7268   1.259   2.165   5.605
   79SLPC   C27 7269   1.083   2.115   5.468
   79SLPC   H7R 7270   1.032   2.213   5.482
   79SLPC   H7S 7271   1.007   2.034   5.477
   79SLPC   C28 7272   1.162   2.124   5.340
   79SLPC   H8R 7273   1.195   2.019   5.325
   79SLPC   H8S 7274   1.246   2.195   5.355
   79SLPC   C29 7275   1.058   2.171   5.238
   79SLPC   H9R 7276   0.959   2.195   5.278
   79SLPC  C210 7277   1.073   2.205   5.112
   79SLPC  H10R 7278   0.981   2.227   5.058
   79SLPC  C211 7279   1.200   2.181   5.030
   79SLPC  H11R 7280   1.159   2.116   4.949
   79SLPC  H11S 7281   1.276   2.127   5.089
   79SLPC  C212 7282   1.249   2.316   4.985
   79SLPC  H12R 7283   1.297   2.387   5.054
   79SLPC  C213 7284   1.245   2.365   4.860
   79SLPC  H13R 7285   1.282   2.467   4.845
   79SLPC  C214 7286   1.166   2.300   4.751
   79SLPC  H14R 7287   1.086   2.363   4.707
   79SLPC  H14S 7288   1.116   2.205   4.781
   79SLPC  C215 7289   1.251   2.278   4.624
   79SLPC  H15R 7290   1.305   2.183   4.640
   79SLPC  H15S 7291   1.328   2.356   4.604
   79SLPC  C216 7292   1.170   2.271   4.489
   79SLPC  H16R 7293   1.092   2.196   4.512
   79SLPC  H16S 7294   1.240   2.229   4.413
   79SLPC  C217 7295   1.090   2.395   4.444
   79SLPC  H17R 7296   1.012   2.414   4.520
   79SLPC  H17S 7297   1.029   2.384   4.352
   79SLPC  C218 7298   1.169   2.522   4.440
   79SLPC  H18R 7299   1.118   2.618   4.419
   79SLPC  H18S 7300   1.248   2.513   4.362
   79SLPC  H18T 7301   1.216   2.551   4.537
   79SLPC   C33 7302   1.235   2.507   6.051
   79SLPC   H3X 7303   1.173   2.517   6.142
   79SLPC   H3Y 7304   1.246   2.402   6.018
   79SLPC   C34 7305   1.179   2.583   5.927
   79SLPC   H4X 7306   1.214   2.688   5.928
   79SLPC   H4Y 7307   1.068   2.575   5.938
   79SLPC   C35 7308   1.214   2.511   5.789
   79SLPC   H5X 7309   1.155   2.417   5.792
   79SLPC   H5Y 7310   1.324   2.499   5.795
   79SLPC   C36 7311   1.166   2.582   5.665
   79SLPC   H6X 7312   1.208   2.684   5.653
   79SLPC   H6Y 7313   1.058   2.610   5.673
   79SLPC   C37 7314   1.184   2.504   5.530
   79SLPC   H7X 7315   1.100   2.432   5.522
   79SLPC   H7Y 7316   1.280   2.449   5.525
   79SLPC   C38 7317   1.172   2.603   5.407
   79SLPC   H8X 7318   1.270   2.655   5.395
   79SLPC   H8Y 7319   1.100   2.679   5.444
   79SLPC   C39 7320   1.125   2.541   5.279
   79SLPC   H9X 7321   1.039   2.472   5.290
   79SLPC   H9Y 7322   1.202   2.473   5.238
   79SLPC  C310 7323   1.095   2.651   5.175
   79SLPC  H10X 7324   1.190   2.698   5.143
   79SLPC  H10Y 7325   1.039   2.730   5.231
   79SLPC  C311 7326   1.013   2.605   5.055
   79SLPC  H11X 7327   0.903   2.602   5.074
   79SLPC  H11Y 7328   1.038   2.501   5.026
   79SLPC  C312 7329   1.038   2.683   4.919
   79SLPC  H12X 7330   1.145   2.655   4.905
   79SLPC  H12Y 7331   1.026   2.790   4.947
   79SLPC  C313 7332   0.945   2.657   4.798
   79SLPC  H13X 7333   0.842   2.676   4.834
   79SLPC  H13Y 7334   0.965   2.558   4.752
   79SLPC  C314 7335   0.977   2.751   4.684
   79SLPC  H14X 7336   1.085   2.741   4.657
   79SLPC  H14Y 7337   0.972   2.852   4.729
   79SLPC  C315 7338   0.874   2.749   4.561
   79SLPC  H15X 7339   0.772   2.740   4.605
   79SLPC  H15Y 7340   0.882   2.648   4.515
   79SLPC  C316 7341   0.887   2.856   4.453
   79SLPC  H16X 7342   0.992   2.851   4.419
   79SLPC  H16Y 7343   0.868   2.960   4.487
   79SLPC  C317 7344   0.793   2.825   4.334
   79SLPC  H17X 7345   0.688   2.815   4.369
   79SLPC  H17Y 7346   0.829   2.730   4.289
   79SLPC  C318 7347   0.798   2.929   4.219
   79SLPC  H18X 7348   0.766   3.028   4.258
   79SLPC  H18Y 7349   0.725   2.909   4.138
   79SLPC  H18Z 7350   0.898   2.915   4.172
   80SLPC     N 7351   0.010   4.876   6.881
   80SLPC   C13 7352  -0.001   4.842   6.739
   80SLPC  H13A 7353  -0.092   4.871   6.689
   80SLPC  H13B 7354   0.084   4.875   6.680
   80SLPC  H13C 7355   0.006   4.735   6.731
   80SLPC   C14 7356   0.127   4.799   6.934
   80SLPC  H14A 7357   0.228   4.829   6.909
   80SLPC  H14B 7358   0.122   4.798   7.042
   80SLPC  H14C 7359   0.125   4.696   6.902
   80SLPC   C15 7360  -0.115   4.820   6.948
   80SLPC  H15A 7361  -0.195   4.845   6.881
   80SLPC  H15B 7362  -0.109   4.713   6.945
   80SLPC  H15C 7363  -0.135   4.840   7.052
   80SLPC   C12 7364   0.019   5.024   6.904
   80SLPC  H12A 7365   0.043   5.048   7.006
   80SLPC  H12B 7366  -0.073   5.071   6.871
   80SLPC   C11 7367   0.133   5.101   6.829
   80SLPC  H11A 7368   0.228   5.043   6.829
   80SLPC  H11B 7369   0.153   5.197   6.881
   80SLPC     P 7370   0.036   5.251   6.641
   80SLPC   O13 7371  -0.101   5.274   6.696
   80SLPC   O14 7372   0.133   5.359   6.642
   80SLPC   O12 7373   0.092   5.116   6.697
   80SLPC   O11 7374   0.018   5.216   6.492
   80SLPC    C1 7375  -0.052   5.103   6.442
   80SLPC    HA 7376  -0.024   5.015   6.503
   80SLPC    HB 7377  -0.160   5.128   6.441
   80SLPC    C2 7378  -0.009   5.081   6.298
   80SLPC    HS 7379   0.095   5.046   6.313
   80SLPC   O21 7380  -0.024   5.211   6.237
   80SLPC   C21 7381   0.042   5.214   6.117
   80SLPC   O22 7382   0.107   5.123   6.068
   80SLPC   C22 7383   0.029   5.357   6.051
   80SLPC   H2R 7384   0.018   5.428   6.136
   80SLPC   H2S 7385   0.121   5.370   5.990
   80SLPC    C3 7386  -0.092   4.964   6.225
   80SLPC    HX 7387  -0.139   4.903   6.305
   80SLPC    HY 7388  -0.018   4.900   6.173
   80SLPC   O31 7389  -0.189   5.007   6.137
   80SLPC   C31 7390  -0.308   5.047   6.188
   80SLPC   O32 7391  -0.350   5.020   6.298
   80SLPC   C32 7392  -0.387   5.127   6.088
   80SLPC   H2X 7393  -0.441   5.061   6.017
   80SLPC   H2Y 7394  -0.316   5.192   6.033
   80SLPC   C23 7395  -0.101   5.377   5.956
   80SLPC   H3R 7396  -0.107   5.485   5.928
   80SLPC   H3S 7397  -0.189   5.361   6.022
   80SLPC   C24 7398  -0.099   5.283   5.842
   80SLPC   H4R 7399  -0.085   5.180   5.880
   80SLPC   H4S 7400  -0.012   5.305   5.777
   80SLPC   C25 7401  -0.223   5.281   5.755
   80SLPC   H5R 7402  -0.239   5.378   5.704
   80SLPC   H5S 7403  -0.316   5.256   5.810
   80SLPC   C26 7404  -0.198   5.171   5.647
   80SLPC   H6R 7405  -0.163   5.075   5.692
   80SLPC   H6S 7406  -0.104   5.204   5.597
   80SLPC   C27 7407  -0.321   5.154   5.549
   80SLPC   H7R 7408  -0.410   5.184   5.608
   80SLPC   H7S 7409  -0.337   5.044   5.542
   80SLPC   C28 7410  -0.301   5.217   5.414
   80SLPC   H8R 7411  -0.213   5.179   5.358
   80SLPC   H8S 7412  -0.287   5.327   5.410
   80SLPC   C29 7413  -0.424   5.182   5.329
   80SLPC   H9R 7414  -0.509   5.249   5.353
   80SLPC  C210 7415  -0.436   5.099   5.226
   80SLPC  H10R 7416  -0.537   5.093   5.182
   80SLPC  C211 7417  -0.329   4.998   5.178
   80SLPC  H11R 7418  -0.377   4.900   5.158
   80SLPC  H11S 7419  -0.255   4.982   5.259
   80SLPC  C212 7420  -0.258   5.060   5.059
   80SLPC  H12R 7421  -0.206   5.156   5.074
   80SLPC  C213 7422  -0.266   5.017   4.934
   80SLPC  H13R 7423  -0.204   5.069   4.860
   80SLPC  C214 7424  -0.339   4.893   4.887
   80SLPC  H14R 7425  -0.341   4.805   4.956
   80SLPC  H14S 7426  -0.286   4.852   4.798
   80SLPC  C215 7427  -0.490   4.930   4.853
   80SLPC  H15R 7428  -0.533   4.981   4.942
   80SLPC  H15S 7429  -0.549   4.837   4.839
   80SLPC  C216 7430  -0.511   5.019   4.733
   80SLPC  H16R 7431  -0.467   5.119   4.750
   80SLPC  H16S 7432  -0.621   5.035   4.735
   80SLPC  C217 7433  -0.462   4.974   4.596
   80SLPC  H17R 7434  -0.522   4.885   4.566
   80SLPC  H17S 7435  -0.359   4.933   4.593
   80SLPC  C218 7436  -0.491   5.077   4.485
   80SLPC  H18R 7437  -0.595   5.064   4.449
   80SLPC  H18S 7438  -0.427   5.052   4.398
   80SLPC  H18T 7439  -0.477   5.184   4.511
   80SLPC   C33 7440  -0.486   5.218   6.160
   80SLPC   H3X 7441  -0.439   5.284   6.235
   80SLPC   H3Y 7442  -0.568   5.155   6.202
   80SLPC   C34 7443  -0.555   5.315   6.060
   80SLPC   H4X 7444  -0.472   5.356   5.999
   80SLPC   H4Y 7445  -0.608   5.394   6.118
   80SLPC   C35 7446  -0.658   5.242   5.971
   80SLPC   H5X 7447  -0.730   5.195   6.040
   80SLPC   H5Y 7448  -0.606   5.168   5.906
   80SLPC   C36 7449  -0.720   5.358   5.886
   80SLPC   H6X 7450  -0.782   5.433   5.940
   80SLPC   H6Y 7451  -0.791   5.299   5.824
   80SLPC   C37 7452  -0.632   5.411   5.771
   80SLPC   H7X 7453  -0.579   5.336   5.709
   80SLPC   H7Y 7454  -0.552   5.480   5.806
   80SLPC   C38 7455  -0.710   5.495   5.664
   80SLPC   H8X 7456  -0.769   5.581   5.702
   80SLPC   H8Y 7457  -0.783   5.430   5.611
   80SLPC   C39 7458  -0.619   5.558   5.553
   80SLPC   H9X 7459  -0.576   5.475   5.493
   80SLPC   H9Y 7460  -0.543   5.626   5.596
   80SLPC  C310 7461  -0.723   5.612   5.452
   80SLPC  H10X 7462  -0.778   5.698   5.496
   80SLPC  H10Y 7463  -0.792   5.530   5.425
   80SLPC  C311 7464  -0.666   5.658   5.315
   80SLPC  H11X 7465  -0.603   5.573   5.282
   80SLPC  H11Y 7466  -0.606   5.752   5.323
   80SLPC  C312 7467  -0.764   5.691   5.204
   80SLPC  H12X 7468  -0.839   5.763   5.244
   80SLPC  H12Y 7469  -0.820   5.602   5.167
   80SLPC  C313 7470  -0.691   5.766   5.087
   80SLPC  H13X 7471  -0.659   5.868   5.118
   80SLPC  H13Y 7472  -0.769   5.777   5.008
   80SLPC  C314 7473  -0.572   5.691   5.025
   80SLPC  H14X 7474  -0.590   5.581   5.027
   80SLPC  H14Y 7475  -0.497   5.702   5.107
   80SLPC  C315 7476  -0.544   5.738   4.891
   80SLPC  H15X 7477  -0.541   5.847   4.873
   80SLPC  H15Y 7478  -0.625   5.702   4.824
   80SLPC  C316 7479  -0.410   5.697   4.825
   80SLPC  H16X 7480  -0.409   5.587   4.814
   80SLPC  H16Y 7481  -0.334   5.728   4.899
   80SLPC  C317 7482  -0.385   5.749   4.684
   80SLPC  H17X 7483  -0.382   5.860   4.681
   80SLPC  H17Y 7484  -0.461   5.711   4.612
   80SLPC  C318 7485  -0.248   5.691   4.632
   80SLPC  H18X 7486  -0.251   5.672   4.523
   80SLPC  H18Y 7487  -0.237   5.586   4.665
   80SLPC  H18Z 7488  -0.166   5.761   4.658
   81SLPC     N 7489   4.176   4.147   1.704
   81SLPC   C13 7490   4.305   4.219   1.679
   81SLPC  H13A 7491   4.346   4.273   1.763
   81SLPC  H13B 7492   4.389   4.153   1.664
   81SLPC  H13C 7493   4.296   4.287   1.596
   81SLPC   C14 7494   4.179   4.108   1.852
   81SLPC  H14A 7495   4.131   4.180   1.917
   81SLPC  H14B 7496   4.125   4.016   1.872
   81SLPC  H14C 7497   4.284   4.111   1.877
   81SLPC   C15 7498   4.165   4.030   1.620
   81SLPC  H15A 7499   4.248   3.964   1.635
   81SLPC  H15B 7500   4.069   3.983   1.635
   81SLPC  H15C 7501   4.180   4.063   1.518
   81SLPC   C12 7502   4.060   4.234   1.671
   81SLPC  H12A 7503   3.966   4.180   1.673
   81SLPC  H12B 7504   4.076   4.277   1.573
   81SLPC   C11 7505   4.030   4.356   1.767
   81SLPC  H11A 7506   3.965   4.426   1.711
   81SLPC  H11B 7507   4.126   4.409   1.786
   81SLPC     P 7508   3.810   4.267   1.876
   81SLPC   O13 7509   3.765   4.238   1.739
   81SLPC   O14 7510   3.787   4.159   1.978
   81SLPC   O12 7511   3.965   4.305   1.878
   81SLPC   O11 7512   3.733   4.400   1.918
   81SLPC    C1 7513   3.799   4.522   1.948
   81SLPC    HA 7514   3.888   4.541   1.884
   81SLPC    HB 7515   3.716   4.592   1.925
   81SLPC    C2 7516   3.833   4.539   2.096
   81SLPC    HS 7517   3.920   4.471   2.104
   81SLPC   O21 7518   3.718   4.498   2.182
   81SLPC   C21 7519   3.756   4.439   2.291
   81SLPC   O22 7520   3.866   4.388   2.311
   81SLPC   C22 7521   3.633   4.422   2.379
   81SLPC   H2R 7522   3.569   4.512   2.368
   81SLPC   H2S 7523   3.579   4.328   2.354
   81SLPC    C3 7524   3.880   4.684   2.125
   81SLPC    HX 7525   3.816   4.753   2.067
   81SLPC    HY 7526   3.980   4.714   2.086
   81SLPC   O31 7527   3.871   4.712   2.261
   81SLPC   C31 7528   3.989   4.691   2.327
   81SLPC   O32 7529   4.080   4.632   2.279
   81SLPC   C32 7530   3.991   4.734   2.472
   81SLPC   H2X 7531   3.920   4.669   2.526
   81SLPC   H2Y 7532   3.966   4.842   2.479
   81SLPC   C23 7533   3.672   4.421   2.527
   81SLPC   H3R 7534   3.719   4.516   2.560
   81SLPC   H3S 7535   3.755   4.350   2.546
   81SLPC   C24 7536   3.555   4.395   2.623
   81SLPC   H4R 7537   3.481   4.477   2.614
   81SLPC   H4S 7538   3.595   4.403   2.727
   81SLPC   C25 7539   3.492   4.248   2.614
   81SLPC   H5R 7540   3.570   4.175   2.583
   81SLPC   H5S 7541   3.421   4.245   2.528
   81SLPC   C26 7542   3.438   4.213   2.752
   81SLPC   H6R 7543   3.520   4.222   2.826
   81SLPC   H6S 7544   3.400   4.109   2.754
   81SLPC   C27 7545   3.327   4.302   2.805
   81SLPC   H7R 7546   3.250   4.286   2.727
   81SLPC   H7S 7547   3.363   4.407   2.809
   81SLPC   C28 7548   3.283   4.250   2.946
   81SLPC   H8R 7549   3.230   4.338   2.988
   81SLPC   H8S 7550   3.372   4.243   3.012
   81SLPC   C29 7551   3.200   4.128   2.937
   81SLPC   H9R 7552   3.139   4.116   2.846
   81SLPC  C210 7553   3.194   4.036   3.037
   81SLPC  H10R 7554   3.130   3.948   3.018
   81SLPC  C211 7555   3.248   4.041   3.177
   81SLPC  H11R 7556   3.358   4.052   3.167
   81SLPC  H11S 7557   3.237   3.939   3.219
   81SLPC  C212 7558   3.188   4.147   3.266
   81SLPC  H12R 7559   3.121   4.222   3.220
   81SLPC  C213 7560   3.209   4.167   3.397
   81SLPC  H13R 7561   3.152   4.247   3.447
   81SLPC  C214 7562   3.286   4.087   3.493
   81SLPC  H14R 7563   3.368   4.154   3.527
   81SLPC  H14S 7564   3.339   3.998   3.453
   81SLPC  C215 7565   3.203   4.046   3.618
   81SLPC  H15R 7566   3.250   3.962   3.673
   81SLPC  H15S 7567   3.105   4.008   3.584
   81SLPC  C216 7568   3.188   4.171   3.713
   81SLPC  H16R 7569   3.128   4.144   3.802
   81SLPC  H16S 7570   3.131   4.249   3.658
   81SLPC  C217 7571   3.316   4.243   3.770
   81SLPC  H17R 7572   3.277   4.317   3.843
   81SLPC  H17S 7573   3.361   4.302   3.688
   81SLPC  C218 7574   3.415   4.154   3.841
   81SLPC  H18R 7575   3.370   4.130   3.940
   81SLPC  H18S 7576   3.505   4.215   3.863
   81SLPC  H18T 7577   3.436   4.061   3.783
   81SLPC   C33 7578   4.133   4.706   2.537
   81SLPC   H3X 7579   4.216   4.752   2.479
   81SLPC   H3Y 7580   4.151   4.596   2.533
   81SLPC   C34 7581   4.142   4.769   2.675
   81SLPC   H4X 7582   4.154   4.877   2.656
   81SLPC   H4Y 7583   4.239   4.757   2.727
   81SLPC   C35 7584   4.016   4.779   2.765
   81SLPC   H5X 7585   3.950   4.690   2.761
   81SLPC   H5Y 7586   3.945   4.860   2.738
   81SLPC   C36 7587   4.059   4.804   2.912
   81SLPC   H6X 7588   4.111   4.902   2.913
   81SLPC   H6Y 7589   4.127   4.727   2.955
   81SLPC   C37 7590   3.937   4.832   3.000
   81SLPC   H7X 7591   3.852   4.765   2.975
   81SLPC   H7Y 7592   3.907   4.939   2.989
   81SLPC   C38 7593   3.975   4.803   3.150
   81SLPC   H8X 7594   4.077   4.843   3.167
   81SLPC   H8Y 7595   3.981   4.693   3.162
   81SLPC   C39 7596   3.881   4.862   3.255
   81SLPC   H9X 7597   3.785   4.805   3.259
   81SLPC   H9Y 7598   3.862   4.966   3.219
   81SLPC  C310 7599   3.931   4.861   3.403
   81SLPC  H10X 7600   3.953   4.758   3.437
   81SLPC  H10Y 7601   3.854   4.904   3.472
   81SLPC  C311 7602   4.055   4.948   3.433
   81SLPC  H11X 7603   4.061   5.035   3.364
   81SLPC  H11Y 7604   4.137   4.880   3.401
   81SLPC  C312 7605   4.082   4.977   3.589
   81SLPC  H12X 7606   4.009   5.030   3.653
   81SLPC  H12Y 7607   4.175   5.038   3.582
   81SLPC  C313 7608   4.117   4.845   3.654
   81SLPC  H13X 7609   4.199   4.803   3.591
   81SLPC  H13Y 7610   4.031   4.775   3.649
   81SLPC  C314 7611   4.185   4.858   3.787
   81SLPC  H14X 7612   4.116   4.903   3.861
   81SLPC  H14Y 7613   4.274   4.924   3.773
   81SLPC  C315 7614   4.211   4.721   3.852
   81SLPC  H15X 7615   4.123   4.656   3.832
   81SLPC  H15Y 7616   4.220   4.738   3.961
   81SLPC  C316 7617   4.333   4.667   3.790
   81SLPC  H16X 7618   4.342   4.694   3.683
   81SLPC  H16Y 7619   4.335   4.556   3.793
   81SLPC  C317 7620   4.460   4.712   3.848
   81SLPC  H17X 7621   4.461   4.679   3.954
   81SLPC  H17Y 7622   4.460   4.823   3.847
   81SLPC  C318 7623   4.587   4.662   3.769
   81SLPC  H18X 7624   4.681   4.676   3.826
   81SLPC  H18Y 7625   4.607   4.711   3.672
   81SLPC  H18Z 7626   4.581   4.551   3.760
   82SLPC     N 7627   0.138   3.702   2.224
   82SLPC   C13 7628   0.249   3.627   2.297
   82SLPC  H13A 7629   0.322   3.693   2.339
   82SLPC  H13B 7630   0.205   3.571   2.378
   82SLPC  H13C 7631   0.304   3.555   2.238
   82SLPC   C14 7632   0.036   3.600   2.181
   82SLPC  H14A 7633  -0.052   3.641   2.134
   82SLPC  H14B 7634   0.087   3.534   2.113
   82SLPC  H14C 7635  -0.003   3.539   2.261
   82SLPC   C15 7636   0.193   3.772   2.105
   82SLPC  H15A 7637   0.231   3.705   2.029
   82SLPC  H15B 7638   0.121   3.838   2.058
   82SLPC  H15C 7639   0.270   3.846   2.121
   82SLPC   C12 7640   0.077   3.803   2.316
   82SLPC  H12A 7641   0.041   3.752   2.404
   82SLPC  H12B 7642  -0.010   3.837   2.263
   82SLPC   C11 7643   0.160   3.926   2.346
   82SLPC  H11A 7644   0.270   3.917   2.351
   82SLPC  H11B 7645   0.128   3.961   2.447
   82SLPC     P 7646   0.206   4.155   2.228
   82SLPC   O13 7647   0.300   4.135   2.121
   82SLPC   O14 7648   0.119   4.273   2.221
   82SLPC   O12 7649   0.128   4.018   2.246
   82SLPC   O11 7650   0.296   4.151   2.358
   82SLPC    C1 7651   0.268   4.219   2.479
   82SLPC    HA 7652   0.291   4.327   2.464
   82SLPC    HB 7653   0.160   4.214   2.505
   82SLPC    C2 7654   0.348   4.166   2.603
   82SLPC    HS 7655   0.459   4.167   2.593
   82SLPC   O21 7656   0.300   4.032   2.634
   82SLPC   C21 7657   0.384   3.936   2.614
   82SLPC   O22 7658   0.502   3.940   2.576
   82SLPC   C22 7659   0.304   3.810   2.648
   82SLPC   H2R 7660   0.212   3.832   2.706
   82SLPC   H2S 7661   0.265   3.767   2.553
   82SLPC    C3 7662   0.324   4.265   2.714
   82SLPC    HX 7663   0.214   4.263   2.734
   82SLPC    HY 7664   0.337   4.370   2.677
   82SLPC   O31 7665   0.395   4.240   2.839
   82SLPC   C31 7666   0.522   4.257   2.826
   82SLPC   O32 7667   0.572   4.313   2.732
   82SLPC   C32 7668   0.597   4.193   2.942
   82SLPC   H2X 7669   0.673   4.265   2.980
   82SLPC   H2Y 7670   0.654   4.104   2.907
   82SLPC   C23 7671   0.395   3.710   2.727
   82SLPC   H3R 7672   0.479   3.689   2.657
   82SLPC   H3S 7673   0.336   3.616   2.738
   82SLPC   C24 7674   0.443   3.756   2.866
   82SLPC   H4R 7675   0.508   3.845   2.851
   82SLPC   H4S 7676   0.501   3.677   2.918
   82SLPC   C25 7677   0.333   3.798   2.968
   82SLPC   H5R 7678   0.236   3.754   2.938
   82SLPC   H5S 7679   0.323   3.908   2.984
   82SLPC   C26 7680   0.345   3.721   3.108
   82SLPC   H6R 7681   0.431   3.759   3.168
   82SLPC   H6S 7682   0.385   3.620   3.084
   82SLPC   C27 7683   0.224   3.712   3.195
   82SLPC   H7R 7684   0.133   3.686   3.136
   82SLPC   H7S 7685   0.219   3.817   3.231
   82SLPC   C28 7686   0.236   3.618   3.318
   82SLPC   H8R 7687   0.231   3.510   3.292
   82SLPC   H8S 7688   0.138   3.642   3.364
   82SLPC   C29 7689   0.355   3.646   3.408
   82SLPC   H9R 7690   0.454   3.649   3.361
   82SLPC  C210 7691   0.350   3.628   3.542
   82SLPC  H10R 7692   0.441   3.649   3.601
   82SLPC  C211 7693   0.230   3.603   3.627
   82SLPC  H11R 7694   0.248   3.508   3.681
   82SLPC  H11S 7695   0.141   3.584   3.564
   82SLPC  C212 7696   0.214   3.725   3.709
   82SLPC  H12R 7697   0.219   3.821   3.655
   82SLPC  C213 7698   0.188   3.721   3.838
   82SLPC  H13R 7699   0.190   3.814   3.896
   82SLPC  C214 7700   0.178   3.596   3.920
   82SLPC  H14R 7701   0.253   3.522   3.885
   82SLPC  H14S 7702   0.083   3.541   3.901
   82SLPC  C215 7703   0.192   3.610   4.073
   82SLPC  H15R 7704   0.189   3.513   4.128
   82SLPC  H15S 7705   0.101   3.662   4.108
   82SLPC  C216 7706   0.333   3.674   4.100
   82SLPC  H16R 7707   0.335   3.777   4.058
   82SLPC  H16S 7708   0.414   3.617   4.051
   82SLPC  C217 7709   0.378   3.689   4.249
   82SLPC  H17R 7710   0.488   3.698   4.236
   82SLPC  H17S 7711   0.356   3.600   4.311
   82SLPC  C218 7712   0.324   3.817   4.317
   82SLPC  H18R 7713   0.375   3.812   4.416
   82SLPC  H18S 7714   0.214   3.815   4.327
   82SLPC  H18T 7715   0.362   3.912   4.274
   82SLPC   C33 7716   0.511   4.156   3.061
   82SLPC   H3X 7717   0.454   4.063   3.038
   82SLPC   H3Y 7718   0.424   4.219   3.089
   82SLPC   C34 7719   0.586   4.102   3.186
   82SLPC   H4X 7720   0.644   4.189   3.224
   82SLPC   H4Y 7721   0.644   4.009   3.167
   82SLPC   C35 7722   0.484   4.079   3.302
   82SLPC   H5X 7723   0.430   3.984   3.281
   82SLPC   H5Y 7724   0.405   4.157   3.307
   82SLPC   C36 7725   0.555   4.075   3.436
   82SLPC   H6X 7726   0.628   4.158   3.430
   82SLPC   H6Y 7727   0.606   3.976   3.444
   82SLPC   C37 7728   0.463   4.107   3.553
   82SLPC   H7X 7729   0.389   4.025   3.553
   82SLPC   H7Y 7730   0.405   4.200   3.532
   82SLPC   C38 7731   0.537   4.110   3.691
   82SLPC   H8X 7732   0.588   4.208   3.696
   82SLPC   H8Y 7733   0.619   4.034   3.687
   82SLPC   C39 7734   0.432   4.104   3.803
   82SLPC   H9X 7735   0.375   4.009   3.796
   82SLPC   H9Y 7736   0.356   4.185   3.796
   82SLPC  C310 7737   0.502   4.125   3.940
   82SLPC  H10X 7738   0.543   4.228   3.949
   82SLPC  H10Y 7739   0.587   4.054   3.947
   82SLPC  C311 7740   0.405   4.104   4.061
   82SLPC  H11X 7741   0.367   3.999   4.058
   82SLPC  H11Y 7742   0.325   4.181   4.055
   82SLPC  C312 7743   0.493   4.127   4.186
   82SLPC  H12X 7744   0.567   4.208   4.173
   82SLPC  H12Y 7745   0.550   4.037   4.219
   82SLPC  C313 7746   0.415   4.188   4.305
   82SLPC  H13X 7747   0.331   4.117   4.323
   82SLPC  H13Y 7748   0.365   4.286   4.289
   82SLPC  C314 7749   0.495   4.185   4.433
   82SLPC  H14X 7750   0.593   4.235   4.422
   82SLPC  H14Y 7751   0.519   4.084   4.471
   82SLPC  C315 7752   0.405   4.243   4.545
   82SLPC  H15X 7753   0.316   4.179   4.560
   82SLPC  H15Y 7754   0.351   4.338   4.523
   82SLPC  C316 7755   0.481   4.253   4.678
   82SLPC  H16X 7756   0.561   4.326   4.656
   82SLPC  H16Y 7757   0.522   4.152   4.700
   82SLPC  C317 7758   0.380   4.298   4.788
   82SLPC  H17X 7759   0.316   4.208   4.802
   82SLPC  H17Y 7760   0.325   4.383   4.743
   82SLPC  C318 7761   0.446   4.342   4.922
   82SLPC  H18X 7762   0.390   4.306   5.011
   82SLPC  H18Y 7763   0.468   4.450   4.936
   82SLPC  H18Z 7764   0.545   4.293   4.927
   83SLPC     N 7765   2.664   4.558   1.703
   83SLPC   C13 7766   2.650   4.695   1.637
   83SLPC  H13A 7767   2.696   4.768   1.703
   83SLPC  H13B 7768   2.695   4.697   1.539
   83SLPC  H13C 7769   2.546   4.725   1.640
   83SLPC   C14 7770   2.812   4.515   1.691
   83SLPC  H14A 7771   2.849   4.504   1.590
   83SLPC  H14B 7772   2.867   4.592   1.743
   83SLPC  H14C 7773   2.811   4.420   1.742
   83SLPC   C15 7774   2.572   4.468   1.629
   83SLPC  H15A 7775   2.597   4.366   1.655
   83SLPC  H15B 7776   2.469   4.483   1.658
   83SLPC  H15C 7777   2.582   4.486   1.523
   83SLPC   C12 7778   2.631   4.559   1.851
   83SLPC  H12A 7779   2.656   4.460   1.887
   83SLPC  H12B 7780   2.527   4.583   1.870
   83SLPC   C11 7781   2.705   4.645   1.946
   83SLPC  H11A 7782   2.813   4.621   1.949
   83SLPC  H11B 7783   2.681   4.617   2.051
   83SLPC     P 7784   2.549   4.842   1.960
   83SLPC   O13 7785   2.528   4.962   1.878
   83SLPC   O14 7786   2.441   4.747   1.954
   83SLPC   O12 7787   2.690   4.782   1.921
   83SLPC   O11 7788   2.567   4.881   2.114
   83SLPC    C1 7789   2.698   4.903   2.169
   83SLPC    HA 7790   2.784   4.901   2.098
   83SLPC    HB 7791   2.698   4.998   2.227
   83SLPC    C2 7792   2.726   4.792   2.270
   83SLPC    HS 7793   2.663   4.703   2.249
   83SLPC   O21 7794   2.692   4.850   2.402
   83SLPC   C21 7795   2.645   4.773   2.489
   83SLPC   O22 7796   2.625   4.654   2.479
   83SLPC   C22 7797   2.597   4.850   2.619
   83SLPC   H2R 7798   2.670   4.934   2.625
   83SLPC   H2S 7799   2.494   4.885   2.595
   83SLPC    C3 7800   2.876   4.751   2.270
   83SLPC    HX 7801   2.936   4.844   2.266
   83SLPC    HY 7802   2.898   4.693   2.178
   83SLPC   O31 7803   2.910   4.673   2.381
   83SLPC   C31 7804   3.010   4.693   2.463
   83SLPC   O32 7805   3.095   4.772   2.449
   83SLPC   C32 7806   2.990   4.613   2.591
   83SLPC   H2X 7807   3.043   4.515   2.580
   83SLPC   H2Y 7808   2.882   4.590   2.606
   83SLPC   C23 7809   2.587   4.771   2.749
   83SLPC   H3R 7810   2.676   4.705   2.759
   83SLPC   H3S 7811   2.494   4.711   2.743
   83SLPC   C24 7812   2.573   4.860   2.876
   83SLPC   H4R 7813   2.467   4.892   2.884
   83SLPC   H4S 7814   2.629   4.953   2.850
   83SLPC   C25 7815   2.620   4.791   3.001
   83SLPC   H5R 7816   2.726   4.762   2.988
   83SLPC   H5S 7817   2.568   4.693   3.000
   83SLPC   C26 7818   2.595   4.855   3.139
   83SLPC   H6R 7819   2.597   4.775   3.216
   83SLPC   H6S 7820   2.495   4.903   3.145
   83SLPC   C27 7821   2.683   4.975   3.167
   83SLPC   H7R 7822   2.657   5.054   3.094
   83SLPC   H7S 7823   2.789   4.943   3.156
   83SLPC   C28 7824   2.666   5.041   3.314
   83SLPC   H8R 7825   2.661   4.958   3.388
   83SLPC   H8S 7826   2.565   5.087   3.318
   83SLPC   C29 7827   2.780   5.128   3.344
   83SLPC   H9R 7828   2.805   5.204   3.268
   83SLPC  C210 7829   2.869   5.116   3.448
   83SLPC  H10R 7830   2.948   5.193   3.453
   83SLPC  C211 7831   2.857   5.023   3.572
   83SLPC  H11R 7832   2.838   4.924   3.524
   83SLPC  H11S 7833   2.765   5.052   3.626
   83SLPC  C212 7834   2.970   5.007   3.663
   83SLPC  H12R 7835   3.070   5.038   3.629
   83SLPC  C213 7836   2.949   4.962   3.789
   83SLPC  H13R 7837   3.040   4.944   3.847
   83SLPC  C214 7838   2.815   4.925   3.856
   83SLPC  H14R 7839   2.824   4.820   3.891
   83SLPC  H14S 7840   2.724   4.915   3.793
   83SLPC  C215 7841   2.789   5.015   3.987
   83SLPC  H15R 7842   2.783   5.116   3.942
   83SLPC  H15S 7843   2.872   5.008   4.061
   83SLPC  C216 7844   2.654   4.968   4.059
   83SLPC  H16R 7845   2.565   4.976   3.994
   83SLPC  H16S 7846   2.636   5.041   4.141
   83SLPC  C217 7847   2.666   4.830   4.120
   83SLPC  H17R 7848   2.740   4.840   4.202
   83SLPC  H17S 7849   2.725   4.755   4.062
   83SLPC  C218 7850   2.529   4.782   4.174
   83SLPC  H18R 7851   2.463   4.867   4.203
   83SLPC  H18S 7852   2.535   4.703   4.252
   83SLPC  H18T 7853   2.466   4.745   4.091
   83SLPC   C33 7854   3.039   4.688   2.718
   83SLPC   H3X 7855   2.986   4.786   2.724
   83SLPC   H3Y 7856   3.141   4.721   2.690
   83SLPC   C34 7857   3.045   4.609   2.844
   83SLPC   H4X 7858   3.131   4.539   2.842
   83SLPC   H4Y 7859   2.950   4.552   2.849
   83SLPC   C35 7860   3.061   4.687   2.977
   83SLPC   H5X 7861   2.987   4.768   2.990
   83SLPC   H5Y 7862   3.164   4.728   2.979
   83SLPC   C36 7863   3.044   4.601   3.103
   83SLPC   H6X 7864   3.099   4.505   3.101
   83SLPC   H6Y 7865   2.936   4.582   3.125
   83SLPC   C37 7866   3.099   4.671   3.229
   83SLPC   H7X 7867   3.038   4.762   3.249
   83SLPC   H7Y 7868   3.199   4.711   3.200
   83SLPC   C38 7869   3.130   4.587   3.357
   83SLPC   H8X 7870   3.218   4.526   3.326
   83SLPC   H8Y 7871   3.037   4.529   3.378
   83SLPC   C39 7872   3.162   4.685   3.475
   83SLPC   H9X 7873   3.076   4.755   3.486
   83SLPC   H9Y 7874   3.254   4.735   3.438
   83SLPC  C310 7875   3.189   4.612   3.613
   83SLPC  H10X 7876   3.220   4.688   3.688
   83SLPC  H10Y 7877   3.276   4.548   3.590
   83SLPC  C311 7878   3.085   4.526   3.674
   83SLPC  H11X 7879   3.134   4.463   3.751
   83SLPC  H11Y 7880   3.045   4.458   3.595
   83SLPC  C312 7881   2.976   4.610   3.740
   83SLPC  H12X 7882   2.929   4.678   3.666
   83SLPC  H12Y 7883   3.014   4.663   3.830
   83SLPC  C313 7884   2.855   4.525   3.781
   83SLPC  H13X 7885   2.814   4.471   3.693
   83SLPC  H13Y 7886   2.771   4.590   3.811
   83SLPC  C314 7887   2.892   4.412   3.880
   83SLPC  H14X 7888   2.905   4.452   3.982
   83SLPC  H14Y 7889   2.986   4.364   3.843
   83SLPC  C315 7890   2.790   4.301   3.887
   83SLPC  H15X 7891   2.814   4.224   3.963
   83SLPC  H15Y 7892   2.796   4.242   3.792
   83SLPC  C316 7893   2.642   4.341   3.899
   83SLPC  H16X 7894   2.588   4.244   3.888
   83SLPC  H16Y 7895   2.602   4.406   3.818
   83SLPC  C317 7896   2.594   4.385   4.034
   83SLPC  H17X 7897   2.621   4.492   4.051
   83SLPC  H17Y 7898   2.634   4.325   4.119
   83SLPC  C318 7899   2.441   4.380   4.045
   83SLPC  H18X 7900   2.404   4.275   4.045
   83SLPC  H18Y 7901   2.402   4.420   3.949
   83SLPC  H18Z 7902   2.387   4.432   4.126
   84SLPC     N 7903   1.348   1.631   1.583
   84SLPC   C13 7904   1.380   1.486   1.564
   84SLPC  H13A 7905   1.441   1.453   1.647
   84SLPC  H13B 7906   1.292   1.423   1.554
   84SLPC  H13C 7907   1.437   1.476   1.473
   84SLPC   C14 7908   1.255   1.647   1.698
   84SLPC  H14A 7909   1.158   1.602   1.678
   84SLPC  H14B 7910   1.290   1.588   1.782
   84SLPC  H14C 7911   1.238   1.751   1.720
   84SLPC   C15 7912   1.273   1.681   1.460
   84SLPC  H15A 7913   1.174   1.640   1.453
   84SLPC  H15B 7914   1.271   1.789   1.467
   84SLPC  H15C 7915   1.320   1.655   1.366
   84SLPC   C12 7916   1.476   1.704   1.585
   84SLPC  H12A 7917   1.516   1.707   1.484
   84SLPC  H12B 7918   1.546   1.649   1.646
   84SLPC   C11 7919   1.484   1.849   1.626
   84SLPC  H11A 7920   1.395   1.901   1.584
   84SLPC  H11B 7921   1.574   1.897   1.581
   84SLPC     P 7922   1.538   1.995   1.834
   84SLPC   O13 7923   1.678   2.028   1.789
   84SLPC   O14 7924   1.436   2.103   1.811
   84SLPC   O12 7925   1.490   1.852   1.765
   84SLPC   O11 7926   1.548   1.959   1.987
   84SLPC    C1 7927   1.447   1.995   2.078
   84SLPC    HA 7928   1.364   2.053   2.033
   84SLPC    HB 7929   1.398   1.910   2.131
   84SLPC    C2 7930   1.506   2.086   2.190
   84SLPC    HS 7931   1.568   2.161   2.136
   84SLPC   O21 7932   1.577   2.001   2.283
   84SLPC   C21 7933   1.705   2.022   2.277
   84SLPC   O22 7934   1.762   2.093   2.195
   84SLPC   C22 7935   1.766   1.962   2.398
   84SLPC   H2R 7936   1.749   1.852   2.398
   84SLPC   H2S 7937   1.871   1.996   2.403
   84SLPC    C3 7938   1.393   2.158   2.269
   84SLPC    HX 7939   1.310   2.091   2.302
   84SLPC    HY 7940   1.344   2.235   2.206
   84SLPC   O31 7941   1.442   2.225   2.383
   84SLPC   C31 7942   1.352   2.290   2.460
   84SLPC   O32 7943   1.229   2.270   2.451
   84SLPC   C32 7944   1.423   2.381   2.562
   84SLPC   H2X 7945   1.442   2.479   2.514
   84SLPC   H2Y 7946   1.519   2.339   2.599
   84SLPC   C23 7947   1.699   2.012   2.531
   84SLPC   H3R 7948   1.613   1.945   2.555
   84SLPC   H3S 7949   1.659   2.114   2.512
   84SLPC   C24 7950   1.792   2.040   2.652
   84SLPC   H4R 7951   1.875   2.110   2.629
   84SLPC   H4S 7952   1.834   1.946   2.695
   84SLPC   C25 7953   1.727   2.112   2.770
   84SLPC   H5R 7954   1.633   2.058   2.795
   84SLPC   H5S 7955   1.706   2.218   2.745
   84SLPC   C26 7956   1.811   2.117   2.894
   84SLPC   H6R 7957   1.911   2.164   2.881
   84SLPC   H6S 7958   1.806   2.015   2.937
   84SLPC   C27 7959   1.730   2.207   2.992
   84SLPC   H7R 7960   1.631   2.158   2.977
   84SLPC   H7S 7961   1.716   2.314   2.967
   84SLPC   C28 7962   1.789   2.193   3.136
   84SLPC   H8R 7963   1.897   2.218   3.131
   84SLPC   H8S 7964   1.785   2.087   3.170
   84SLPC   C29 7965   1.724   2.290   3.227
   84SLPC   H9R 7966   1.736   2.395   3.195
   84SLPC  C210 7967   1.705   2.281   3.362
   84SLPC  H10R 7968   1.658   2.364   3.416
   84SLPC  C211 7969   1.738   2.158   3.440
   84SLPC  H11R 7970   1.828   2.103   3.403
   84SLPC  H11S 7971   1.657   2.085   3.418
   84SLPC  C212 7972   1.751   2.190   3.581
   84SLPC  H12R 7973   1.842   2.246   3.606
   84SLPC  C213 7974   1.674   2.153   3.684
   84SLPC  H13R 7975   1.702   2.185   3.786
   84SLPC  C214 7976   1.549   2.074   3.670
   84SLPC  H14R 7977   1.538   2.020   3.573
   84SLPC  H14S 7978   1.459   2.138   3.685
   84SLPC  C215 7979   1.515   1.974   3.787
   84SLPC  H15R 7980   1.612   1.921   3.799
   84SLPC  H15S 7981   1.426   1.912   3.762
   84SLPC  C216 7982   1.479   2.039   3.923
   84SLPC  H16R 7983   1.385   2.096   3.910
   84SLPC  H16S 7984   1.553   2.119   3.941
   84SLPC  C217 7985   1.484   1.945   4.047
   84SLPC  H17R 7986   1.402   1.869   4.041
   84SLPC  H17S 7987   1.465   2.005   4.139
   84SLPC  C218 7988   1.623   1.878   4.076
   84SLPC  H18R 7989   1.620   1.823   4.172
   84SLPC  H18S 7990   1.699   1.958   4.093
   84SLPC  H18T 7991   1.644   1.802   3.998
   84SLPC   C33 7992   1.339   2.414   2.686
   84SLPC   H3X 7993   1.315   2.318   2.736
   84SLPC   H3Y 7994   1.237   2.452   2.663
   84SLPC   C34 7995   1.414   2.497   2.790
   84SLPC   H4X 7996   1.443   2.600   2.761
   84SLPC   H4Y 7997   1.503   2.439   2.822
   84SLPC   C35 7998   1.343   2.514   2.926
   84SLPC   H5X 7999   1.295   2.415   2.941
   84SLPC   H5Y 8000   1.262   2.589   2.910
   84SLPC   C36 8001   1.428   2.553   3.048
   84SLPC   H6X 8002   1.461   2.657   3.028
   84SLPC   H6Y 8003   1.513   2.482   3.048
   84SLPC   C37 8004   1.361   2.543   3.186
   84SLPC   H7X 8005   1.334   2.440   3.218
   84SLPC   H7Y 8006   1.272   2.608   3.183
   84SLPC   C38 8007   1.449   2.602   3.290
   84SLPC   H8X 8008   1.491   2.700   3.257
   84SLPC   H8Y 8009   1.532   2.528   3.289
   84SLPC   C39 8010   1.379   2.606   3.426
   84SLPC   H9X 8011   1.343   2.503   3.443
   84SLPC   H9Y 8012   1.290   2.673   3.418
   84SLPC  C310 8013   1.483   2.659   3.526
   84SLPC  H10X 8014   1.509   2.767   3.515
   84SLPC  H10Y 8015   1.580   2.606   3.511
   84SLPC  C311 8016   1.427   2.645   3.665
   84SLPC  H11X 8017   1.321   2.674   3.680
   84SLPC  H11Y 8018   1.482   2.706   3.740
   84SLPC  C312 8019   1.462   2.503   3.718
   84SLPC  H12X 8020   1.568   2.484   3.692
   84SLPC  H12Y 8021   1.409   2.421   3.666
   84SLPC  C313 8022   1.446   2.484   3.863
   84SLPC  H13X 8023   1.490   2.572   3.916
   84SLPC  H13Y 8024   1.497   2.389   3.889
   84SLPC  C314 8025   1.288   2.479   3.895
   84SLPC  H14X 8026   1.224   2.444   3.811
   84SLPC  H14Y 8027   1.266   2.588   3.898
   84SLPC  C315 8028   1.247   2.408   4.023
   84SLPC  H15X 8029   1.283   2.479   4.100
   84SLPC  H15Y 8030   1.313   2.321   4.040
   84SLPC  C316 8031   1.096   2.368   4.012
   84SLPC  H16X 8032   1.063   2.325   4.110
   84SLPC  H16Y 8033   1.079   2.289   3.936
   84SLPC  C317 8034   0.999   2.482   3.974
   84SLPC  H17X 8035   0.907   2.433   3.934
   84SLPC  H17Y 8036   1.047   2.543   3.895
   84SLPC  C318 8037   0.964   2.578   4.087
   84SLPC  H18X 8038   0.868   2.629   4.067
   84SLPC  H18Y 8039   1.037   2.661   4.101
   84SLPC  H18Z 8040   0.960   2.518   4.180
   85SLPC     N 8041   5.936   5.807   2.118
   85SLPC   C13 8042   6.086   5.822   2.081
   85SLPC  H13A 8043   6.110   5.922   2.049
   85SLPC  H13B 8044   6.150   5.798   2.165
   85SLPC  H13C 8045   6.116   5.746   2.010
   85SLPC   C14 8046   5.888   5.662   2.112
   85SLPC  H14A 8047   5.948   5.610   2.185
   85SLPC  H14B 8048   5.782   5.664   2.133
   85SLPC  H14C 8049   5.916   5.627   2.014
   85SLPC   C15 8050   5.856   5.891   2.019
   85SLPC  H15A 8051   5.890   5.885   1.917
   85SLPC  H15B 8052   5.753   5.857   2.015
   85SLPC  H15C 8053   5.854   5.996   2.041
   85SLPC   C12 8054   5.920   5.866   2.259
   85SLPC  H12A 8055   5.816   5.875   2.285
   85SLPC  H12B 8056   5.953   5.968   2.267
   85SLPC   C11 8057   5.984   5.783   2.376
   85SLPC  H11A 8058   5.933   5.684   2.375
   85SLPC  H11B 8059   5.953   5.842   2.465
   85SLPC     P 8060   6.235   5.854   2.424
   85SLPC   O13 8061   6.365   5.785   2.404
   85SLPC   O14 8062   6.212   5.989   2.361
   85SLPC   O12 8063   6.126   5.759   2.361
   85SLPC   O11 8064   6.203   5.860   2.586
   85SLPC    C1 8065   6.177   5.731   2.651
   85SLPC    HA 8066   6.074   5.722   2.691
   85SLPC    HB 8067   6.184   5.644   2.582
   85SLPC    C2 8068   6.264   5.700   2.776
   85SLPC    HS 8069   6.235   5.596   2.801
   85SLPC   O21 8070   6.228   5.785   2.882
   85SLPC   C21 8071   6.277   5.745   2.999
   85SLPC   O22 8072   6.309   5.633   3.035
   85SLPC   C22 8073   6.252   5.857   3.093
   85SLPC   H2R 8074   6.323   5.935   3.060
   85SLPC   H2S 8075   6.151   5.898   3.075
   85SLPC    C3 8076   6.420   5.712   2.738
   85SLPC    HX 8077   6.456   5.815   2.762
   85SLPC    HY 8078   6.429   5.710   2.627
   85SLPC   O31 8079   6.501   5.618   2.802
   85SLPC   C31 8080   6.615   5.582   2.748
   85SLPC   O32 8081   6.667   5.644   2.657
   85SLPC   C32 8082   6.663   5.454   2.809
   85SLPC   H2X 8083   6.737   5.406   2.742
   85SLPC   H2Y 8084   6.567   5.397   2.806
   85SLPC   C23 8085   6.270   5.841   3.245
   85SLPC   H3R 8086   6.362   5.780   3.256
   85SLPC   H3S 8087   6.197   5.774   3.296
   85SLPC   C24 8088   6.271   5.978   3.321
   85SLPC   H4R 8089   6.163   6.001   3.327
   85SLPC   H4S 8090   6.319   6.052   3.252
   85SLPC   C25 8091   6.342   5.976   3.453
   85SLPC   H5R 8092   6.433   5.915   3.437
   85SLPC   H5S 8093   6.368   6.077   3.490
   85SLPC   C26 8094   6.262   5.901   3.569
   85SLPC   H6R 8095   6.217   5.807   3.530
   85SLPC   H6S 8096   6.181   5.972   3.599
   85SLPC   C27 8097   6.343   5.873   3.695
   85SLPC   H7R 8098   6.384   5.962   3.748
   85SLPC   H7S 8099   6.427   5.809   3.660
   85SLPC   C28 8100   6.260   5.800   3.806
   85SLPC   H8R 8101   6.327   5.769   3.889
   85SLPC   H8S 8102   6.220   5.706   3.763
   85SLPC   C29 8103   6.147   5.869   3.869
   85SLPC   H9R 8104   6.125   5.964   3.818
   85SLPC  C210 8105   6.065   5.821   3.960
   85SLPC  H10R 8106   5.984   5.885   3.997
   85SLPC  C211 8107   6.077   5.691   4.038
   85SLPC  H11R 8108   6.079   5.602   3.971
   85SLPC  H11S 8109   5.989   5.679   4.106
   85SLPC  C212 8110   6.207   5.693   4.135
   85SLPC  H12R 8111   6.275   5.778   4.119
   85SLPC  C213 8112   6.233   5.600   4.228
   85SLPC  H13R 8113   6.335   5.593   4.269
   85SLPC  C214 8114   6.138   5.482   4.257
   85SLPC  H14R 8115   6.162   5.392   4.197
   85SLPC  H14S 8116   6.030   5.496   4.234
   85SLPC  C215 8117   6.142   5.436   4.406
   85SLPC  H15R 8118   6.244   5.395   4.426
   85SLPC  H15S 8119   6.082   5.343   4.414
   85SLPC  C216 8120   6.116   5.528   4.520
   85SLPC  H16R 8121   6.200   5.600   4.531
   85SLPC  H16S 8122   6.119   5.477   4.618
   85SLPC  C217 8123   5.981   5.599   4.515
   85SLPC  H17R 8124   5.912   5.512   4.513
   85SLPC  H17S 8125   5.980   5.658   4.420
   85SLPC  C218 8126   5.973   5.686   4.637
   85SLPC  H18R 8127   6.074   5.730   4.647
   85SLPC  H18S 8128   5.952   5.622   4.726
   85SLPC  H18T 8129   5.896   5.765   4.628
   85SLPC   C33 8130   6.720   5.462   2.955
   85SLPC   H3X 8131   6.822   5.504   2.942
   85SLPC   H3Y 8132   6.729   5.355   2.980
   85SLPC   C34 8133   6.624   5.524   3.045
   85SLPC   H4X 8134   6.533   5.461   3.062
   85SLPC   H4Y 8135   6.573   5.618   3.014
   85SLPC   C35 8136   6.687   5.554   3.186
   85SLPC   H5X 8137   6.600   5.595   3.242
   85SLPC   H5Y 8138   6.770   5.624   3.167
   85SLPC   C36 8139   6.733   5.434   3.276
   85SLPC   H6X 8140   6.808   5.382   3.213
   85SLPC   H6Y 8141   6.648   5.362   3.276
   85SLPC   C37 8142   6.774   5.474   3.414
   85SLPC   H7X 8143   6.843   5.561   3.413
   85SLPC   H7Y 8144   6.814   5.380   3.458
   85SLPC   C38 8145   6.663   5.519   3.510
   85SLPC   H8X 8146   6.575   5.458   3.480
   85SLPC   H8Y 8147   6.634   5.624   3.487
   85SLPC   C39 8148   6.688   5.500   3.668
   85SLPC   H9X 8149   6.770   5.571   3.690
   85SLPC   H9Y 8150   6.729   5.401   3.698
   85SLPC  C310 8151   6.557   5.529   3.748
   85SLPC  H10X 8152   6.489   5.444   3.725
   85SLPC  H10Y 8153   6.509   5.627   3.728
   85SLPC  C311 8154   6.586   5.526   3.896
   85SLPC  H11X 8155   6.496   5.572   3.942
   85SLPC  H11Y 8156   6.675   5.585   3.928
   85SLPC  C312 8157   6.591   5.386   3.967
   85SLPC  H12X 8158   6.682   5.329   3.938
   85SLPC  H12Y 8159   6.503   5.333   3.925
   85SLPC  C313 8160   6.608   5.401   4.115
   85SLPC  H13X 8161   6.531   5.473   4.152
   85SLPC  H13Y 8162   6.705   5.449   4.140
   85SLPC  C314 8163   6.600   5.267   4.188
   85SLPC  H14X 8164   6.656   5.182   4.143
   85SLPC  H14Y 8165   6.494   5.236   4.179
   85SLPC  C315 8166   6.644   5.269   4.335
   85SLPC  H15X 8167   6.745   5.312   4.356
   85SLPC  H15Y 8168   6.651   5.164   4.371
   85SLPC  C316 8169   6.543   5.341   4.419
   85SLPC  H16X 8170   6.439   5.320   4.387
   85SLPC  H16Y 8171   6.540   5.452   4.412
   85SLPC  C317 8172   6.549   5.312   4.569
   85SLPC  H17X 8173   6.529   5.204   4.581
   85SLPC  H17Y 8174   6.476   5.377   4.622
   85SLPC  C318 8175   6.687   5.325   4.634
   85SLPC  H18X 8176   6.679   5.335   4.744
   85SLPC  H18Y 8177   6.733   5.412   4.582
   85SLPC  H18Z 8178   6.748   5.234   4.615
   86SLPC     N 8179   0.015   2.013   1.820
   86SLPC   C13 8180   0.080   1.881   1.811
   86SLPC  H13A 8181   0.188   1.886   1.811
   86SLPC  H13B 8182   0.057   1.817   1.895
   86SLPC  H13C 8183   0.058   1.828   1.720
   86SLPC   C14 8184  -0.127   1.996   1.773
   86SLPC  H14A 8185  -0.180   2.090   1.765
   86SLPC  H14B 8186  -0.138   1.949   1.676
   86SLPC  H14C 8187  -0.178   1.922   1.834
   86SLPC   C15 8188   0.089   2.116   1.737
   86SLPC  H15A 8189   0.123   2.066   1.648
   86SLPC  H15B 8190   0.029   2.199   1.702
   86SLPC  H15C 8191   0.169   2.158   1.795
   86SLPC   C12 8192   0.002   2.073   1.960
   86SLPC  H12A 8193  -0.040   2.171   1.944
   86SLPC  H12B 8194   0.104   2.077   1.996
   86SLPC   C11 8195  -0.082   2.004   2.070
   86SLPC  H11A 8196  -0.068   2.073   2.157
   86SLPC  H11B 8197  -0.042   1.908   2.107
   86SLPC     P 8198  -0.335   1.998   2.146
   86SLPC   O13 8199  -0.468   2.034   2.088
   86SLPC   O14 8200  -0.330   1.873   2.224
   86SLPC   O12 8201  -0.221   1.991   2.029
   86SLPC   O11 8202  -0.283   2.115   2.246
   86SLPC    C1 8203  -0.287   2.254   2.218
   86SLPC    HA 8204  -0.232   2.279   2.125
   86SLPC    HB 8205  -0.393   2.288   2.219
   86SLPC    C2 8206  -0.212   2.319   2.335
   86SLPC    HS 8207  -0.228   2.429   2.324
   86SLPC   O21 8208  -0.075   2.285   2.329
   86SLPC   C21 8209   0.005   2.388   2.349
   86SLPC   O22 8210  -0.022   2.506   2.346
   86SLPC   C22 8211   0.151   2.338   2.360
   86SLPC   H2R 8212   0.154   2.236   2.316
   86SLPC   H2S 8213   0.220   2.407   2.307
   86SLPC    C3 8214  -0.271   2.264   2.468
   86SLPC    HX 8215  -0.197   2.310   2.537
   86SLPC    HY 8216  -0.250   2.155   2.473
   86SLPC   O31 8217  -0.398   2.308   2.507
   86SLPC   C31 8218  -0.490   2.215   2.526
   86SLPC   O32 8219  -0.469   2.096   2.525
   86SLPC   C32 8220  -0.632   2.281   2.545
   86SLPC   H2X 8221  -0.683   2.233   2.459
   86SLPC   H2Y 8222  -0.623   2.391   2.552
   86SLPC   C23 8223   0.194   2.325   2.513
   86SLPC   H3R 8224   0.150   2.233   2.557
   86SLPC   H3S 8225   0.160   2.413   2.572
   86SLPC   C24 8226   0.350   2.305   2.525
   86SLPC   H4R 8227   0.400   2.398   2.491
   86SLPC   H4S 8228   0.375   2.224   2.453
   86SLPC   C25 8229   0.408   2.275   2.665
   86SLPC   H5R 8230   0.382   2.354   2.739
   86SLPC   H5S 8231   0.516   2.283   2.644
   86SLPC   C26 8232   0.367   2.138   2.708
   86SLPC   H6R 8233   0.378   2.069   2.622
   86SLPC   H6S 8234   0.260   2.151   2.736
   86SLPC   C27 8235   0.441   2.095   2.830
   86SLPC   H7R 8236   0.416   2.161   2.916
   86SLPC   H7S 8237   0.550   2.108   2.813
   86SLPC   C28 8238   0.421   1.941   2.860
   86SLPC   H8R 8239   0.497   1.909   2.934
   86SLPC   H8S 8240   0.450   1.880   2.772
   86SLPC   C29 8241   0.281   1.918   2.911
   86SLPC   H9R 8242   0.228   1.852   2.840
   86SLPC  C210 8243   0.225   1.964   3.024
   86SLPC  H10R 8244   0.121   1.932   3.040
   86SLPC  C211 8245   0.290   2.029   3.141
   86SLPC  H11R 8246   0.238   2.120   3.179
   86SLPC  H11S 8247   0.395   2.042   3.107
   86SLPC  C212 8248   0.295   1.940   3.261
   86SLPC  H12R 8249   0.379   1.870   3.252
   86SLPC  C213 8250   0.210   1.930   3.363
   86SLPC  H13R 8251   0.230   1.857   3.442
   86SLPC  C214 8252   0.085   2.014   3.390
   86SLPC  H14R 8253   0.000   1.944   3.406
   86SLPC  H14S 8254   0.068   2.064   3.292
   86SLPC  C215 8255   0.131   2.104   3.505
   86SLPC  H15R 8256   0.231   2.150   3.492
   86SLPC  H15S 8257   0.113   2.047   3.599
   86SLPC  C216 8258   0.042   2.226   3.511
   86SLPC  H16R 8259   0.045   2.278   3.412
   86SLPC  H16S 8260   0.073   2.298   3.590
   86SLPC  C217 8261  -0.112   2.198   3.539
   86SLPC  H17R 8262  -0.125   2.138   3.631
   86SLPC  H17S 8263  -0.166   2.151   3.455
   86SLPC  C218 8264  -0.165   2.337   3.569
   86SLPC  H18R 8265  -0.133   2.412   3.494
   86SLPC  H18S 8266  -0.142   2.384   3.668
   86SLPC  H18T 8267  -0.274   2.339   3.551
   86SLPC   C33 8268  -0.699   2.234   2.684
   86SLPC   H3X 8269  -0.702   2.124   2.693
   86SLPC   H3Y 8270  -0.805   2.268   2.674
   86SLPC   C34 8271  -0.631   2.293   2.812
   86SLPC   H4X 8272  -0.625   2.404   2.812
   86SLPC   H4Y 8273  -0.524   2.264   2.816
   86SLPC   C35 8274  -0.709   2.248   2.937
   86SLPC   H5X 8275  -0.648   2.268   3.027
   86SLPC   H5Y 8276  -0.734   2.140   2.938
   86SLPC   C36 8277  -0.845   2.336   2.964
   86SLPC   H6X 8278  -0.918   2.313   2.884
   86SLPC   H6Y 8279  -0.813   2.442   2.958
   86SLPC   C37 8280  -0.913   2.305   3.096
   86SLPC   H7X 8281  -0.920   2.195   3.109
   86SLPC   H7Y 8282  -1.021   2.331   3.097
   86SLPC   C38 8283  -0.848   2.369   3.229
   86SLPC   H8X 8284  -0.864   2.477   3.210
   86SLPC   H8Y 8285  -0.738   2.364   3.220
   86SLPC   C39 8286  -0.882   2.310   3.361
   86SLPC   H9X 8287  -0.832   2.215   3.388
   86SLPC   H9Y 8288  -0.992   2.297   3.365
   86SLPC  C310 8289  -0.854   2.408   3.478
   86SLPC  H10X 8290  -0.909   2.501   3.454
   86SLPC  H10Y 8291  -0.746   2.431   3.486
   86SLPC  C311 8292  -0.914   2.354   3.608
   86SLPC  H11X 8293  -1.019   2.320   3.604
   86SLPC  H11Y 8294  -0.907   2.428   3.691
   86SLPC  C312 8295  -0.831   2.239   3.667
   86SLPC  H12X 8296  -0.729   2.279   3.679
   86SLPC  H12Y 8297  -0.839   2.152   3.598
   86SLPC  C313 8298  -0.859   2.191   3.806
   86SLPC  H13X 8299  -0.792   2.106   3.833
   86SLPC  H13Y 8300  -0.963   2.150   3.802
   86SLPC  C314 8301  -0.857   2.290   3.925
   86SLPC  H14X 8302  -0.940   2.364   3.917
   86SLPC  H14Y 8303  -0.768   2.354   3.908
   86SLPC  C315 8304  -0.844   2.216   4.055
   86SLPC  H15X 8305  -0.773   2.131   4.054
   86SLPC  H15Y 8306  -0.942   2.168   4.078
   86SLPC  C316 8307  -0.814   2.303   4.177
   86SLPC  H16X 8308  -0.812   2.407   4.139
   86SLPC  H16Y 8309  -0.723   2.268   4.230
   86SLPC  C317 8310  -0.927   2.307   4.290
   86SLPC  H17X 8311  -1.023   2.350   4.254
   86SLPC  H17Y 8312  -0.884   2.369   4.372
   86SLPC  C318 8313  -0.956   2.174   4.365
   86SLPC  H18X 8314  -0.874   2.136   4.429
   86SLPC  H18Y 8315  -0.976   2.100   4.284
   86SLPC  H18Z 8316  -1.050   2.175   4.424
   87SLPC     N 8317   5.086   2.178   2.037
   87SLPC   C13 8318   5.205   2.261   2.045
   87SLPC  H13A 8319   5.235   2.296   1.947
   87SLPC  H13B 8320   5.181   2.346   2.106
   87SLPC  H13C 8321   5.282   2.197   2.087
   87SLPC   C14 8322   4.987   2.258   1.961
   87SLPC  H14A 8323   5.015   2.265   1.857
   87SLPC  H14B 8324   4.884   2.223   1.960
   87SLPC  H14C 8325   4.988   2.362   1.991
   87SLPC   C15 8326   5.039   2.154   2.173
   87SLPC  H15A 8327   5.117   2.103   2.228
   87SLPC  H15B 8328   5.008   2.240   2.230
   87SLPC  H15C 8329   4.958   2.083   2.164
   87SLPC   C12 8330   5.118   2.053   1.954
   87SLPC  H12A 8331   5.197   1.993   1.997
   87SLPC  H12B 8332   5.160   2.080   1.858
   87SLPC   C11 8333   4.992   1.960   1.935
   87SLPC  H11A 8334   5.008   1.886   1.854
   87SLPC  H11B 8335   4.909   2.009   1.879
   87SLPC     P 8336   4.964   1.758   2.095
   87SLPC   O13 8337   4.865   1.675   2.028
   87SLPC   O14 8338   5.104   1.722   2.073
   87SLPC   O12 8339   4.944   1.909   2.053
   87SLPC   O11 8340   4.932   1.756   2.244
   87SLPC    C1 8341   5.027   1.747   2.345
   87SLPC    HA 8342   5.048   1.640   2.367
   87SLPC    HB 8343   5.118   1.810   2.335
   87SLPC    C2 8344   4.965   1.810   2.473
   87SLPC    HS 8345   4.965   1.921   2.466
   87SLPC   O21 8346   5.036   1.774   2.585
   87SLPC   C21 8347   5.153   1.838   2.609
   87SLPC   O22 8348   5.204   1.924   2.541
   87SLPC   C22 8349   5.212   1.778   2.735
   87SLPC   H2R 8350   5.219   1.667   2.729
   87SLPC   H2S 8351   5.316   1.815   2.750
   87SLPC    C3 8352   4.820   1.761   2.494
   87SLPC    HX 8353   4.826   1.650   2.490
   87SLPC    HY 8354   4.764   1.787   2.401
   87SLPC   O31 8355   4.758   1.805   2.615
   87SLPC   C31 8356   4.711   1.933   2.611
   87SLPC   O32 8357   4.727   2.003   2.513
   87SLPC   C32 8358   4.612   1.943   2.732
   87SLPC   H2X 8359   4.607   1.842   2.778
   87SLPC   H2Y 8360   4.515   1.985   2.697
   87SLPC   C23 8361   5.126   1.814   2.860
   87SLPC   H3R 8362   5.020   1.785   2.849
   87SLPC   H3S 8363   5.129   1.925   2.870
   87SLPC   C24 8364   5.185   1.753   2.983
   87SLPC   H4R 8365   5.290   1.787   2.973
   87SLPC   H4S 8366   5.176   1.644   2.967
   87SLPC   C25 8367   5.121   1.812   3.112
   87SLPC   H5R 8368   5.015   1.778   3.124
   87SLPC   H5S 8369   5.123   1.923   3.101
   87SLPC   C26 8370   5.193   1.779   3.247
   87SLPC   H6R 8371   5.158   1.677   3.276
   87SLPC   H6S 8372   5.151   1.843   3.328
   87SLPC   C27 8373   5.344   1.781   3.252
   87SLPC   H7R 8374   5.385   1.722   3.168
   87SLPC   H7S 8375   5.384   1.721   3.337
   87SLPC   C28 8376   5.408   1.916   3.259
   87SLPC   H8R 8377   5.385   1.952   3.361
   87SLPC   H8S 8378   5.357   1.988   3.192
   87SLPC   C29 8379   5.554   1.908   3.226
   87SLPC   H9R 8380   5.573   1.849   3.135
   87SLPC  C210 8381   5.659   1.935   3.305
   87SLPC  H10R 8382   5.754   1.940   3.250
   87SLPC  C211 8383   5.638   1.990   3.445
   87SLPC  H11R 8384   5.549   1.949   3.497
   87SLPC  H11S 8385   5.621   2.099   3.432
   87SLPC  C212 8386   5.757   1.974   3.534
   87SLPC  H12R 8387   5.851   1.990   3.480
   87SLPC  C213 8388   5.761   1.922   3.655
   87SLPC  H13R 8389   5.858   1.906   3.705
   87SLPC  C214 8390   5.647   1.882   3.741
   87SLPC  H14R 8391   5.563   1.946   3.705
   87SLPC  H14S 8392   5.676   1.903   3.846
   87SLPC  C215 8393   5.601   1.734   3.719
   87SLPC  H15R 8394   5.551   1.690   3.808
   87SLPC  H15S 8395   5.685   1.668   3.690
   87SLPC  C216 8396   5.500   1.706   3.600
   87SLPC  H16R 8397   5.565   1.724   3.512
   87SLPC  H16S 8398   5.425   1.788   3.601
   87SLPC  C217 8399   5.427   1.575   3.602
   87SLPC  H17R 8400   5.504   1.495   3.609
   87SLPC  H17S 8401   5.377   1.571   3.503
   87SLPC  C218 8402   5.326   1.548   3.716
   87SLPC  H18R 8403   5.276   1.450   3.705
   87SLPC  H18S 8404   5.251   1.629   3.726
   87SLPC  H18T 8405   5.385   1.554   3.810
   87SLPC   C33 8406   4.658   2.054   2.830
   87SLPC   H3X 8407   4.568   2.098   2.879
   87SLPC   H3Y 8408   4.710   2.140   2.783
   87SLPC   C34 8409   4.742   1.990   2.952
   87SLPC   H4X 8410   4.792   2.062   3.020
   87SLPC   H4Y 8411   4.816   1.929   2.896
   87SLPC   C35 8412   4.650   1.905   3.045
   87SLPC   H5X 8413   4.598   1.826   2.987
   87SLPC   H5Y 8414   4.574   1.975   3.086
   87SLPC   C36 8415   4.712   1.841   3.170
   87SLPC   H6X 8416   4.808   1.787   3.156
   87SLPC   H6Y 8417   4.641   1.765   3.208
   87SLPC   C37 8418   4.753   1.935   3.288
   87SLPC   H7X 8419   4.707   2.036   3.283
   87SLPC   H7Y 8420   4.862   1.951   3.272
   87SLPC   C38 8421   4.740   1.886   3.432
   87SLPC   H8X 8422   4.728   1.775   3.433
   87SLPC   H8Y 8423   4.643   1.916   3.475
   87SLPC   C39 8424   4.861   1.922   3.519
   87SLPC   H9X 8425   4.860   2.024   3.563
   87SLPC   H9Y 8426   4.945   1.934   3.447
   87SLPC  C310 8427   4.894   1.806   3.618
   87SLPC  H10X 8428   4.875   1.713   3.560
   87SLPC  H10Y 8429   4.822   1.796   3.702
   87SLPC  C311 8430   5.041   1.823   3.656
   87SLPC  H11X 8431   5.097   1.890   3.587
   87SLPC  H11Y 8432   5.076   1.721   3.630
   87SLPC  C312 8433   5.066   1.869   3.799
   87SLPC  H12X 8434   5.025   1.787   3.861
   87SLPC  H12Y 8435   5.022   1.967   3.826
   87SLPC  C313 8436   5.215   1.896   3.829
   87SLPC  H13X 8437   5.245   1.989   3.776
   87SLPC  H13Y 8438   5.275   1.814   3.785
   87SLPC  C314 8439   5.253   1.899   3.981
   87SLPC  H14X 8440   5.205   1.818   4.041
   87SLPC  H14Y 8441   5.218   1.994   4.028
   87SLPC  C315 8442   5.406   1.875   3.996
   87SLPC  H15X 8443   5.461   1.944   3.928
   87SLPC  H15Y 8444   5.434   1.770   3.971
   87SLPC  C316 8445   5.435   1.892   4.148
   87SLPC  H16X 8446   5.386   1.810   4.204
   87SLPC  H16Y 8447   5.369   1.975   4.182
   87SLPC  C317 8448   5.579   1.903   4.192
   87SLPC  H17X 8449   5.590   1.934   4.299
   87SLPC  H17Y 8450   5.610   1.992   4.134
   87SLPC  C318 8451   5.673   1.791   4.144
   87SLPC  H18X 8452   5.648   1.700   4.202
   87SLPC  H18Y 8453   5.780   1.818   4.158
   87SLPC  H18Z 8454   5.663   1.764   4.037
   88SLPC     N 8455   6.366   0.928   2.233
   88SLPC   C13 8456   6.358   1.007   2.359
   88SLPC  H13A 8457   6.420   1.096   2.356
   88SLPC  H13B 8458   6.260   1.040   2.389
   88SLPC  H13C 8459   6.405   0.956   2.442
   88SLPC   C14 8460   6.278   0.806   2.234
   88SLPC  H14A 8461   6.181   0.831   2.274
   88SLPC  H14B 8462   6.274   0.758   2.138
   88SLPC  H14C 8463   6.318   0.728   2.298
   88SLPC   C15 8464   6.512   0.883   2.218
   88SLPC  H15A 8465   6.589   0.958   2.213
   88SLPC  H15B 8466   6.551   0.817   2.294
   88SLPC  H15C 8467   6.520   0.833   2.123
   88SLPC   C12 8468   6.325   1.012   2.115
   88SLPC  H12A 8469   6.226   1.052   2.131
   88SLPC  H12B 8470   6.330   0.946   2.030
   88SLPC   C11 8471   6.415   1.143   2.075
   88SLPC  H11A 8472   6.370   1.187   1.983
   88SLPC  H11B 8473   6.522   1.114   2.073
   88SLPC     P 8474   6.470   1.384   2.163
   88SLPC   O13 8475   6.447   1.438   2.028
   88SLPC   O14 8476   6.410   1.458   2.278
   88SLPC   O12 8477   6.394   1.239   2.174
   88SLPC   O11 8478   6.626   1.361   2.190
   88SLPC    C1 8479   6.672   1.260   2.278
   88SLPC    HA 8480   6.633   1.166   2.235
   88SLPC    HB 8481   6.781   1.259   2.258
   88SLPC    C2 8482   6.636   1.287   2.430
   88SLPC    HS 8483   6.525   1.278   2.429
   88SLPC   O21 8484   6.681   1.420   2.456
   88SLPC   C21 8485   6.602   1.483   2.556
   88SLPC   O22 8486   6.505   1.432   2.607
   88SLPC   C22 8487   6.686   1.602   2.605
   88SLPC   H2R 8488   6.756   1.637   2.528
   88SLPC   H2S 8489   6.613   1.685   2.617
   88SLPC    C3 8490   6.697   1.178   2.522
   88SLPC    HX 8491   6.807   1.190   2.512
   88SLPC    HY 8492   6.671   1.077   2.483
   88SLPC   O31 8493   6.681   1.193   2.662
   88SLPC   C31 8494   6.555   1.153   2.698
   88SLPC   O32 8495   6.465   1.123   2.619
   88SLPC   C32 8496   6.551   1.132   2.854
   88SLPC   H2X 8497   6.618   1.210   2.896
   88SLPC   H2Y 8498   6.602   1.034   2.864
   88SLPC   C23 8499   6.761   1.576   2.735
   88SLPC   H3R 8500   6.834   1.654   2.763
   88SLPC   H3S 8501   6.815   1.479   2.729
   88SLPC   C24 8502   6.663   1.579   2.853
   88SLPC   H4R 8503   6.577   1.510   2.834
   88SLPC   H4S 8504   6.615   1.678   2.871
   88SLPC   C25 8505   6.722   1.510   2.977
   88SLPC   H5R 8506   6.792   1.429   2.945
   88SLPC   H5S 8507   6.651   1.454   3.042
   88SLPC   C26 8508   6.809   1.600   3.063
   88SLPC   H6R 8509   6.873   1.663   2.998
   88SLPC   H6S 8510   6.878   1.543   3.128
   88SLPC   C27 8511   6.722   1.696   3.149
   88SLPC   H7R 8512   6.656   1.760   3.086
   88SLPC   H7S 8513   6.793   1.764   3.201
   88SLPC   C28 8514   6.635   1.629   3.253
   88SLPC   H8R 8515   6.698   1.572   3.324
   88SLPC   H8S 8516   6.569   1.560   3.197
   88SLPC   C29 8517   6.550   1.736   3.316
   88SLPC   H9R 8518   6.477   1.777   3.245
   88SLPC  C210 8519   6.547   1.769   3.443
   88SLPC  H10R 8520   6.490   1.856   3.478
   88SLPC  C211 8521   6.628   1.698   3.546
   88SLPC  H11R 8522   6.738   1.693   3.528
   88SLPC  H11S 8523   6.607   1.590   3.552
   88SLPC  C212 8524   6.594   1.766   3.679
   88SLPC  H12R 8525   6.494   1.811   3.690
   88SLPC  C213 8526   6.679   1.770   3.786
   88SLPC  H13R 8527   6.637   1.815   3.878
   88SLPC  C214 8528   6.814   1.705   3.795
   88SLPC  H14R 8529   6.829   1.636   3.709
   88SLPC  H14S 8530   6.811   1.645   3.888
   88SLPC  C215 8531   6.927   1.806   3.805
   88SLPC  H15R 8532   6.929   1.860   3.707
   88SLPC  H15S 8533   7.023   1.751   3.812
   88SLPC  C216 8534   6.926   1.911   3.909
   88SLPC  H16R 8535   6.827   1.960   3.917
   88SLPC  H16S 8536   7.008   1.985   3.902
   88SLPC  C217 8537   6.934   1.846   4.052
   88SLPC  H17R 8538   7.022   1.779   4.053
   88SLPC  H17S 8539   6.849   1.785   4.091
   88SLPC  C218 8540   6.954   1.958   4.157
   88SLPC  H18R 8541   6.995   1.905   4.245
   88SLPC  H18S 8542   6.870   2.027   4.181
   88SLPC  H18T 8543   7.048   2.005   4.121
   88SLPC   C33 8544   6.404   1.129   2.912
   88SLPC   H3X 8545   6.402   1.066   3.003
   88SLPC   H3Y 8546   6.338   1.064   2.851
   88SLPC   C34 8547   6.345   1.270   2.917
   88SLPC   H4X 8548   6.329   1.310   2.814
   88SLPC   H4Y 8549   6.425   1.334   2.958
   88SLPC   C35 8550   6.213   1.281   2.996
   88SLPC   H5X 8551   6.161   1.196   2.947
   88SLPC   H5Y 8552   6.170   1.383   2.987
   88SLPC   C36 8553   6.228   1.249   3.146
   88SLPC   H6X 8554   6.269   1.147   3.164
   88SLPC   H6Y 8555   6.133   1.255   3.203
   88SLPC   C37 8556   6.296   1.363   3.221
   88SLPC   H7X 8557   6.241   1.456   3.192
   88SLPC   H7Y 8558   6.402   1.378   3.191
   88SLPC   C38 8559   6.301   1.332   3.372
   88SLPC   H8X 8560   6.336   1.229   3.392
   88SLPC   H8Y 8561   6.196   1.333   3.408
   88SLPC   C39 8562   6.385   1.414   3.472
   88SLPC   H9X 8563   6.363   1.522   3.490
   88SLPC   H9Y 8564   6.492   1.411   3.439
   88SLPC  C310 8565   6.381   1.356   3.612
   88SLPC  H10X 8566   6.432   1.258   3.621
   88SLPC  H10Y 8567   6.275   1.342   3.640
   88SLPC  C311 8568   6.437   1.446   3.721
   88SLPC  H11X 8569   6.376   1.537   3.705
   88SLPC  H11Y 8570   6.545   1.471   3.712
   88SLPC  C312 8571   6.427   1.395   3.864
   88SLPC  H12X 8572   6.463   1.290   3.864
   88SLPC  H12Y 8573   6.319   1.397   3.892
   88SLPC  C313 8574   6.517   1.473   3.962
   88SLPC  H13X 8575   6.512   1.578   3.924
   88SLPC  H13Y 8576   6.620   1.433   3.956
   88SLPC  C314 8577   6.482   1.477   4.114
   88SLPC  H14X 8578   6.504   1.374   4.150
   88SLPC  H14Y 8579   6.371   1.483   4.115
   88SLPC  C315 8580   6.543   1.590   4.203
   88SLPC  H15X 8581   6.543   1.692   4.160
   88SLPC  H15Y 8582   6.649   1.559   4.209
   88SLPC  C316 8583   6.478   1.606   4.335
   88SLPC  H16X 8584   6.498   1.522   4.405
   88SLPC  H16Y 8585   6.372   1.629   4.310
   88SLPC  C317 8586   6.541   1.725   4.406
   88SLPC  H17X 8587   6.527   1.816   4.344
   88SLPC  H17Y 8588   6.650   1.707   4.422
   88SLPC  C318 8589   6.486   1.765   4.540
   88SLPC  H18X 8590   6.471   1.677   4.606
   88SLPC  H18Y 8591   6.386   1.810   4.525
   88SLPC  H18Z 8592   6.553   1.843   4.580
   89SAPE     N 8593   3.105   1.067   6.435
   89SAPE   HN1 8594   3.135   1.103   6.528
   89SAPE   HN2 8595   3.014   1.110   6.413
   89SAPE   HN3 8596   3.089   0.965   6.443
   89SAPE   C12 8597   3.218   1.070   6.330
   89SAPE  H12A 8598   3.178   1.018   6.240
   89SAPE  H12B 8599   3.301   1.011   6.373
   89SAPE   C11 8600   3.273   1.205   6.289
   89SAPE  H11A 8601   3.196   1.260   6.231
   89SAPE  H11B 8602   3.357   1.191   6.217
   89SAPE     P 8603   3.323   1.445   6.395
   89SAPE   O13 8604   3.189   1.507   6.394
   89SAPE   O14 8605   3.417   1.490   6.499
   89SAPE   O12 8606   3.309   1.285   6.405
   89SAPE   O11 8607   3.389   1.478   6.260
   89SAPE    C1 8608   3.386   1.614   6.212
   89SAPE    HA 8609   3.287   1.662   6.229
   89SAPE    HB 8610   3.462   1.682   6.255
   89SAPE    C2 8611   3.421   1.624   6.059
   89SAPE    HS 8612   3.463   1.726   6.058
   89SAPE   O21 8613   3.305   1.587   5.984
   89SAPE   C21 8614   3.225   1.680   5.947
   89SAPE   O22 8615   3.220   1.791   5.994
   89SAPE   C22 8616   3.129   1.620   5.844
   89SAPE   H2R 8617   3.186   1.586   5.755
   89SAPE   H2S 8618   3.076   1.534   5.890
   89SAPE    C3 8619   3.535   1.525   6.018
   89SAPE    HX 8620   3.496   1.423   6.038
   89SAPE    HY 8621   3.622   1.538   6.087
   89SAPE   O31 8622   3.578   1.535   5.882
   89SAPE   C31 8623   3.597   1.658   5.837
   89SAPE   O32 8624   3.609   1.762   5.902
   89SAPE   C32 8625   3.605   1.637   5.681
   89SAPE   H2X 8626   3.527   1.559   5.669
   89SAPE   H2Y 8627   3.704   1.596   5.650
   89SAPE   C23 8628   3.028   1.722   5.787
   89SAPE   H3R 8629   2.983   1.769   5.877
   89SAPE   H3S 8630   2.952   1.671   5.725
   89SAPE   C24 8631   3.099   1.830   5.702
   89SAPE   H4R 8632   3.186   1.871   5.757
   89SAPE   H4S 8633   3.020   1.906   5.679
   89SAPE   C25 8634   3.157   1.775   5.567
   89SAPE   H5R 8635   3.256   1.729   5.559
   89SAPE   C26 8636   3.075   1.753   5.460
   89SAPE   H6R 8637   3.117   1.716   5.365
   89SAPE   C27 8638   2.932   1.799   5.436
   89SAPE   H7R 8639   2.920   1.855   5.341
   89SAPE   H7S 8640   2.900   1.866   5.519
   89SAPE   C28 8641   2.848   1.677   5.424
   89SAPE   H8R 8642   2.791   1.649   5.514
   89SAPE   C29 8643   2.828   1.594   5.315
   89SAPE   H9R 8644   2.762   1.508   5.328
   89SAPE  C210 8645   2.872   1.617   5.173
   89SAPE  H10R 8646   2.961   1.552   5.160
   89SAPE  H10S 8647   2.913   1.719   5.162
   89SAPE  C211 8648   2.762   1.600   5.073
   89SAPE  H11R 8649   2.660   1.589   5.110
   89SAPE  C212 8650   2.785   1.619   4.942
   89SAPE  H12R 8651   2.701   1.636   4.873
   89SAPE  C213 8652   2.925   1.649   4.884
   89SAPE  H13R 8653   2.981   1.553   4.889
   89SAPE  H13S 8654   2.987   1.722   4.940
   89SAPE  C214 8655   2.931   1.693   4.734
   89SAPE  H14R 8656   2.985   1.786   4.709
   89SAPE  C215 8657   2.902   1.619   4.623
   89SAPE  H15R 8658   2.895   1.675   4.528
   89SAPE  C216 8659   2.840   1.482   4.627
   89SAPE  H16R 8660   2.795   1.464   4.726
   89SAPE  H16S 8661   2.916   1.402   4.614
   89SAPE  C217 8662   2.732   1.468   4.517
   89SAPE  H17R 8663   2.663   1.556   4.515
   89SAPE  H17S 8664   2.669   1.382   4.548
   89SAPE  C218 8665   2.776   1.453   4.367
   89SAPE  H18R 8666   2.849   1.371   4.350
   89SAPE  H18S 8667   2.820   1.554   4.350
   89SAPE  C219 8668   2.646   1.431   4.285
   89SAPE  H19R 8669   2.585   1.522   4.304
   89SAPE  H19S 8670   2.599   1.339   4.326
   89SAPE  C220 8671   2.682   1.412   4.138
   89SAPE  H20R 8672   2.704   1.509   4.088
   89SAPE  H20S 8673   2.596   1.365   4.086
   89SAPE  H20T 8674   2.772   1.349   4.121
   89SAPE   C33 8675   3.560   1.751   5.596
   89SAPE   H3X 8676   3.627   1.838   5.616
   89SAPE   H3Y 8677   3.453   1.772   5.620
   89SAPE   C34 8678   3.552   1.712   5.444
   89SAPE   H4X 8679   3.498   1.615   5.451
   89SAPE   H4Y 8680   3.655   1.696   5.404
   89SAPE   C35 8681   3.483   1.814   5.346
   89SAPE   H5X 8682   3.552   1.901   5.339
   89SAPE   H5Y 8683   3.384   1.838   5.391
   89SAPE   C36 8684   3.462   1.764   5.211
   89SAPE   H6X 8685   3.411   1.666   5.204
   89SAPE   H6Y 8686   3.556   1.732   5.161
   89SAPE   C37 8687   3.394   1.857   5.111
   89SAPE   H7X 8688   3.475   1.930   5.087
   89SAPE   H7Y 8689   3.303   1.906   5.151
   89SAPE   C38 8690   3.364   1.781   4.975
   89SAPE   H8X 8691   3.267   1.729   4.990
   89SAPE   H8Y 8692   3.445   1.708   4.955
   89SAPE   C39 8693   3.340   1.877   4.860
   89SAPE   H9X 8694   3.427   1.929   4.815
   89SAPE   H9Y 8695   3.277   1.958   4.903
   89SAPE  C310 8696   3.270   1.811   4.741
   89SAPE  H10X 8697   3.187   1.744   4.768
   89SAPE  H10Y 8698   3.337   1.738   4.690
   89SAPE  C311 8699   3.218   1.917   4.643
   89SAPE  H11X 8700   3.291   2.001   4.645
   89SAPE  H11Y 8701   3.129   1.968   4.684
   89SAPE  C312 8702   3.196   1.852   4.505
   89SAPE  H12X 8703   3.118   1.906   4.446
   89SAPE  H12Y 8704   3.163   1.746   4.498
   89SAPE  C313 8705   3.324   1.862   4.430
   89SAPE  H13X 8706   3.404   1.815   4.491
   89SAPE  H13Y 8707   3.343   1.971   4.424
   89SAPE  C314 8708   3.326   1.790   4.292
   89SAPE  H14X 8709   3.223   1.796   4.252
   89SAPE  H14Y 8710   3.345   1.681   4.306
   89SAPE  C315 8711   3.441   1.842   4.205
   89SAPE  H15X 8712   3.538   1.813   4.249
   89SAPE  H15Y 8713   3.431   1.952   4.194
   89SAPE  C316 8714   3.421   1.765   4.066
   89SAPE  H16X 8715   3.320   1.741   4.027
   89SAPE  H16Y 8716   3.463   1.668   4.100
   89SAPE  C317 8717   3.505   1.824   3.954
   89SAPE  H17X 8718   3.607   1.846   3.990
   89SAPE  H17Y 8719   3.457   1.923   3.936
   89SAPE  C318 8720   3.502   1.733   3.824
   89SAPE  H18X 8721   3.562   1.773   3.739
   89SAPE  H18Y 8722   3.401   1.733   3.777
   89SAPE  H18Z 8723   3.519   1.625   3.846
   90SAPE     N 8724   6.379   1.416   6.614
   90SAPE   HN1 8725   6.449   1.388   6.543
   90SAPE   HN2 8726   6.414   1.482   6.686
   90SAPE   HN3 8727   6.356   1.332   6.670
   90SAPE   C12 8728   6.250   1.469   6.546
   90SAPE  H12A 8729   6.272   1.562   6.489
   90SAPE  H12B 8730   6.183   1.489   6.632
   90SAPE   C11 8731   6.196   1.356   6.453
   90SAPE  H11A 8732   6.266   1.350   6.367
   90SAPE  H11B 8733   6.092   1.381   6.425
   90SAPE     P 8734   6.050   1.189   6.613
   90SAPE   O13 8735   6.053   1.040   6.624
   90SAPE   O14 8736   6.052   1.273   6.735
   90SAPE   O12 8737   6.175   1.226   6.516
   90SAPE   O11 8738   5.927   1.232   6.528
   90SAPE    C1 8739   5.907   1.182   6.396
   90SAPE    HA 8740   5.992   1.212   6.331
   90SAPE    HB 8741   5.910   1.071   6.395
   90SAPE    C2 8742   5.772   1.234   6.331
   90SAPE    HS 8743   5.685   1.211   6.396
   90SAPE   O21 8744   5.748   1.183   6.194
   90SAPE   C21 8745   5.671   1.074   6.203
   90SAPE   O22 8746   5.627   1.020   6.306
   90SAPE   C22 8747   5.653   1.022   6.059
   90SAPE   H2R 8748   5.640   1.113   5.995
   90SAPE   H2S 8749   5.752   0.986   6.024
   90SAPE    C3 8750   5.777   1.390   6.308
   90SAPE    HX 8751   5.800   1.417   6.413
   90SAPE    HY 8752   5.675   1.410   6.270
   90SAPE   O31 8753   5.882   1.437   6.224
   90SAPE   C31 8754   5.834   1.477   6.107
   90SAPE   O32 8755   5.720   1.480   6.070
   90SAPE   C32 8756   5.950   1.521   6.018
   90SAPE   H2X 8757   6.020   1.435   6.028
   90SAPE   H2Y 8758   5.984   1.611   6.074
   90SAPE   C23 8759   5.540   0.915   6.044
   90SAPE   H3R 8760   5.448   0.956   6.092
   90SAPE   H3S 8761   5.574   0.825   6.100
   90SAPE   C24 8762   5.500   0.887   5.902
   90SAPE   H4R 8763   5.595   0.858   5.851
   90SAPE   H4S 8764   5.469   0.980   5.851
   90SAPE   C25 8765   5.392   0.779   5.892
   90SAPE   H5R 8766   5.380   0.733   5.991
   90SAPE   C26 8767   5.307   0.749   5.791
   90SAPE   H6R 8768   5.240   0.664   5.812
   90SAPE   C27 8769   5.316   0.804   5.650
   90SAPE   H7R 8770   5.410   0.863   5.640
   90SAPE   H7S 8771   5.234   0.877   5.630
   90SAPE   C28 8772   5.327   0.700   5.536
   90SAPE   H8R 8773   5.434   0.699   5.510
   90SAPE   C29 8774   5.236   0.632   5.468
   90SAPE   H9R 8775   5.268   0.555   5.396
   90SAPE  C210 8776   5.088   0.625   5.496
   90SAPE  H10R 8777   5.066   0.649   5.602
   90SAPE  H10S 8778   5.052   0.523   5.474
   90SAPE  C211 8779   5.019   0.729   5.410
   90SAPE  H11R 8780   5.062   0.830   5.406
   90SAPE  C212 8781   4.930   0.686   5.313
   90SAPE  H12R 8782   4.888   0.773   5.260
   90SAPE  C213 8783   4.882   0.548   5.286
   90SAPE  H13R 8784   4.822   0.515   5.374
   90SAPE  H13S 8785   4.968   0.479   5.274
   90SAPE  C214 8786   4.802   0.556   5.160
   90SAPE  H14R 8787   4.694   0.569   5.180
   90SAPE  C215 8788   4.845   0.531   5.036
   90SAPE  H15R 8789   4.771   0.528   4.955
   90SAPE  C216 8790   4.988   0.502   4.995
   90SAPE  H16R 8791   5.070   0.517   5.069
   90SAPE  H16S 8792   5.017   0.565   4.908
   90SAPE  C217 8793   5.006   0.349   4.954
   90SAPE  H17R 8794   4.960   0.276   5.024
   90SAPE  H17S 8795   5.116   0.333   4.962
   90SAPE  C218 8796   4.948   0.319   4.812
   90SAPE  H18R 8797   4.952   0.403   4.738
   90SAPE  H18S 8798   4.841   0.299   4.832
   90SAPE  C219 8799   5.012   0.192   4.748
   90SAPE  H19R 8800   5.121   0.204   4.729
   90SAPE  H19S 8801   4.961   0.173   4.652
   90SAPE  C220 8802   4.990   0.061   4.817
   90SAPE  H20R 8803   5.010   0.074   4.925
   90SAPE  H20S 8804   5.051  -0.019   4.770
   90SAPE  H20T 8805   4.882   0.036   4.811
   90SAPE   C33 8806   5.911   1.540   5.873
   90SAPE   H3X 8807   5.836   1.620   5.854
   90SAPE   H3Y 8808   5.867   1.444   5.841
   90SAPE   C34 8809   6.032   1.565   5.777
   90SAPE   H4X 8810   6.122   1.588   5.838
   90SAPE   H4Y 8811   6.023   1.665   5.729
   90SAPE   C35 8812   6.052   1.460   5.669
   90SAPE   H5X 8813   6.050   1.356   5.710
   90SAPE   H5Y 8814   6.152   1.481   5.626
   90SAPE   C36 8815   5.938   1.479   5.558
   90SAPE   H6X 8816   5.906   1.585   5.544
   90SAPE   H6Y 8817   5.849   1.427   5.598
   90SAPE   C37 8818   5.958   1.402   5.428
   90SAPE   H7X 8819   6.000   1.300   5.442
   90SAPE   H7Y 8820   6.042   1.456   5.379
   90SAPE   C38 8821   5.828   1.377   5.359
   90SAPE   H8X 8822   5.774   1.473   5.343
   90SAPE   H8Y 8823   5.759   1.318   5.424
   90SAPE   C39 8824   5.843   1.302   5.225
   90SAPE   H9X 8825   5.743   1.260   5.201
   90SAPE   H9Y 8826   5.918   1.222   5.239
   90SAPE  C310 8827   5.894   1.401   5.115
   90SAPE  H10X 8828   5.983   1.458   5.149
   90SAPE  H10Y 8829   5.813   1.470   5.082
   90SAPE  C311 8830   5.930   1.342   4.974
   90SAPE  H11X 8831   6.020   1.278   4.984
   90SAPE  H11Y 8832   5.961   1.434   4.921
   90SAPE  C312 8833   5.825   1.259   4.899
   90SAPE  H12X 8834   5.741   1.329   4.877
   90SAPE  H12Y 8835   5.787   1.177   4.964
   90SAPE  C313 8836   5.864   1.200   4.757
   90SAPE  H13X 8837   5.941   1.120   4.763
   90SAPE  H13Y 8838   5.915   1.274   4.691
   90SAPE  C314 8839   5.743   1.145   4.678
   90SAPE  H14X 8840   5.668   1.226   4.665
   90SAPE  H14Y 8841   5.696   1.069   4.743
   90SAPE  C315 8842   5.767   1.089   4.533
   90SAPE  H15X 8843   5.827   1.161   4.473
   90SAPE  H15Y 8844   5.667   1.089   4.484
   90SAPE  C316 8845   5.838   0.955   4.518
   90SAPE  H16X 8846   5.929   0.958   4.583
   90SAPE  H16Y 8847   5.872   0.930   4.415
   90SAPE  C317 8848   5.747   0.840   4.567
   90SAPE  H17X 8849   5.651   0.851   4.511
   90SAPE  H17Y 8850   5.719   0.854   4.673
   90SAPE  C318 8851   5.811   0.705   4.572
   90SAPE  H18X 8852   5.810   0.657   4.472
   90SAPE  H18Y 8853   5.751   0.643   4.642
   90SAPE  H18Z 8854   5.914   0.714   4.613
   91SAPE     N 8855   3.778   2.819   6.641
   91SAPE   HN1 8856   3.690   2.828   6.696
   91SAPE   HN2 8857   3.844   2.754   6.688
   91SAPE   HN3 8858   3.819   2.914   6.632
   91SAPE   C12 8859   3.723   2.785   6.505
   91SAPE  H12A 8860   3.678   2.684   6.515
   91SAPE  H12B 8861   3.812   2.765   6.441
   91SAPE   C11 8862   3.628   2.884   6.452
   91SAPE  H11A 8863   3.608   2.857   6.346
   91SAPE  H11B 8864   3.670   2.987   6.457
   91SAPE     P 8865   3.391   2.782   6.532
   91SAPE   O13 8866   3.421   2.639   6.545
   91SAPE   O14 8867   3.291   2.831   6.629
   91SAPE   O12 8868   3.514   2.873   6.543
   91SAPE   O11 8869   3.324   2.811   6.396
   91SAPE    C1 8870   3.293   2.933   6.343
   91SAPE    HA 8871   3.237   2.996   6.416
   91SAPE    HB 8872   3.384   2.990   6.313
   91SAPE    C2 8873   3.208   2.913   6.212
   91SAPE    HS 8874   3.277   2.868   6.137
   91SAPE   O21 8875   3.154   3.041   6.176
   91SAPE   C21 8876   3.141   3.064   6.049
   91SAPE   O22 8877   3.163   2.989   5.956
   91SAPE   C22 8878   3.076   3.210   6.033
   91SAPE   H2R 8879   3.038   3.239   6.134
   91SAPE   H2S 8880   3.147   3.279   5.983
   91SAPE    C3 8881   3.086   2.823   6.236
   91SAPE    HX 8882   3.034   2.878   6.317
   91SAPE    HY 8883   3.118   2.729   6.285
   91SAPE   O31 8884   3.004   2.813   6.114
   91SAPE   C31 8885   3.032   2.709   6.034
   91SAPE   O32 8886   3.108   2.619   6.057
   91SAPE   C32 8887   2.948   2.732   5.903
   91SAPE   H2X 8888   2.984   2.832   5.873
   91SAPE   H2Y 8889   2.840   2.732   5.932
   91SAPE   C23 8890   2.957   3.192   5.937
   91SAPE   H3R 8891   2.876   3.268   5.944
   91SAPE   H3S 8892   2.913   3.095   5.967
   91SAPE   C24 8893   2.994   3.185   5.785
   91SAPE   H4R 8894   3.103   3.163   5.773
   91SAPE   H4S 8895   2.971   3.284   5.742
   91SAPE   C25 8896   2.913   3.081   5.717
   91SAPE   H5R 8897   2.850   3.022   5.785
   91SAPE   C26 8898   2.876   3.084   5.590
   91SAPE   H6R 8899   2.821   2.995   5.554
   91SAPE   C27 8900   2.913   3.187   5.487
   91SAPE   H7R 8901   2.917   3.295   5.514
   91SAPE   H7S 8902   2.843   3.174   5.402
   91SAPE   C28 8903   3.063   3.176   5.446
   91SAPE   H8R 8904   3.133   3.177   5.531
   91SAPE   C29 8905   3.114   3.184   5.320
   91SAPE   H9R 8906   3.219   3.161   5.299
   91SAPE  C210 8907   3.029   3.191   5.190
   91SAPE  H10R 8908   3.059   3.281   5.132
   91SAPE  H10S 8909   2.921   3.198   5.216
   91SAPE  C211 8910   3.037   3.068   5.101
   91SAPE  H11R 8911   3.054   2.975   5.157
   91SAPE  C212 8912   3.013   3.055   4.972
   91SAPE  H12R 8913   3.015   2.952   4.932
   91SAPE  C213 8914   2.971   3.156   4.874
   91SAPE  H13R 8915   2.914   3.241   4.918
   91SAPE  H13S 8916   2.897   3.112   4.804
   91SAPE  C214 8917   3.085   3.228   4.802
   91SAPE  H14R 8918   3.174   3.245   4.864
   91SAPE  C215 8919   3.070   3.300   4.694
   91SAPE  H15R 8920   3.161   3.329   4.639
   91SAPE  C216 8921   2.948   3.309   4.602
   91SAPE  H16R 8922   2.853   3.274   4.648
   91SAPE  H16S 8923   2.958   3.232   4.522
   91SAPE  C217 8924   2.930   3.446   4.535
   91SAPE  H17R 8925   3.020   3.465   4.473
   91SAPE  H17S 8926   2.918   3.524   4.614
   91SAPE  C218 8927   2.811   3.469   4.449
   91SAPE  H18R 8928   2.719   3.435   4.502
   91SAPE  H18S 8929   2.816   3.417   4.351
   91SAPE  C219 8930   2.789   3.617   4.418
   91SAPE  H19R 8931   2.730   3.627   4.324
   91SAPE  H19S 8932   2.884   3.660   4.379
   91SAPE  C220 8933   2.728   3.706   4.530
   91SAPE  H20R 8934   2.740   3.817   4.527
   91SAPE  H20S 8935   2.786   3.684   4.622
   91SAPE  H20T 8936   2.623   3.670   4.538
   91SAPE   C33 8937   3.000   2.637   5.787
   91SAPE   H3X 8938   2.986   2.529   5.812
   91SAPE   H3Y 8939   3.109   2.652   5.774
   91SAPE   C34 8940   2.929   2.677   5.658
   91SAPE   H4X 8941   2.950   2.785   5.644
   91SAPE   H4Y 8942   2.819   2.668   5.671
   91SAPE   C35 8943   2.981   2.601   5.540
   91SAPE   H5X 8944   2.991   2.492   5.557
   91SAPE   H5Y 8945   3.072   2.646   5.495
   91SAPE   C36 8946   2.883   2.614   5.429
   91SAPE   H6X 8947   2.863   2.721   5.409
   91SAPE   H6Y 8948   2.778   2.583   5.449
   91SAPE   C37 8949   2.930   2.549   5.300
   91SAPE   H7X 8950   2.851   2.476   5.271
   91SAPE   H7Y 8951   3.029   2.502   5.316
   91SAPE   C38 8952   2.954   2.646   5.187
   91SAPE   H8X 8953   3.042   2.712   5.202
   91SAPE   H8Y 8954   2.863   2.710   5.186
   91SAPE   C39 8955   2.972   2.581   5.051
   91SAPE   H9X 8956   2.868   2.553   5.024
   91SAPE   H9Y 8957   3.042   2.496   5.066
   91SAPE  C310 8958   3.005   2.672   4.940
   91SAPE  H10X 8959   3.102   2.724   4.953
   91SAPE  H10Y 8960   2.920   2.744   4.937
   91SAPE  C311 8961   3.015   2.597   4.805
   91SAPE  H11X 8962   2.909   2.567   4.789
   91SAPE  H11Y 8963   3.069   2.502   4.821
   91SAPE  C312 8964   3.062   2.678   4.681
   91SAPE  H12X 8965   3.079   2.608   4.596
   91SAPE  H12Y 8966   3.165   2.716   4.698
   91SAPE  C313 8967   2.971   2.796   4.638
   91SAPE  H13X 8968   2.946   2.882   4.705
   91SAPE  H13Y 8969   2.874   2.748   4.613
   91SAPE  C314 8970   3.017   2.851   4.500
   91SAPE  H14X 8971   3.051   2.773   4.428
   91SAPE  H14Y 8972   3.101   2.922   4.517
   91SAPE  C315 8973   2.902   2.935   4.426
   91SAPE  H15X 8974   2.933   3.038   4.399
   91SAPE  H15Y 8975   2.835   2.951   4.513
   91SAPE  C316 8976   2.840   2.863   4.306
   91SAPE  H16X 8977   2.789   2.769   4.335
   91SAPE  H16Y 8978   2.911   2.824   4.229
   91SAPE  C317 8979   2.742   2.954   4.228
   91SAPE  H17X 8980   2.809   3.033   4.187
   91SAPE  H17Y 8981   2.659   3.000   4.286
   91SAPE  C318 8982   2.663   2.881   4.121
   91SAPE  H18X 8983   2.586   2.945   4.072
   91SAPE  H18Y 8984   2.601   2.795   4.154
   91SAPE  H18Z 8985   2.723   2.837   4.038
   92SAPE     N 8986   3.301   3.072   6.760
   92SAPE   HN1 8987   3.286   2.992   6.695
   92SAPE   HN2 8988   3.295   3.037   6.857
   92SAPE   HN3 8989   3.220   3.137   6.747
   92SAPE   C12 8990   3.429   3.147   6.724
   92SAPE  H12A 8991   3.512   3.073   6.723
   92SAPE  H12B 8992   3.442   3.228   6.799
   92SAPE   C11 8993   3.418   3.205   6.583
   92SAPE  H11A 8994   3.400   3.123   6.511
   92SAPE  H11B 8995   3.508   3.268   6.574
   92SAPE     P 8996   3.322   3.440   6.536
   92SAPE   O13 8997   3.191   3.494   6.490
   92SAPE   O14 8998   3.388   3.506   6.646
   92SAPE   O12 8999   3.300   3.283   6.571
   92SAPE   O11 9000   3.425   3.443   6.412
   92SAPE    C1 9001   3.366   3.378   6.295
   92SAPE    HA 9002   3.351   3.268   6.304
   92SAPE    HB 9003   3.268   3.416   6.260
   92SAPE    C2 9004   3.460   3.404   6.167
   92SAPE    HS 9005   3.485   3.512   6.172
   92SAPE   O21 9006   3.386   3.366   6.048
   92SAPE   C21 9007   3.427   3.403   5.929
   92SAPE   O22 9008   3.509   3.493   5.909
   92SAPE   C22 9009   3.366   3.318   5.825
   92SAPE   H2R 9010   3.324   3.219   5.852
   92SAPE   H2S 9011   3.270   3.365   5.795
   92SAPE    C3 9012   3.598   3.331   6.184
   92SAPE    HX 9013   3.630   3.326   6.290
   92SAPE    HY 9014   3.673   3.393   6.131
   92SAPE   O31 9015   3.588   3.207   6.116
   92SAPE   C31 9016   3.702   3.142   6.117
   92SAPE   O32 9017   3.808   3.186   6.161
   92SAPE   C32 9018   3.692   3.007   6.056
   92SAPE   H2X 9019   3.599   2.994   5.997
   92SAPE   H2Y 9020   3.689   2.935   6.141
   92SAPE   C23 9021   3.458   3.279   5.699
   92SAPE   H3R 9022   3.408   3.205   5.633
   92SAPE   H3S 9023   3.555   3.234   5.728
   92SAPE   C24 9024   3.488   3.404   5.613
   92SAPE   H4R 9025   3.548   3.472   5.678
   92SAPE   H4S 9026   3.390   3.454   5.597
   92SAPE   C25 9027   3.564   3.374   5.485
   92SAPE   H5R 9028   3.632   3.287   5.491
   92SAPE   C26 9029   3.542   3.440   5.365
   92SAPE   H6R 9030   3.594   3.411   5.272
   92SAPE   C27 9031   3.449   3.559   5.345
   92SAPE   H7R 9032   3.488   3.631   5.270
   92SAPE   H7S 9033   3.450   3.625   5.435
   92SAPE   C28 9034   3.308   3.529   5.306
   92SAPE   H8R 9035   3.249   3.481   5.386
   92SAPE   C29 9036   3.249   3.553   5.187
   92SAPE   H9R 9037   3.141   3.533   5.173
   92SAPE  C210 9038   3.313   3.607   5.065
   92SAPE  H10R 9039   3.271   3.556   4.976
   92SAPE  H10S 9040   3.423   3.605   5.047
   92SAPE  C211 9041   3.285   3.756   5.055
   92SAPE  H11R 9042   3.334   3.824   5.126
   92SAPE  C212 9043   3.206   3.813   4.959
   92SAPE  H12R 9044   3.206   3.921   4.940
   92SAPE  C213 9045   3.135   3.740   4.844
   92SAPE  H13R 9046   3.040   3.695   4.880
   92SAPE  H13S 9047   3.192   3.651   4.809
   92SAPE  C214 9048   3.096   3.829   4.727
   92SAPE  H14R 9049   2.993   3.868   4.722
   92SAPE  C215 9050   3.180   3.880   4.635
   92SAPE  H15R 9051   3.142   3.938   4.550
   92SAPE  C216 9052   3.329   3.850   4.633
   92SAPE  H16R 9053   3.359   3.815   4.734
   92SAPE  H16S 9054   3.379   3.949   4.627
   92SAPE  C217 9055   3.393   3.762   4.522
   92SAPE  H17R 9056   3.502   3.783   4.518
   92SAPE  H17S 9057   3.343   3.786   4.426
   92SAPE  C218 9058   3.361   3.616   4.557
   92SAPE  H18R 9059   3.250   3.609   4.559
   92SAPE  H18S 9060   3.399   3.608   4.661
   92SAPE  C219 9061   3.419   3.518   4.459
   92SAPE  H19R 9062   3.387   3.553   4.359
   92SAPE  H19S 9063   3.368   3.420   4.465
   92SAPE  C220 9064   3.566   3.489   4.449
   92SAPE  H20R 9065   3.617   3.578   4.406
   92SAPE  H20S 9066   3.577   3.412   4.370
   92SAPE  H20T 9067   3.600   3.453   4.549
   92SAPE   C33 9068   3.807   2.983   5.957
   92SAPE   H3X 9069   3.812   2.872   5.949
   92SAPE   H3Y 9070   3.905   3.022   5.991
   92SAPE   C34 9071   3.780   3.037   5.815
   92SAPE   H4X 9072   3.771   3.147   5.822
   92SAPE   H4Y 9073   3.678   3.013   5.778
   92SAPE   C35 9074   3.881   2.990   5.712
   92SAPE   H5X 9075   3.852   2.884   5.692
   92SAPE   H5Y 9076   3.981   3.006   5.758
   92SAPE   C36 9077   3.876   3.081   5.586
   92SAPE   H6X 9078   3.895   3.184   5.625
   92SAPE   H6Y 9079   3.773   3.086   5.547
   92SAPE   C37 9080   3.973   3.036   5.475
   92SAPE   H7X 9081   3.911   2.954   5.432
   92SAPE   H7Y 9082   4.071   3.005   5.518
   92SAPE   C38 9083   4.010   3.147   5.369
   92SAPE   H8X 9084   4.075   3.223   5.416
   92SAPE   H8Y 9085   3.920   3.203   5.336
   92SAPE   C39 9086   4.072   3.084   5.239
   92SAPE   H9X 9087   4.132   2.998   5.276
   92SAPE   H9Y 9088   4.136   3.164   5.197
   92SAPE  C310 9089   3.952   3.041   5.151
   92SAPE  H10X 9090   3.884   3.129   5.147
   92SAPE  H10Y 9091   3.894   2.960   5.201
   92SAPE  C311 9092   3.994   2.992   5.010
   92SAPE  H11X 9093   4.066   2.907   5.016
   92SAPE  H11Y 9094   4.051   3.074   4.961
   92SAPE  C312 9095   3.876   2.957   4.915
   92SAPE  H12X 9096   3.799   3.038   4.911
   92SAPE  H12Y 9097   3.826   2.864   4.949
   92SAPE  C313 9098   3.913   2.932   4.766
   92SAPE  H13X 9099   3.976   2.841   4.764
   92SAPE  H13Y 9100   3.977   3.015   4.729
   92SAPE  C314 9101   3.796   2.918   4.668
   92SAPE  H14X 9102   3.749   3.018   4.672
   92SAPE  H14Y 9103   3.715   2.844   4.687
   92SAPE  C315 9104   3.819   2.912   4.522
   92SAPE  H15X 9105   3.906   2.971   4.485
   92SAPE  H15Y 9106   3.730   2.951   4.470
   92SAPE  C316 9107   3.854   2.767   4.488
   92SAPE  H16X 9108   3.778   2.700   4.532
   92SAPE  H16Y 9109   3.958   2.744   4.520
   92SAPE  C317 9110   3.850   2.752   4.333
   92SAPE  H17X 9111   3.925   2.821   4.289
   92SAPE  H17Y 9112   3.745   2.780   4.307
   92SAPE  C318 9113   3.889   2.612   4.295
   92SAPE  H18X 9114   3.895   2.600   4.185
   92SAPE  H18Y 9115   3.811   2.545   4.337
   92SAPE  H18Z 9116   3.986   2.584   4.343
   93SAPE     N 9117   0.174   1.631   6.847
   93SAPE   HN1 9118   0.266   1.664   6.881
   93SAPE   HN2 9119   0.187   1.570   6.763
   93SAPE   HN3 9120   0.130   1.723   6.828
   93SAPE   C12 9121   0.102   1.548   6.949
   93SAPE  H12A 9122   0.097   1.612   7.040
   93SAPE  H12B 9123   0.156   1.453   6.972
   93SAPE   C11 9124  -0.041   1.516   6.898
   93SAPE  H11A 9125  -0.085   1.442   6.967
   93SAPE  H11B 9126  -0.048   1.466   6.799
   93SAPE     P 9127  -0.232   1.678   6.814
   93SAPE   O13 9128  -0.326   1.561   6.809
   93SAPE   O14 9129  -0.282   1.811   6.849
   93SAPE   O12 9130  -0.114   1.641   6.916
   93SAPE   O11 9131  -0.170   1.688   6.670
   93SAPE    C1 9132  -0.071   1.783   6.618
   93SAPE    HA 9133  -0.033   1.850   6.698
   93SAPE    HB 9134   0.016   1.730   6.573
   93SAPE    C2 9135  -0.137   1.876   6.504
   93SAPE    HS 9136  -0.234   1.908   6.549
   93SAPE   O21 9137  -0.156   1.789   6.396
   93SAPE   C21 9138  -0.273   1.759   6.360
   93SAPE   O22 9139  -0.377   1.805   6.406
   93SAPE   C22 9140  -0.256   1.647   6.265
   93SAPE   H2R 9141  -0.167   1.654   6.199
   93SAPE   H2S 9142  -0.230   1.557   6.325
   93SAPE    C3 9143  -0.049   1.998   6.465
   93SAPE    HX 9144   0.048   1.952   6.434
   93SAPE    HY 9145  -0.021   2.055   6.557
   93SAPE   O31 9146  -0.102   2.078   6.357
   93SAPE   C31 9147  -0.153   2.193   6.391
   93SAPE   O32 9148  -0.158   2.244   6.498
   93SAPE   C32 9149  -0.219   2.262   6.266
   93SAPE   H2X 9150  -0.251   2.362   6.302
   93SAPE   H2Y 9151  -0.311   2.201   6.251
   93SAPE   C23 9152  -0.375   1.609   6.178
   93SAPE   H3R 9153  -0.387   1.693   6.106
   93SAPE   H3S 9154  -0.475   1.613   6.227
   93SAPE   C24 9155  -0.356   1.485   6.086
   93SAPE   H4R 9156  -0.319   1.393   6.136
   93SAPE   H4S 9157  -0.267   1.487   6.019
   93SAPE   C25 9158  -0.476   1.442   6.005
   93SAPE   H5R 9159  -0.564   1.507   6.016
   93SAPE   C26 9160  -0.483   1.348   5.909
   93SAPE   H6R 9161  -0.573   1.352   5.847
   93SAPE   C27 9162  -0.370   1.256   5.857
   93SAPE   H7R 9163  -0.313   1.216   5.943
   93SAPE   H7S 9164  -0.290   1.310   5.801
   93SAPE   C28 9165  -0.412   1.135   5.779
   93SAPE   H8R 9166  -0.421   1.043   5.839
   93SAPE   C29 9167  -0.414   1.126   5.645
   93SAPE   H9R 9168  -0.447   1.032   5.599
   93SAPE  C210 9169  -0.390   1.229   5.541
   93SAPE  H10R 9170  -0.284   1.224   5.511
   93SAPE  H10S 9171  -0.400   1.329   5.589
   93SAPE  C211 9172  -0.476   1.233   5.417
   93SAPE  H11R 9173  -0.579   1.262   5.445
   93SAPE  C212 9174  -0.467   1.158   5.304
   93SAPE  H12R 9175  -0.546   1.151   5.228
   93SAPE  C213 9176  -0.363   1.052   5.270
   93SAPE  H13R 9177  -0.420   0.957   5.278
   93SAPE  H13S 9178  -0.288   1.061   5.352
   93SAPE  C214 9179  -0.285   1.054   5.139
   93SAPE  H14R 9180  -0.192   1.112   5.145
   93SAPE  C215 9181  -0.317   1.014   5.018
   93SAPE  H15R 9182  -0.241   1.031   4.941
   93SAPE  C216 9183  -0.447   0.941   4.975
   93SAPE  H16R 9184  -0.519   0.941   5.059
   93SAPE  H16S 9185  -0.448   0.834   4.945
   93SAPE  C217 9186  -0.524   1.018   4.860
   93SAPE  H17R 9187  -0.541   1.123   4.895
   93SAPE  H17S 9188  -0.616   0.960   4.840
   93SAPE  C218 9189  -0.445   1.013   4.733
   93SAPE  H18R 9190  -0.338   0.989   4.749
   93SAPE  H18S 9191  -0.461   1.111   4.684
   93SAPE  C219 9192  -0.473   0.892   4.635
   93SAPE  H19R 9193  -0.581   0.888   4.613
   93SAPE  H19S 9194  -0.449   0.808   4.705
   93SAPE  C220 9195  -0.398   0.880   4.502
   93SAPE  H20R 9196  -0.288   0.894   4.514
   93SAPE  H20S 9197  -0.438   0.947   4.424
   93SAPE  H20T 9198  -0.395   0.777   4.460
   93SAPE   C33 9199  -0.122   2.270   6.145
   93SAPE   H3X 9200  -0.079   2.172   6.116
   93SAPE   H3Y 9201  -0.033   2.334   6.165
   93SAPE   C34 9202  -0.203   2.307   6.027
   93SAPE   H4X 9203  -0.261   2.399   6.050
   93SAPE   H4Y 9204  -0.282   2.231   6.009
   93SAPE   C35 9205  -0.111   2.343   5.911
   93SAPE   H5X 9206  -0.049   2.252   5.899
   93SAPE   H5Y 9207  -0.057   2.436   5.937
   93SAPE   C36 9208  -0.189   2.378   5.785
   93SAPE   H6X 9209  -0.266   2.455   5.808
   93SAPE   H6Y 9210  -0.247   2.305   5.726
   93SAPE   C37 9211  -0.101   2.431   5.673
   93SAPE   H7X 9212  -0.036   2.343   5.657
   93SAPE   H7Y 9213  -0.033   2.512   5.707
   93SAPE   C38 9214  -0.180   2.469   5.547
   93SAPE   H8X 9215  -0.246   2.545   5.595
   93SAPE   H8Y 9216  -0.244   2.385   5.511
   93SAPE   C39 9217  -0.089   2.522   5.434
   93SAPE   H9X 9218  -0.011   2.446   5.412
   93SAPE   H9Y 9219  -0.045   2.605   5.495
   93SAPE  C310 9220  -0.147   2.591   5.309
   93SAPE  H10X 9221  -0.060   2.656   5.284
   93SAPE  H10Y 9222  -0.234   2.658   5.325
   93SAPE  C311 9223  -0.167   2.474   5.207
   93SAPE  H11X 9224  -0.260   2.416   5.224
   93SAPE  H11Y 9225  -0.080   2.406   5.213
   93SAPE  C312 9226  -0.179   2.526   5.060
   93SAPE  H12X 9227  -0.096   2.600   5.058
   93SAPE  H12Y 9228  -0.270   2.589   5.052
   93SAPE  C313 9229  -0.169   2.406   4.956
   93SAPE  H13X 9230  -0.258   2.342   4.972
   93SAPE  H13Y 9231  -0.074   2.352   4.974
   93SAPE  C314 9232  -0.160   2.456   4.810
   93SAPE  H14X 9233  -0.051   2.474   4.801
   93SAPE  H14Y 9234  -0.217   2.551   4.802
   93SAPE  C315 9235  -0.197   2.359   4.694
   93SAPE  H15X 9236  -0.304   2.382   4.673
   93SAPE  H15Y 9237  -0.197   2.252   4.723
   93SAPE  C316 9238  -0.115   2.368   4.564
   93SAPE  H16X 9239  -0.150   2.294   4.489
   93SAPE  H16Y 9240  -0.009   2.350   4.591
   93SAPE  C317 9241  -0.144   2.496   4.484
   93SAPE  H17X 9242  -0.093   2.581   4.532
   93SAPE  H17Y 9243  -0.255   2.499   4.476
   93SAPE  C318 9244  -0.097   2.496   4.340
   93SAPE  H18X 9245  -0.141   2.409   4.286
   93SAPE  H18Y 9246   0.013   2.502   4.331
   93SAPE  H18Z 9247  -0.123   2.591   4.288
   94SAPE     N 9248   5.002   4.993   6.771
   94SAPE   HN1 9249   4.945   5.058   6.713
   94SAPE   HN2 9250   4.960   5.004   6.865
   94SAPE   HN3 9251   5.097   5.033   6.788
   94SAPE   C12 9252   5.004   4.864   6.702
   94SAPE  H12A 9253   5.057   4.793   6.770
   94SAPE  H12B 9254   5.064   4.860   6.608
   94SAPE   C11 9255   4.864   4.811   6.672
   94SAPE  H11A 9256   4.857   4.715   6.616
   94SAPE  H11B 9257   4.819   4.873   6.592
   94SAPE     P 9258   4.787   4.686   6.898
   94SAPE   O13 9259   4.795   4.757   7.032
   94SAPE   O14 9260   4.685   4.580   6.892
   94SAPE   O12 9261   4.782   4.797   6.787
   94SAPE   O11 9262   4.925   4.619   6.857
   94SAPE    C1 9263   4.910   4.489   6.799
   94SAPE    HA 9264   4.890   4.411   6.876
   94SAPE    HB 9265   4.836   4.478   6.717
   94SAPE    C2 9266   5.046   4.452   6.734
   94SAPE    HS 9267   5.123   4.479   6.809
   94SAPE   O21 9268   5.061   4.522   6.606
   94SAPE   C21 9269   5.189   4.528   6.564
   94SAPE   O22 9270   5.286   4.495   6.635
   94SAPE   C22 9271   5.195   4.587   6.425
   94SAPE   H2R 9272   5.139   4.683   6.422
   94SAPE   H2S 9273   5.298   4.623   6.404
   94SAPE    C3 9274   5.063   4.295   6.721
   94SAPE    HX 9275   5.028   4.254   6.818
   94SAPE    HY 9276   5.172   4.275   6.711
   94SAPE   O31 9277   4.980   4.225   6.625
   94SAPE   C31 9278   5.028   4.125   6.551
   94SAPE   O32 9279   5.147   4.097   6.541
   94SAPE   C32 9280   4.913   4.072   6.466
   94SAPE   H2X 9281   4.909   4.138   6.376
   94SAPE   H2Y 9282   4.822   4.075   6.529
   94SAPE   C23 9283   5.150   4.489   6.318
   94SAPE   H3R 9284   5.152   4.562   6.234
   94SAPE   H3S 9285   5.052   4.443   6.345
   94SAPE   C24 9286   5.248   4.370   6.288
   94SAPE   H4R 9287   5.277   4.317   6.381
   94SAPE   H4S 9288   5.330   4.423   6.235
   94SAPE   C25 9289   5.168   4.273   6.204
   94SAPE   H5R 9290   5.065   4.262   6.242
   94SAPE   C26 9291   5.196   4.230   6.076
   94SAPE   H6R 9292   5.130   4.158   6.026
   94SAPE   C27 9293   5.324   4.255   5.992
   94SAPE   H7R 9294   5.356   4.171   5.926
   94SAPE   H7S 9295   5.416   4.275   6.050
   94SAPE   C28 9296   5.308   4.385   5.916
   94SAPE   H8R 9297   5.335   4.475   5.974
   94SAPE   C29 9298   5.255   4.404   5.793
   94SAPE   H9R 9299   5.255   4.508   5.756
   94SAPE  C210 9300   5.225   4.297   5.693
   94SAPE  H10R 9301   5.196   4.208   5.752
   94SAPE  H10S 9302   5.323   4.280   5.643
   94SAPE  C211 9303   5.120   4.343   5.595
   94SAPE  H11R 9304   5.021   4.357   5.640
   94SAPE  C212 9305   5.145   4.396   5.473
   94SAPE  H12R 9306   5.057   4.410   5.408
   94SAPE  C213 9307   5.283   4.397   5.412
   94SAPE  H13R 9308   5.286   4.317   5.334
   94SAPE  H13S 9309   5.374   4.372   5.470
   94SAPE  C214 9310   5.311   4.533   5.344
   94SAPE  H14R 9311   5.364   4.606   5.406
   94SAPE  C215 9312   5.279   4.557   5.211
   94SAPE  H15R 9313   5.289   4.660   5.173
   94SAPE  C216 9314   5.225   4.462   5.112
   94SAPE  H16R 9315   5.121   4.473   5.076
   94SAPE  H16S 9316   5.232   4.359   5.152
   94SAPE  C217 9317   5.314   4.470   4.983
   94SAPE  H17R 9318   5.295   4.569   4.937
   94SAPE  H17S 9319   5.276   4.391   4.915
   94SAPE  C218 9320   5.463   4.439   5.006
   94SAPE  H18R 9321   5.468   4.332   5.036
   94SAPE  H18S 9322   5.504   4.513   5.078
   94SAPE  C219 9323   5.551   4.444   4.873
   94SAPE  H19R 9324   5.549   4.342   4.828
   94SAPE  H19S 9325   5.653   4.469   4.909
   94SAPE  C220 9326   5.517   4.557   4.781
   94SAPE  H20R 9327   5.584   4.553   4.693
   94SAPE  H20S 9328   5.541   4.654   4.830
   94SAPE  H20T 9329   5.408   4.555   4.758
   94SAPE   C33 9330   4.931   3.930   6.412
   94SAPE   H3X 9331   4.832   3.882   6.396
   94SAPE   H3Y 9332   4.984   3.859   6.479
   94SAPE   C34 9333   5.005   3.927   6.280
   94SAPE   H4X 9334   5.104   3.974   6.294
   94SAPE   H4Y 9335   4.950   3.986   6.203
   94SAPE   C35 9336   5.038   3.790   6.226
   94SAPE   H5X 9337   4.945   3.733   6.205
   94SAPE   H5Y 9338   5.097   3.735   6.303
   94SAPE   C36 9339   5.117   3.788   6.097
   94SAPE   H6X 9340   5.143   3.685   6.063
   94SAPE   H6Y 9341   5.216   3.835   6.117
   94SAPE   C37 9342   5.057   3.868   5.985
   94SAPE   H7X 9343   5.032   3.971   6.018
   94SAPE   H7Y 9344   4.958   3.826   5.958
   94SAPE   C38 9345   5.140   3.875   5.857
   94SAPE   H8X 9346   5.169   3.770   5.833
   94SAPE   H8Y 9347   5.226   3.937   5.890
   94SAPE   C39 9348   5.071   3.928   5.736
   94SAPE   H9X 9349   5.028   4.029   5.756
   94SAPE   H9Y 9350   4.990   3.856   5.711
   94SAPE  C310 9351   5.168   3.949   5.619
   94SAPE  H10X 9352   5.258   4.004   5.654
   94SAPE  H10Y 9353   5.129   4.023   5.546
   94SAPE  C311 9354   5.214   3.824   5.548
   94SAPE  H11X 9355   5.129   3.789   5.485
   94SAPE  H11Y 9356   5.256   3.748   5.617
   94SAPE  C312 9357   5.334   3.840   5.453
   94SAPE  H12X 9358   5.348   3.746   5.395
   94SAPE  H12Y 9359   5.424   3.846   5.517
   94SAPE  C313 9360   5.313   3.957   5.357
   94SAPE  H13X 9361   5.402   3.974   5.291
   94SAPE  H13Y 9362   5.310   4.053   5.412
   94SAPE  C314 9363   5.187   3.936   5.269
   94SAPE  H14X 9364   5.098   3.925   5.334
   94SAPE  H14Y 9365   5.195   3.842   5.211
   94SAPE  C315 9366   5.153   4.046   5.170
   94SAPE  H15X 9367   5.246   4.070   5.115
   94SAPE  H15Y 9368   5.121   4.137   5.225
   94SAPE  C316 9369   5.051   4.000   5.060
   94SAPE  H16X 9370   4.975   3.930   5.102
   94SAPE  H16Y 9371   5.104   3.949   4.978
   94SAPE  C317 9372   4.984   4.121   4.993
   94SAPE  H17X 9373   4.901   4.080   4.930
   94SAPE  H17Y 9374   5.064   4.174   4.937
   94SAPE  C318 9375   4.927   4.227   5.090
   94SAPE  H18X 9376   4.849   4.284   5.035
   94SAPE  H18Y 9377   5.008   4.301   5.110
   94SAPE  H18Z 9378   4.899   4.178   5.186
   95SAPE     N 9379   2.196   2.836   6.942
   95SAPE   HN1 9380   2.187   2.906   7.018
   95SAPE   HN2 9381   2.209   2.738   6.972
   95SAPE   HN3 9382   2.272   2.867   6.878
   95SAPE   C12 9383   2.070   2.844   6.863
   95SAPE  H12A 9384   2.067   2.953   6.838
   95SAPE  H12B 9385   1.989   2.810   6.931
   95SAPE   C11 9386   2.073   2.755   6.734
   95SAPE  H11A 9387   2.161   2.790   6.675
   95SAPE  H11B 9388   1.989   2.779   6.665
   95SAPE     P 9389   1.962   2.528   6.754
   95SAPE   O13 9390   1.990   2.388   6.799
   95SAPE   O14 9391   1.852   2.598   6.819
   95SAPE   O12 9392   2.092   2.616   6.767
   95SAPE   O11 9393   1.930   2.529   6.597
   95SAPE    C1 9394   2.036   2.499   6.504
   95SAPE    HA 9395   2.137   2.530   6.537
   95SAPE    HB 9396   2.033   2.388   6.502
   95SAPE    C2 9397   2.002   2.540   6.356
   95SAPE    HS 9398   2.085   2.510   6.289
   95SAPE   O21 9399   1.989   2.683   6.358
   95SAPE   C21 9400   2.108   2.742   6.354
   95SAPE   O22 9401   2.211   2.685   6.329
   95SAPE   C22 9402   2.090   2.898   6.383
   95SAPE   H2R 9403   2.006   2.929   6.317
   95SAPE   H2S 9404   2.072   2.898   6.493
   95SAPE    C3 9405   1.870   2.480   6.306
   95SAPE    HX 9406   1.784   2.513   6.368
   95SAPE    HY 9407   1.883   2.370   6.319
   95SAPE   O31 9408   1.839   2.511   6.169
   95SAPE   C31 9409   1.865   2.422   6.077
   95SAPE   O32 9410   1.923   2.317   6.090
   95SAPE   C32 9411   1.799   2.479   5.947
   95SAPE   H2X 9412   1.803   2.589   5.938
   95SAPE   H2Y 9413   1.693   2.445   5.956
   95SAPE   C23 9414   2.222   2.976   6.358
   95SAPE   H3R 9415   2.230   2.991   6.249
   95SAPE   H3S 9416   2.311   2.922   6.398
   95SAPE   C24 9417   2.220   3.107   6.448
   95SAPE   H4R 9418   2.313   3.159   6.415
   95SAPE   H4S 9419   2.231   3.079   6.555
   95SAPE   C25 9420   2.097   3.187   6.423
   95SAPE   H5R 9421   2.019   3.167   6.498
   95SAPE   C26 9422   2.082   3.274   6.324
   95SAPE   H6R 9423   1.985   3.324   6.308
   95SAPE   C27 9424   2.171   3.302   6.211
   95SAPE   H7R 9425   2.276   3.285   6.243
   95SAPE   H7S 9426   2.178   3.408   6.177
   95SAPE   C28 9427   2.134   3.210   6.095
   95SAPE   H8R 9428   2.061   3.131   6.119
   95SAPE   C29 9429   2.204   3.208   5.979
   95SAPE   H9R 9430   2.185   3.129   5.905
   95SAPE  C210 9431   2.307   3.307   5.932
   95SAPE  H10R 9432   2.278   3.413   5.952
   95SAPE  H10S 9433   2.313   3.312   5.821
   95SAPE  C211 9434   2.441   3.277   5.995
   95SAPE  H11R 9435   2.446   3.186   6.057
   95SAPE  C212 9436   2.547   3.364   5.985
   95SAPE  H12R 9437   2.648   3.332   6.017
   95SAPE  C213 9438   2.540   3.498   5.911
   95SAPE  H13R 9439   2.540   3.573   5.993
   95SAPE  H13S 9440   2.452   3.515   5.845
   95SAPE  C214 9441   2.661   3.530   5.827
   95SAPE  H14R 9442   2.728   3.606   5.869
   95SAPE  C215 9443   2.701   3.469   5.720
   95SAPE  H15R 9444   2.795   3.500   5.672
   95SAPE  C216 9445   2.627   3.360   5.646
   95SAPE  H16R 9446   2.544   3.320   5.708
   95SAPE  H16S 9447   2.698   3.281   5.613
   95SAPE  C217 9448   2.567   3.412   5.514
   95SAPE  H17R 9449   2.650   3.422   5.441
   95SAPE  H17S 9450   2.537   3.515   5.543
   95SAPE  C218 9451   2.453   3.332   5.453
   95SAPE  H18R 9452   2.377   3.305   5.528
   95SAPE  H18S 9453   2.487   3.234   5.413
   95SAPE  C219 9454   2.397   3.412   5.328
   95SAPE  H19R 9455   2.488   3.445   5.274
   95SAPE  H19S 9456   2.349   3.507   5.362
   95SAPE  C220 9457   2.297   3.325   5.245
   95SAPE  H20R 9458   2.274   3.354   5.141
   95SAPE  H20S 9459   2.201   3.305   5.297
   95SAPE  H20T 9460   2.346   3.226   5.249
   95SAPE   C33 9461   1.863   2.430   5.810
   95SAPE   H3X 9462   1.781   2.406   5.738
   95SAPE   H3Y 9463   1.926   2.341   5.830
   95SAPE   C34 9464   1.966   2.534   5.750
   95SAPE   H4X 9465   2.024   2.556   5.842
   95SAPE   H4Y 9466   1.897   2.618   5.727
   95SAPE   C35 9467   2.053   2.489   5.634
   95SAPE   H5X 9468   2.134   2.420   5.665
   95SAPE   H5Y 9469   2.105   2.574   5.585
   95SAPE   C36 9470   1.991   2.414   5.515
   95SAPE   H6X 9471   1.916   2.478   5.464
   95SAPE   H6Y 9472   1.938   2.321   5.545
   95SAPE   C37 9473   2.090   2.370   5.403
   95SAPE   H7X 9474   2.157   2.285   5.427
   95SAPE   H7Y 9475   2.156   2.457   5.382
   95SAPE   C38 9476   2.019   2.331   5.270
   95SAPE   H8X 9477   1.957   2.420   5.244
   95SAPE   H8Y 9478   1.950   2.245   5.283
   95SAPE   C39 9479   2.114   2.313   5.146
   95SAPE   H9X 9480   2.186   2.235   5.179
   95SAPE   H9Y 9481   2.169   2.407   5.125
   95SAPE  C310 9482   2.042   2.261   5.024
   95SAPE  H10X 9483   1.953   2.326   5.015
   95SAPE  H10Y 9484   1.998   2.161   5.041
   95SAPE  C311 9485   2.120   2.271   4.891
   95SAPE  H11X 9486   2.191   2.186   4.886
   95SAPE  H11Y 9487   2.177   2.366   4.893
   95SAPE  C312 9488   2.025   2.269   4.767
   95SAPE  H12X 9489   1.950   2.351   4.777
   95SAPE  H12Y 9490   1.975   2.170   4.772
   95SAPE  C313 9491   2.101   2.273   4.634
   95SAPE  H13X 9492   2.178   2.193   4.636
   95SAPE  H13Y 9493   2.161   2.366   4.620
   95SAPE  C314 9494   1.995   2.261   4.522
   95SAPE  H14X 9495   1.929   2.350   4.530
   95SAPE  H14Y 9496   1.931   2.171   4.532
   95SAPE  C315 9497   2.070   2.267   4.391
   95SAPE  H15X 9498   2.148   2.188   4.393
   95SAPE  H15Y 9499   2.122   2.365   4.393
   95SAPE  C316 9500   1.983   2.236   4.265
   95SAPE  H16X 9501   1.961   2.127   4.263
   95SAPE  H16Y 9502   2.038   2.238   4.168
   95SAPE  C317 9503   1.843   2.304   4.256
   95SAPE  H17X 9504   1.842   2.414   4.237
   95SAPE  H17Y 9505   1.788   2.294   4.351
   95SAPE  C318 9506   1.771   2.249   4.134
   95SAPE  H18X 9507   1.816   2.253   4.033
   95SAPE  H18Y 9508   1.672   2.299   4.125
   95SAPE  H18Z 9509   1.739   2.145   4.156
   96SAPE     N 9510   5.256   5.374   6.869
   96SAPE   HN1 9511   5.310   5.355   6.955
   96SAPE   HN2 9512   5.213   5.284   6.840
   96SAPE   HN3 9513   5.322   5.390   6.790
   96SAPE   C12 9514   5.144   5.467   6.885
   96SAPE  H12A 9515   5.185   5.569   6.899
   96SAPE  H12B 9516   5.081   5.433   6.969
   96SAPE   C11 9517   5.054   5.462   6.758
   96SAPE  H11A 9518   5.119   5.491   6.673
   96SAPE  H11B 9519   4.974   5.538   6.745
   96SAPE     P 9520   4.889   5.311   6.626
   96SAPE   O13 9521   4.853   5.167   6.627
   96SAPE   O14 9522   4.781   5.405   6.643
   96SAPE   O12 9523   5.004   5.334   6.733
   96SAPE   O11 9524   4.957   5.334   6.486
   96SAPE    C1 9525   5.096   5.306   6.448
   96SAPE    HA 9526   5.154   5.398   6.427
   96SAPE    HB 9527   5.151   5.251   6.527
   96SAPE    C2 9528   5.092   5.207   6.329
   96SAPE    HS 9529   5.192   5.191   6.282
   96SAPE   O21 9530   4.993   5.246   6.228
   96SAPE   C21 9531   5.018   5.359   6.170
   96SAPE   O22 9532   5.126   5.415   6.175
   96SAPE   C22 9533   4.901   5.403   6.091
   96SAPE   H2R 9534   4.810   5.375   6.148
   96SAPE   H2S 9535   4.902   5.514   6.084
   96SAPE    C3 9536   5.051   5.064   6.377
   96SAPE    HX 9537   4.947   5.068   6.417
   96SAPE    HY 9538   5.121   5.039   6.459
   96SAPE   O31 9539   5.077   4.973   6.276
   96SAPE   C31 9540   4.993   4.926   6.188
   96SAPE   O32 9541   4.876   4.963   6.176
   96SAPE   C32 9542   5.064   4.834   6.096
   96SAPE   H2X 9543   5.025   4.731   6.108
   96SAPE   H2Y 9544   5.171   4.821   6.122
   96SAPE   C23 9545   4.904   5.335   5.952
   96SAPE   H3R 9546   4.811   5.354   5.894
   96SAPE   H3S 9547   4.908   5.224   5.953
   96SAPE   C24 9548   5.025   5.379   5.861
   96SAPE   H4R 9549   5.107   5.410   5.929
   96SAPE   H4S 9550   4.985   5.473   5.817
   96SAPE   C25 9551   5.079   5.283   5.752
   96SAPE   H5R 9552   5.122   5.191   5.793
   96SAPE   C26 9553   5.098   5.307   5.624
   96SAPE   H6R 9554   5.151   5.240   5.555
   96SAPE   C27 9555   5.061   5.437   5.558
   96SAPE   H7R 9556   5.150   5.471   5.500
   96SAPE   H7S 9557   5.050   5.518   5.633
   96SAPE   C28 9558   4.929   5.443   5.484
   96SAPE   H8R 9559   4.843   5.469   5.548
   96SAPE   C29 9560   4.899   5.424   5.353
   96SAPE   H9R 9561   4.794   5.424   5.318
   96SAPE  C210 9562   4.990   5.384   5.244
   96SAPE  H10R 9563   5.096   5.378   5.277
   96SAPE  H10S 9564   4.988   5.454   5.157
   96SAPE  C211 9565   4.952   5.246   5.189
   96SAPE  H11R 9566   4.963   5.169   5.267
   96SAPE  C212 9567   4.907   5.215   5.064
   96SAPE  H12R 9568   4.883   5.110   5.043
   96SAPE  C213 9569   4.893   5.306   4.944
   96SAPE  H13R 9570   4.884   5.409   4.985
   96SAPE  H13S 9571   4.798   5.286   4.890
   96SAPE  C214 9572   5.024   5.295   4.872
   96SAPE  H14R 9573   5.113   5.341   4.917
   96SAPE  C215 9574   5.041   5.223   4.759
   96SAPE  H15R 9575   5.138   5.201   4.712
   96SAPE  C216 9576   4.933   5.142   4.694
   96SAPE  H16R 9577   4.861   5.095   4.765
   96SAPE  H16S 9578   4.981   5.055   4.644
   96SAPE  C217 9579   4.860   5.224   4.588
   96SAPE  H17R 9580   4.820   5.325   4.613
   96SAPE  H17S 9581   4.778   5.159   4.552
   96SAPE  C218 9582   4.957   5.249   4.480
   96SAPE  H18R 9583   5.042   5.177   4.474
   96SAPE  H18S 9584   5.011   5.346   4.485
   96SAPE  C219 9585   4.882   5.261   4.341
   96SAPE  H19R 9586   4.943   5.328   4.277
   96SAPE  H19S 9587   4.780   5.304   4.351
   96SAPE  C220 9588   4.881   5.126   4.264
   96SAPE  H20R 9589   4.982   5.095   4.228
   96SAPE  H20S 9590   4.816   5.146   4.176
   96SAPE  H20T 9591   4.836   5.040   4.319
   96SAPE   C33 9592   5.052   4.889   5.952
   96SAPE   H3X 9593   5.094   4.991   5.958
   96SAPE   H3Y 9594   4.942   4.893   5.935
   96SAPE   C34 9595   5.122   4.807   5.848
   96SAPE   H4X 9596   5.069   4.710   5.839
   96SAPE   H4Y 9597   5.225   4.768   5.860
   96SAPE   C35 9598   5.113   4.877   5.713
   96SAPE   H5X 9599   5.155   4.978   5.736
   96SAPE   H5Y 9600   5.005   4.891   5.692
   96SAPE   C36 9601   5.184   4.798   5.596
   96SAPE   H6X 9602   5.168   4.688   5.589
   96SAPE   H6Y 9603   5.294   4.811   5.601
   96SAPE   C37 9604   5.145   4.855   5.453
   96SAPE   H7X 9605   5.216   4.817   5.376
   96SAPE   H7Y 9606   5.157   4.965   5.454
   96SAPE   C38 9607   4.997   4.814   5.410
   96SAPE   H8X 9608   4.927   4.857   5.485
   96SAPE   H8Y 9609   4.984   4.705   5.426
   96SAPE   C39 9610   4.954   4.845   5.267
   96SAPE   H9X 9611   4.977   4.949   5.235
   96SAPE   H9Y 9612   4.844   4.838   5.265
   96SAPE  C310 9613   4.997   4.749   5.152
   96SAPE  H10X 9614   4.991   4.640   5.171
   96SAPE  H10Y 9615   5.103   4.768   5.127
   96SAPE  C311 9616   4.916   4.778   5.025
   96SAPE  H11X 9617   4.917   4.888   5.009
   96SAPE  H11Y 9618   4.808   4.763   5.047
   96SAPE  C312 9619   4.970   4.700   4.905
   96SAPE  H12X 9620   4.982   4.593   4.932
   96SAPE  H12Y 9621   5.063   4.747   4.867
   96SAPE  C313 9622   4.870   4.697   4.788
   96SAPE  H13X 9623   4.885   4.785   4.722
   96SAPE  H13Y 9624   4.771   4.722   4.831
   96SAPE  C314 9625   4.887   4.568   4.701
   96SAPE  H14X 9626   4.846   4.477   4.750
   96SAPE  H14Y 9627   4.995   4.549   4.683
   96SAPE  C315 9628   4.806   4.567   4.566
   96SAPE  H15X 9629   4.698   4.566   4.593
   96SAPE  H15Y 9630   4.838   4.475   4.514
   96SAPE  C316 9631   4.833   4.695   4.483
   96SAPE  H16X 9632   4.943   4.694   4.464
   96SAPE  H16Y 9633   4.786   4.783   4.530
   96SAPE  C317 9634   4.764   4.677   4.343
   96SAPE  H17X 9635   4.793   4.579   4.300
   96SAPE  H17Y 9636   4.807   4.759   4.281
   96SAPE  C318 9637   4.610   4.689   4.349
   96SAPE  H18X 9638   4.555   4.621   4.417
   96SAPE  H18Y 9639   4.567   4.678   4.247
   96SAPE  H18Z 9640   4.572   4.791   4.371
   97SAPE     N 9641   5.726   0.351   7.184
   97SAPE   HN1 9642   5.702   0.423   7.255
   97SAPE   HN2 9643   5.737   0.391   7.089
   97SAPE   HN3 9644   5.641   0.292   7.183
   97SAPE   C12 9645   5.843   0.263   7.207
   97SAPE  H12A 9646   5.831   0.210   7.304
   97SAPE  H12B 9647   5.934   0.328   7.208
   97SAPE   C11 9648   5.858   0.158   7.097
   97SAPE  H11A 9649   5.760   0.109   7.077
   97SAPE  H11B 9650   5.929   0.079   7.129
   97SAPE     P 9651   5.864   0.177   6.837
   97SAPE   O13 9652   5.854   0.034   6.829
   97SAPE   O14 9653   5.752   0.263   6.792
   97SAPE   O12 9654   5.912   0.220   6.976
   97SAPE   O11 9655   5.990   0.221   6.756
   97SAPE    C1 9656   6.028   0.353   6.724
   97SAPE    HA 9657   6.002   0.422   6.807
   97SAPE    HB 9658   6.138   0.358   6.718
   97SAPE    C2 9659   5.960   0.396   6.592
   97SAPE    HS 9660   5.852   0.390   6.618
   97SAPE   O21 9661   5.999   0.302   6.489
   97SAPE   C21 9662   5.897   0.245   6.420
   97SAPE   O22 9663   5.795   0.205   6.469
   97SAPE   C22 9664   5.947   0.209   6.281
   97SAPE   H2R 9665   5.999   0.293   6.230
   97SAPE   H2S 9666   6.023   0.128   6.292
   97SAPE    C3 9667   5.982   0.542   6.555
   97SAPE    HX 9668   6.089   0.562   6.531
   97SAPE    HY 9669   5.981   0.606   6.645
   97SAPE   O31 9670   5.886   0.587   6.460
   97SAPE   C31 9671   5.928   0.598   6.335
   97SAPE   O32 9672   6.040   0.572   6.295
   97SAPE   C32 9673   5.808   0.657   6.251
   97SAPE   H2X 9674   5.796   0.759   6.294
   97SAPE   H2Y 9675   5.715   0.601   6.273
   97SAPE   C23 9676   5.828   0.178   6.178
   97SAPE   H3R 9677   5.757   0.263   6.173
   97SAPE   H3S 9678   5.768   0.094   6.217
   97SAPE   C24 9679   5.884   0.165   6.024
   97SAPE   H4R 9680   5.951   0.249   5.995
   97SAPE   H4S 9681   5.796   0.163   5.957
   97SAPE   C25 9682   5.960   0.035   6.026
   97SAPE   H5R 9683   5.960  -0.024   6.119
   97SAPE   C26 9684   6.007  -0.028   5.917
   97SAPE   H6R 9685   6.055  -0.125   5.941
   97SAPE   C27 9686   6.004   0.029   5.772
   97SAPE   H7R 9687   5.970   0.134   5.762
   97SAPE   H7S 9688   5.946  -0.033   5.700
   97SAPE   C28 9689   6.146   0.027   5.719
   97SAPE   H8R 9690   6.225  -0.011   5.785
   97SAPE   C29 9691   6.175   0.027   5.587
   97SAPE   H9R 9692   6.279   0.013   5.555
   97SAPE  C210 9693   6.082   0.044   5.474
   97SAPE  H10R 9694   5.975   0.060   5.498
   97SAPE  H10S 9695   6.082  -0.049   5.413
   97SAPE  C211 9696   6.136   0.156   5.389
   97SAPE  H11R 9697   6.199   0.236   5.433
   97SAPE  C212 9698   6.094   0.181   5.266
   97SAPE  H12R 9699   6.142   0.263   5.212
   97SAPE  C213 9700   6.004   0.094   5.181
   97SAPE  H13R 9701   5.955   0.158   5.105
   97SAPE  H13S 9702   5.925   0.063   5.253
   97SAPE  C214 9703   6.067  -0.024   5.108
   97SAPE  H14R 9704   6.153  -0.073   5.158
   97SAPE  C215 9705   6.015  -0.083   4.998
   97SAPE  H15R 9706   6.069  -0.165   4.948
   97SAPE  C216 9707   5.889  -0.047   4.926
   97SAPE  H16R 9708   5.890  -0.038   4.815
   97SAPE  H16S 9709   5.833   0.038   4.970
   97SAPE  C217 9710   5.793  -0.165   4.958
   97SAPE  H17R 9711   5.774  -0.191   5.065
   97SAPE  H17S 9712   5.836  -0.259   4.916
   97SAPE  C218 9713   5.655  -0.146   4.891
   97SAPE  H18R 9714   5.664  -0.119   4.784
   97SAPE  H18S 9715   5.615  -0.050   4.930
   97SAPE  C219 9716   5.550  -0.259   4.909
   97SAPE  H19R 9717   5.504  -0.259   5.010
   97SAPE  H19S 9718   5.610  -0.352   4.903
   97SAPE  C220 9719   5.450  -0.282   4.799
   97SAPE  H20R 9720   5.383  -0.194   4.811
   97SAPE  H20S 9721   5.387  -0.367   4.832
   97SAPE  H20T 9722   5.487  -0.298   4.695
   97SAPE   C33 9723   5.835   0.661   6.100
   97SAPE   H3X 9724   5.941   0.687   6.083
   97SAPE   H3Y 9725   5.767   0.734   6.051
   97SAPE   C34 9726   5.806   0.531   6.025
   97SAPE   H4X 9727   5.710   0.483   6.054
   97SAPE   H4Y 9728   5.891   0.462   6.041
   97SAPE   C35 9729   5.789   0.557   5.875
   97SAPE   H5X 9730   5.877   0.619   5.847
   97SAPE   H5Y 9731   5.693   0.612   5.865
   97SAPE   C36 9732   5.787   0.435   5.774
   97SAPE   H6X 9733   5.683   0.394   5.773
   97SAPE   H6Y 9734   5.862   0.360   5.807
   97SAPE   C37 9735   5.819   0.465   5.629
   97SAPE   H7X 9736   5.851   0.373   5.575
   97SAPE   H7Y 9737   5.901   0.538   5.640
   97SAPE   C38 9738   5.693   0.513   5.553
   97SAPE   H8X 9739   5.678   0.616   5.592
   97SAPE   H8Y 9740   5.597   0.459   5.569
   97SAPE   C39 9741   5.724   0.526   5.406
   97SAPE   H9X 9742   5.820   0.576   5.381
   97SAPE   H9Y 9743   5.659   0.606   5.364
   97SAPE  C310 9744   5.701   0.389   5.322
   97SAPE  H10X 9745   5.591   0.374   5.326
   97SAPE  H10Y 9746   5.749   0.304   5.376
   97SAPE  C311 9747   5.760   0.404   5.185
   97SAPE  H11X 9748   5.870   0.394   5.199
   97SAPE  H11Y 9749   5.733   0.502   5.142
   97SAPE  C312 9750   5.714   0.306   5.075
   97SAPE  H12X 9751   5.708   0.203   5.118
   97SAPE  H12Y 9752   5.782   0.308   4.987
   97SAPE  C313 9753   5.575   0.339   5.022
   97SAPE  H13X 9754   5.570   0.447   4.995
   97SAPE  H13Y 9755   5.504   0.336   5.108
   97SAPE  C314 9756   5.533   0.251   4.908
   97SAPE  H14X 9757   5.517   0.153   4.958
   97SAPE  H14Y 9758   5.612   0.243   4.830
   97SAPE  C315 9759   5.404   0.294   4.838
   97SAPE  H15X 9760   5.322   0.301   4.912
   97SAPE  H15Y 9761   5.365   0.215   4.770
   97SAPE  C316 9762   5.423   0.425   4.753
   97SAPE  H16X 9763   5.501   0.414   4.674
   97SAPE  H16Y 9764   5.460   0.503   4.823
   97SAPE  C317 9765   5.295   0.484   4.692
   97SAPE  H17X 9766   5.226   0.504   4.777
   97SAPE  H17Y 9767   5.247   0.408   4.627
   97SAPE  C318 9768   5.319   0.613   4.604
   97SAPE  H18X 9769   5.219   0.644   4.564
   97SAPE  H18Y 9770   5.379   0.587   4.514
   97SAPE  H18Z 9771   5.375   0.685   4.666
   98SAPE     N 9772   3.559   6.473   6.484
   98SAPE   HN1 9773   3.598   6.401   6.549
   98SAPE   HN2 9774   3.473   6.512   6.526
   98SAPE   HN3 9775   3.529   6.415   6.403
   98SAPE   C12 9776   3.666   6.584   6.452
   98SAPE  H12A 9777   3.628   6.649   6.370
   98SAPE  H12B 9778   3.752   6.528   6.410
   98SAPE   C11 9779   3.697   6.667   6.571
   98SAPE  H11A 9780   3.606   6.725   6.595
   98SAPE  H11B 9781   3.765   6.752   6.547
   98SAPE     P 9782   3.873   6.612   6.765
   98SAPE   O13 9783   3.859   6.733   6.850
   98SAPE   O14 9784   3.898   6.485   6.833
   98SAPE   O12 9785   3.733   6.595   6.687
   98SAPE   O11 9786   3.969   6.649   6.657
   98SAPE    C1 9787   4.024   6.550   6.563
   98SAPE    HA 9788   4.084   6.473   6.616
   98SAPE    HB 9789   3.935   6.505   6.515
   98SAPE    C2 9790   4.130   6.618   6.470
   98SAPE    HS 9791   4.200   6.673   6.536
   98SAPE   O21 9792   4.044   6.705   6.391
   98SAPE   C21 9793   4.099   6.814   6.349
   98SAPE   O22 9794   4.211   6.860   6.371
   98SAPE   C22 9795   3.989   6.889   6.274
   98SAPE   H2R 9796   3.894   6.870   6.328
   98SAPE   H2S 9797   4.023   6.994   6.274
   98SAPE    C3 9798   4.201   6.517   6.379
   98SAPE    HX 9799   4.125   6.451   6.332
   98SAPE    HY 9800   4.271   6.461   6.445
   98SAPE   O31 9801   4.269   6.571   6.273
   98SAPE   C31 9802   4.398   6.618   6.292
   98SAPE   O32 9803   4.462   6.611   6.392
   98SAPE   C32 9804   4.455   6.650   6.149
   98SAPE   H2X 9805   4.499   6.753   6.147
   98SAPE   H2Y 9806   4.372   6.648   6.076
   98SAPE   C23 9807   3.962   6.838   6.129
   98SAPE   H3R 9808   4.038   6.878   6.059
   98SAPE   H3S 9809   3.858   6.867   6.103
   98SAPE   C24 9810   3.969   6.683   6.101
   98SAPE   H4R 9811   4.060   6.646   6.152
   98SAPE   H4S 9812   3.990   6.671   5.992
   98SAPE   C25 9813   3.845   6.607   6.149
   98SAPE   H5R 9814   3.759   6.673   6.169
   98SAPE   C26 9815   3.842   6.477   6.158
   98SAPE   H6R 9816   3.750   6.426   6.189
   98SAPE   C27 9817   3.954   6.372   6.133
   98SAPE   H7R 9818   3.972   6.329   6.234
   98SAPE   H7S 9819   4.043   6.424   6.092
   98SAPE   C28 9820   3.906   6.264   6.042
   98SAPE   H8R 9821   3.893   6.168   6.094
   98SAPE   C29 9822   3.898   6.273   5.910
   98SAPE   H9R 9823   3.883   6.172   5.870
   98SAPE  C210 9824   3.926   6.392   5.820
   98SAPE  H10R 9825   3.887   6.488   5.861
   98SAPE  H10S 9826   3.857   6.384   5.733
   98SAPE  C211 9827   4.071   6.421   5.783
   98SAPE  H11R 9828   4.123   6.471   5.866
   98SAPE  C212 9829   4.147   6.386   5.678
   98SAPE  H12R 9830   4.252   6.418   5.676
   98SAPE  C213 9831   4.084   6.311   5.557
   98SAPE  H13R 9832   4.158   6.314   5.474
   98SAPE  H13S 9833   3.995   6.359   5.512
   98SAPE  C214 9834   4.073   6.163   5.596
   98SAPE  H14R 9835   4.136   6.137   5.683
   98SAPE  C215 9836   3.999   6.075   5.529
   98SAPE  H15R 9837   3.980   5.973   5.563
   98SAPE  C216 9838   3.906   6.101   5.412
   98SAPE  H16R 9839   3.860   6.201   5.425
   98SAPE  H16S 9840   3.814   6.040   5.412
   98SAPE  C217 9841   3.971   6.068   5.276
   98SAPE  H17R 9842   4.000   5.962   5.258
   98SAPE  H17S 9843   4.056   6.139   5.264
   98SAPE  C218 9844   3.866   6.092   5.166
   98SAPE  H18R 9845   3.831   6.198   5.166
   98SAPE  H18S 9846   3.772   6.040   5.193
   98SAPE  C219 9847   3.921   6.049   5.033
   98SAPE  H19R 9848   3.926   5.938   5.034
   98SAPE  H19S 9849   4.021   6.095   5.020
   98SAPE  C220 9850   3.828   6.086   4.914
   98SAPE  H20R 9851   3.804   6.193   4.930
   98SAPE  H20S 9852   3.736   6.025   4.924
   98SAPE  H20T 9853   3.868   6.062   4.813
   98SAPE   C33 9854   4.578   6.551   6.133
   98SAPE   H3X 9855   4.548   6.445   6.140
   98SAPE   H3Y 9856   4.658   6.591   6.199
   98SAPE   C34 9857   4.659   6.559   6.002
   98SAPE   H4X 9858   4.739   6.482   6.010
   98SAPE   H4Y 9859   4.710   6.657   5.999
   98SAPE   C35 9860   4.562   6.546   5.882
   98SAPE   H5X 9861   4.495   6.634   5.885
   98SAPE   H5Y 9862   4.511   6.448   5.885
   98SAPE   C36 9863   4.639   6.564   5.750
   98SAPE   H6X 9864   4.722   6.490   5.752
   98SAPE   H6Y 9865   4.682   6.666   5.742
   98SAPE   C37 9866   4.545   6.554   5.621
   98SAPE   H7X 9867   4.468   6.633   5.635
   98SAPE   H7Y 9868   4.502   6.452   5.612
   98SAPE   C38 9869   4.623   6.590   5.499
   98SAPE   H8X 9870   4.719   6.541   5.472
   98SAPE   H8Y 9871   4.651   6.696   5.516
   98SAPE   C39 9872   4.528   6.578   5.378
   98SAPE   H9X 9873   4.447   6.653   5.362
   98SAPE   H9Y 9874   4.461   6.489   5.374
   98SAPE  C310 9875   4.615   6.586   5.256
   98SAPE  H10X 9876   4.676   6.493   5.259
   98SAPE  H10Y 9877   4.693   6.665   5.256
   98SAPE  C311 9878   4.530   6.590   5.128
   98SAPE  H11X 9879   4.462   6.677   5.137
   98SAPE  H11Y 9880   4.468   6.500   5.113
   98SAPE  C312 9881   4.624   6.622   5.007
   98SAPE  H12X 9882   4.709   6.550   5.010
   98SAPE  H12Y 9883   4.655   6.729   5.006
   98SAPE  C313 9884   4.539   6.595   4.878
   98SAPE  H13X 9885   4.440   6.644   4.890
   98SAPE  H13Y 9886   4.517   6.488   4.863
   98SAPE  C314 9887   4.603   6.639   4.743
   98SAPE  H14X 9888   4.647   6.741   4.738
   98SAPE  H14Y 9889   4.514   6.632   4.677
   98SAPE  C315 9890   4.707   6.533   4.694
   98SAPE  H15X 9891   4.663   6.431   4.695
   98SAPE  H15Y 9892   4.800   6.519   4.752
   98SAPE  C316 9893   4.748   6.577   4.553
   98SAPE  H16X 9894   4.824   6.659   4.560
   98SAPE  H16Y 9895   4.652   6.604   4.505
   98SAPE  C317 9896   4.815   6.464   4.473
   98SAPE  H17X 9897   4.907   6.424   4.521
   98SAPE  H17Y 9898   4.862   6.502   4.380
   98SAPE  C318 9899   4.729   6.341   4.456
   98SAPE  H18X 9900   4.779   6.267   4.390
   98SAPE  H18Y 9901   4.629   6.353   4.410
   98SAPE  H18Z 9902   4.717   6.287   4.553
   99SAPE     N 9903   5.539   6.459   7.063
   99SAPE   HN1 9904   5.534   6.366   7.109
   99SAPE   HN2 9905   5.599   6.444   6.979
   99SAPE   HN3 9906   5.591   6.527   7.122
   99SAPE   C12 9907   5.394   6.504   7.037
   99SAPE  H12A 9908   5.401   6.614   7.020
   99SAPE  H12B 9909   5.327   6.476   7.122
   99SAPE   C11 9910   5.328   6.449   6.911
   99SAPE  H11A 9911   5.396   6.479   6.829
   99SAPE  H11B 9912   5.227   6.493   6.893
   99SAPE     P 9913   5.169   6.257   6.991
   99SAPE   O13 9914   5.145   6.114   6.963
   99SAPE   O14 9915   5.158   6.304   7.132
   99SAPE   O12 9916   5.306   6.310   6.927
   99SAPE   O11 9917   5.059   6.340   6.909
   99SAPE    C1 9918   4.981   6.272   6.813
   99SAPE    HA 9919   4.925   6.189   6.862
   99SAPE    HB 9920   4.911   6.340   6.762
   99SAPE    C2 9921   5.053   6.234   6.682
   99SAPE    HS 9922   5.118   6.149   6.711
   99SAPE   O21 9923   5.126   6.353   6.643
   99SAPE   C21 9924   5.241   6.327   6.590
   99SAPE   O22 9925   5.287   6.217   6.575
   99SAPE   C22 9926   5.300   6.457   6.534
   99SAPE   H2R 9927   5.217   6.529   6.525
   99SAPE   H2S 9928   5.386   6.486   6.598
   99SAPE    C3 9929   4.958   6.171   6.574
   99SAPE    HX 9930   4.877   6.242   6.547
   99SAPE    HY 9931   4.916   6.080   6.622
   99SAPE   O31 9932   5.026   6.120   6.450
   99SAPE   C31 9933   4.942   6.052   6.363
   99SAPE   O32 9934   4.822   6.026   6.384
   99SAPE   C32 9935   5.015   6.006   6.242
   99SAPE   H2X 9936   5.102   5.948   6.279
   99SAPE   H2Y 9937   5.046   6.099   6.190
   99SAPE   C23 9938   5.339   6.425   6.387
   99SAPE   H3R 9939   5.424   6.353   6.390
   99SAPE   H3S 9940   5.395   6.507   6.337
   99SAPE   C24 9941   5.232   6.373   6.294
   99SAPE   H4R 9942   5.188   6.285   6.344
   99SAPE   H4S 9943   5.269   6.320   6.204
   99SAPE   C25 9944   5.120   6.468   6.260
   99SAPE   H5R 9945   5.068   6.525   6.338
   99SAPE   C26 9946   5.079   6.491   6.131
   99SAPE   H6R 9947   4.987   6.552   6.129
   99SAPE   C27 9948   5.118   6.421   6.000
   99SAPE   H7R 9949   5.168   6.323   6.020
   99SAPE   H7S 9950   5.200   6.485   5.962
   99SAPE   C28 9951   5.013   6.412   5.890
   99SAPE   H8R 9952   4.907   6.406   5.918
   99SAPE   C29 9953   5.033   6.420   5.758
   99SAPE   H9R 9954   4.943   6.441   5.698
   99SAPE  C210 9955   5.162   6.441   5.687
   99SAPE  H10R 9956   5.182   6.337   5.654
   99SAPE  H10S 9957   5.239   6.455   5.766
   99SAPE  C211 9958   5.171   6.533   5.574
   99SAPE  H11R 9959   5.118   6.629   5.584
   99SAPE  C212 9960   5.249   6.509   5.460
   99SAPE  H12R 9961   5.272   6.591   5.391
   99SAPE  C213 9962   5.327   6.386   5.442
   99SAPE  H13R 9963   5.322   6.314   5.526
   99SAPE  H13S 9964   5.437   6.402   5.441
   99SAPE  C214 9965   5.283   6.317   5.319
   99SAPE  H14R 9966   5.176   6.325   5.296
   99SAPE  C215 9967   5.358   6.233   5.239
   99SAPE  H15R 9968   5.307   6.187   5.153
   99SAPE  C216 9969   5.502   6.208   5.255
   99SAPE  H16R 9970   5.524   6.127   5.328
   99SAPE  H16S 9971   5.537   6.296   5.313
   99SAPE  C217 9972   5.591   6.196   5.130
   99SAPE  H17R 9973   5.697   6.191   5.163
   99SAPE  H17S 9974   5.594   6.285   5.064
   99SAPE  C218 9975   5.562   6.061   5.065
   99SAPE  H18R 9976   5.454   6.060   5.040
   99SAPE  H18S 9977   5.578   5.990   5.149
   99SAPE  C219 9978   5.644   6.026   4.941
   99SAPE  H19R 9979   5.618   6.096   4.859
   99SAPE  H19S 9980   5.609   5.931   4.897
   99SAPE  C220 9981   5.799   6.026   4.945
   99SAPE  H20R 9982   5.823   5.961   5.032
   99SAPE  H20S 9983   5.843   6.126   4.964
   99SAPE  H20T 9984   5.847   5.983   4.854
   99SAPE   C33 9985   4.916   5.928   6.160
   99SAPE   H3X 9986   4.828   5.993   6.141
   99SAPE   H3Y 9987   4.879   5.840   6.217
   99SAPE   C34 9988   4.960   5.876   6.020
   99SAPE   H4X 9989   4.867   5.826   5.985
   99SAPE   H4Y 9990   5.040   5.800   6.037
   99SAPE   C35 9991   5.019   5.975   5.916
   99SAPE   H5X 9992   5.097   6.034   5.969
   99SAPE   H5Y 9993   4.949   6.052   5.877
   99SAPE   C36 9994   5.090   5.909   5.801
   99SAPE   H6X 9995   5.016   5.856   5.737
   99SAPE   H6Y 9996   5.167   5.838   5.837
   99SAPE   C37 9997   5.165   6.011   5.709
   99SAPE   H7X 9998   5.220   6.073   5.783
   99SAPE   H7Y 9999   5.089   6.080   5.665
   99SAPE   C3810000   5.263   5.947   5.611
   99SAPE   H8X10001   5.344   5.900   5.671
   99SAPE   H8Y10002   5.305   6.030   5.550
   99SAPE   C3910003   5.202   5.843   5.518
   99SAPE   H9X10004   5.114   5.890   5.469
   99SAPE   H9Y10005   5.154   5.768   5.584
   99SAPE  C31010006   5.292   5.794   5.401
   99SAPE  H10X10007   5.390   5.757   5.439
   99SAPE  H10Y10008   5.313   5.887   5.344
   99SAPE  C31110009   5.220   5.702   5.301
   99SAPE  H11X10010   5.131   5.659   5.352
   99SAPE  H11Y10011   5.284   5.614   5.277
   99SAPE  C31210012   5.180   5.779   5.170
   99SAPE  H12X10013   5.274   5.816   5.122
   99SAPE  H12Y10014   5.114   5.863   5.201
   99SAPE  C31310015   5.112   5.695   5.072
   99SAPE  H13X10016   5.018   5.650   5.111
   99SAPE  H13Y10017   5.177   5.607   5.055
   99SAPE  C31410018   5.083   5.761   4.934
   99SAPE  H14X10019   5.165   5.836   4.926
   99SAPE  H14Y10020   4.981   5.806   4.937
   99SAPE  C31510021   5.092   5.669   4.811
   99SAPE  H15X10022   5.011   5.594   4.796
   99SAPE  H15Y10023   5.177   5.600   4.827
   99SAPE  C31610024   5.106   5.737   4.668
   99SAPE  H16X10025   5.200   5.795   4.678
   99SAPE  H16Y10026   5.032   5.820   4.664
   99SAPE  C31710027   5.103   5.646   4.538
   99SAPE  H17X10028   4.998   5.616   4.518
   99SAPE  H17Y10029   5.175   5.562   4.544
   99SAPE  C31810030   5.134   5.733   4.417
   99SAPE  H18X10031   5.148   5.673   4.324
   99SAPE  H18Y10032   5.229   5.785   4.441
   99SAPE  H18Z10033   5.054   5.807   4.394
  100SAPE     N10034   0.634   5.216   6.752
  100SAPE   HN110035   0.635   5.161   6.841
  100SAPE   HN210036   0.675   5.309   6.773
  100SAPE   HN310037   0.537   5.228   6.716
  100SAPE   C1210038   0.713   5.146   6.640
  100SAPE  H12A10039   0.670   5.190   6.547
  100SAPE  H12B10040   0.676   5.041   6.633
  100SAPE   C1110041   0.866   5.169   6.656
  100SAPE  H11A10042   0.881   5.279   6.650
  100SAPE  H11B10043   0.926   5.121   6.576
  100SAPE     P10044   1.026   5.039   6.816
  100SAPE   O1310045   1.125   5.150   6.833
  100SAPE   O1410046   0.999   4.954   6.930
  100SAPE   O1210047   0.892   5.108   6.779
  100SAPE   O1110048   1.061   4.956   6.685
  100SAPE    C110049   0.991   4.846   6.636
  100SAPE    HA10050   0.894   4.836   6.690
  100SAPE    HB10051   0.958   4.867   6.532
  100SAPE    C210052   1.074   4.720   6.639
  100SAPE    HS10053   1.118   4.710   6.740
  100SAPE   O2110054   1.170   4.715   6.536
  100SAPE   C2110055   1.270   4.635   6.554
  100SAPE   O2210056   1.289   4.564   6.652
  100SAPE   C2210057   1.374   4.656   6.444
  100SAPE   H2R10058   1.386   4.764   6.422
  100SAPE   H2S10059   1.474   4.622   6.479
  100SAPE    C310060   0.981   4.591   6.620
  100SAPE    HX10061   0.906   4.603   6.701
  100SAPE    HY10062   1.040   4.500   6.645
  100SAPE   O3110063   0.911   4.596   6.490
  100SAPE   C3110064   0.961   4.497   6.405
  100SAPE   O3210065   1.057   4.425   6.429
  100SAPE   C3210066   0.867   4.492   6.285
  100SAPE   H2X10067   0.880   4.589   6.232
  100SAPE   H2Y10068   0.764   4.475   6.322
  100SAPE   C2310069   1.333   4.575   6.324
  100SAPE   H3R10070   1.227   4.598   6.300
  100SAPE   H3S10071   1.337   4.466   6.345
  100SAPE   C2410072   1.417   4.607   6.195
  100SAPE   H4R10073   1.523   4.581   6.213
  100SAPE   H4S10074   1.424   4.718   6.183
  100SAPE   C2510075   1.363   4.512   6.091
  100SAPE   H5R10076   1.322   4.419   6.133
  100SAPE   C2610077   1.335   4.552   5.967
  100SAPE   H6R10078   1.327   4.465   5.899
  100SAPE   C2710079   1.374   4.683   5.894
  100SAPE   H7R10080   1.459   4.653   5.829
  100SAPE   H7S10081   1.405   4.769   5.957
  100SAPE   C2810082   1.259   4.732   5.810
  100SAPE   H8R10083   1.179   4.766   5.878
  100SAPE   C2910084   1.238   4.702   5.679
  100SAPE   H9R10085   1.147   4.742   5.631
  100SAPE  C21010086   1.339   4.637   5.576
  100SAPE  H10R10087   1.296   4.547   5.527
  100SAPE  H10S10088   1.435   4.610   5.624
  100SAPE  C21110089   1.375   4.743   5.476
  100SAPE  H11R10090   1.382   4.842   5.523
  100SAPE  C21210091   1.390   4.724   5.340
  100SAPE  H12R10092   1.405   4.809   5.272
  100SAPE  C21310093   1.361   4.591   5.271
  100SAPE  H13R10094   1.390   4.509   5.339
  100SAPE  H13S10095   1.429   4.593   5.183
  100SAPE  C21410096   1.222   4.563   5.221
  100SAPE  H14R10097   1.149   4.640   5.250
  100SAPE  C21510098   1.169   4.450   5.171
  100SAPE  H15R10099   1.059   4.453   5.158
  100SAPE  C21610100   1.230   4.311   5.149
  100SAPE  H16R10101   1.159   4.235   5.110
  100SAPE  H16S10102   1.272   4.268   5.241
  100SAPE  C21710103   1.358   4.312   5.051
  100SAPE  H17R10104   1.404   4.211   5.044
  100SAPE  H17S10105   1.435   4.379   5.094
  100SAPE  C21810106   1.315   4.351   4.908
  100SAPE  H18R10107   1.293   4.459   4.898
  100SAPE  H18S10108   1.238   4.284   4.864
  100SAPE  C21910109   1.424   4.334   4.802
  100SAPE  H19R10110   1.449   4.225   4.805
  100SAPE  H19S10111   1.515   4.390   4.833
  100SAPE  C22010112   1.382   4.379   4.657
  100SAPE  H20R10113   1.362   4.488   4.650
  100SAPE  H20S10114   1.295   4.323   4.616
  100SAPE  H20T10115   1.467   4.372   4.585
  100SAPE   C3310116   0.896   4.374   6.190
  100SAPE   H3X10117   0.837   4.286   6.225
  100SAPE   H3Y10118   1.005   4.356   6.175
  100SAPE   C3410119   0.854   4.412   6.047
  100SAPE   H4X10120   0.916   4.495   6.007
  100SAPE   H4Y10121   0.753   4.457   6.047
  100SAPE   C3510122   0.876   4.298   5.943
  100SAPE   H5X10123   0.823   4.215   5.994
  100SAPE   H5Y10124   0.979   4.259   5.945
  100SAPE   C3610125   0.842   4.342   5.804
  100SAPE   H6X10126   0.930   4.390   5.756
  100SAPE   H6Y10127   0.762   4.420   5.808
  100SAPE   C3710128   0.805   4.221   5.721
  100SAPE   H7X10129   0.718   4.172   5.768
  100SAPE   H7Y10130   0.900   4.164   5.708
  100SAPE   C3810131   0.758   4.242   5.575
  100SAPE   H8X10132   0.680   4.320   5.583
  100SAPE   H8Y10133   0.719   4.144   5.539
  100SAPE   C3910134   0.869   4.302   5.482
  100SAPE   H9X10135   0.919   4.386   5.535
  100SAPE   H9Y10136   0.826   4.354   5.393
  100SAPE  C31010137   0.963   4.191   5.432
  100SAPE  H10X10138   0.998   4.125   5.514
  100SAPE  H10Y10139   1.050   4.244   5.389
  100SAPE  C31110140   0.897   4.099   5.331
  100SAPE  H11X10141   0.861   4.162   5.247
  100SAPE  H11Y10142   0.807   4.059   5.382
  100SAPE  C31210143   0.992   3.998   5.278
  100SAPE  H12X10144   1.034   3.947   5.368
  100SAPE  H12Y10145   1.068   4.044   5.211
  100SAPE  C31310146   0.906   3.886   5.206
  100SAPE  H13X10147   0.816   3.868   5.269
  100SAPE  H13Y10148   0.971   3.798   5.193
  100SAPE  C31410149   0.850   3.933   5.069
  100SAPE  H14X10150   0.934   3.962   5.002
  100SAPE  H14Y10151   0.777   4.016   5.075
  100SAPE  C31510152   0.760   3.822   5.017
  100SAPE  H15X10153   0.687   3.792   5.094
  100SAPE  H15Y10154   0.825   3.739   4.982
  100SAPE  C31610155   0.672   3.864   4.893
  100SAPE  H16X10156   0.730   3.926   4.821
  100SAPE  H16Y10157   0.588   3.918   4.940
  100SAPE  C31710158   0.595   3.753   4.813
  100SAPE  H17X10159   0.521   3.701   4.878
  100SAPE  H17Y10160   0.668   3.684   4.766
  100SAPE  C31810161   0.509   3.812   4.699
  100SAPE  H18X10162   0.435   3.879   4.747
  100SAPE  H18Y10163   0.451   3.732   4.649
  100SAPE  H18Z10164   0.584   3.864   4.636
  101SAPE     N10165   0.720   6.415   6.818
  101SAPE   HN110166   0.791   6.399   6.892
  101SAPE   HN210167   0.697   6.515   6.833
  101SAPE   HN310168   0.636   6.358   6.839
  101SAPE   C1210169   0.774   6.390   6.679
  101SAPE  H12A10170   0.692   6.364   6.608
  101SAPE  H12B10171   0.844   6.305   6.692
  101SAPE   C1110172   0.853   6.505   6.619
  101SAPE  H11A10173   0.799   6.602   6.619
  101SAPE  H11B10174   0.864   6.496   6.508
  101SAPE     P10175   1.062   6.634   6.699
  101SAPE   O1310176   0.979   6.761   6.682
  101SAPE   O1410177   1.141   6.620   6.824
  101SAPE   O1210178   0.979   6.504   6.683
  101SAPE   O1110179   1.173   6.625   6.590
  101SAPE    C110180   1.177   6.539   6.485
  101SAPE    HA10181   1.286   6.519   6.479
  101SAPE    HB10182   1.127   6.442   6.501
  101SAPE    C210183   1.122   6.608   6.353
  101SAPE    HS10184   1.014   6.629   6.366
  101SAPE   O2110185   1.161   6.516   6.249
  101SAPE   C2110186   1.072   6.427   6.216
  101SAPE   O2210187   0.972   6.395   6.282
  101SAPE   C2210188   1.107   6.366   6.073
  101SAPE   H2R10189   1.097   6.449   6.000
  101SAPE   H2S10190   1.210   6.329   6.087
  101SAPE    C310191   1.193   6.747   6.330
  101SAPE    HX10192   1.301   6.727   6.314
  101SAPE    HY10193   1.186   6.810   6.421
  101SAPE   O3110194   1.135   6.800   6.208
  101SAPE   C3110195   1.146   6.936   6.207
  101SAPE   O3210196   1.161   7.000   6.307
  101SAPE   C3210197   1.153   6.971   6.061
  101SAPE   H2X10198   1.051   6.954   6.020
  101SAPE   H2Y10199   1.224   6.898   6.016
  101SAPE   C2310200   1.002   6.254   6.029
  101SAPE   H3R10201   0.901   6.283   6.066
  101SAPE   H3S10202   1.034   6.163   6.084
  101SAPE   C2410203   1.009   6.228   5.880
  101SAPE   H4R10204   0.984   6.331   5.847
  101SAPE   H4S10205   0.926   6.156   5.866
  101SAPE   C2510206   1.132   6.164   5.833
  101SAPE   H5R10207   1.230   6.177   5.881
  101SAPE   C2610208   1.147   6.106   5.712
  101SAPE   H6R10209   1.248   6.067   5.693
  101SAPE   C2710210   1.044   6.096   5.600
  101SAPE   H7R10211   0.958   6.160   5.630
  101SAPE   H7S10212   0.998   5.995   5.607
  101SAPE   C2810213   1.099   6.120   5.465
  101SAPE   H8R10214   1.170   6.047   5.421
  101SAPE   C2910215   1.084   6.220   5.381
  101SAPE   H9R10216   1.131   6.202   5.283
  101SAPE  C21010217   0.999   6.342   5.400
  101SAPE  H10R10218   0.947   6.337   5.498
  101SAPE  H10S10219   0.919   6.345   5.322
  101SAPE  C21110220   1.079   6.474   5.392
  101SAPE  H11R10221   1.114   6.512   5.489
  101SAPE  C21210222   1.141   6.523   5.282
  101SAPE  H12R10223   1.214   6.603   5.300
  101SAPE  C21310224   1.140   6.457   5.149
  101SAPE  H13R10225   1.074   6.368   5.157
  101SAPE  H13S10226   1.242   6.421   5.122
  101SAPE  C21410227   1.077   6.558   5.055
  101SAPE  H14R10228   0.986   6.603   5.095
  101SAPE  C21510229   1.132   6.602   4.942
  101SAPE  H15R10230   1.087   6.691   4.894
  101SAPE  C21610231   1.256   6.555   4.872
  101SAPE  H16R10232   1.270   6.448   4.898
  101SAPE  H16S10233   1.343   6.609   4.917
  101SAPE  C21710234   1.263   6.570   4.718
  101SAPE  H17R10235   1.236   6.674   4.688
  101SAPE  H17S10236   1.193   6.499   4.670
  101SAPE  C21810237   1.410   6.540   4.668
  101SAPE  H18R10238   1.428   6.437   4.706
  101SAPE  H18S10239   1.477   6.611   4.720
  101SAPE  C21910240   1.417   6.551   4.516
  101SAPE  H19R10241   1.408   6.657   4.486
  101SAPE  H19S10242   1.329   6.494   4.479
  101SAPE  C22010243   1.545   6.492   4.457
  101SAPE  H20R10244   1.551   6.389   4.498
  101SAPE  H20S10245   1.639   6.545   4.484
  101SAPE  H20T10246   1.541   6.485   4.346
  101SAPE   C3310247   1.187   7.125   6.047
  101SAPE   H3X10248   1.295   7.147   6.060
  101SAPE   H3Y10249   1.123   7.173   6.125
  101SAPE   C3410250   1.156   7.188   5.914
  101SAPE   H4X10251   1.045   7.197   5.910
  101SAPE   H4Y10252   1.195   7.126   5.830
  101SAPE   C3510253   1.218   7.325   5.892
  101SAPE   H5X10254   1.328   7.311   5.898
  101SAPE   H5Y10255   1.184   7.390   5.975
  101SAPE   C3610256   1.164   7.388   5.763
  101SAPE   H6X10257   1.158   7.495   5.793
  101SAPE   H6Y10258   1.067   7.364   5.715
  101SAPE   C3710259   1.258   7.360   5.648
  101SAPE   H7X10260   1.283   7.252   5.664
  101SAPE   H7Y10261   1.354   7.409   5.676
  101SAPE   C3810262   1.207   7.388   5.503
  101SAPE   H8X10263   1.178   7.494   5.488
  101SAPE   H8Y10264   1.124   7.318   5.480
  101SAPE   C3910265   1.308   7.364   5.387
  101SAPE   H9X10266   1.341   7.259   5.396
  101SAPE   H9Y10267   1.400   7.427   5.395
  101SAPE  C31010268   1.240   7.394   5.249
  101SAPE  H10X10269   1.133   7.401   5.280
  101SAPE  H10Y10270   1.270   7.303   5.193
  101SAPE  C31110271   1.282   7.522   5.173
  101SAPE  H11X10272   1.393   7.530   5.181
  101SAPE  H11Y10273   1.244   7.618   5.216
  101SAPE  C31210274   1.234   7.501   5.029
  101SAPE  H12X10275   1.124   7.492   5.032
  101SAPE  H12Y10276   1.280   7.406   4.994
  101SAPE  C31310277   1.280   7.601   4.929
  101SAPE  H13X10278   1.390   7.609   4.940
  101SAPE  H13Y10279   1.240   7.702   4.953
  101SAPE  C31410280   1.252   7.576   4.779
  101SAPE  H14X10281   1.143   7.568   4.760
  101SAPE  H14Y10282   1.297   7.479   4.751
  101SAPE  C31510283   1.306   7.687   4.693
  101SAPE  H15X10284   1.416   7.692   4.705
  101SAPE  H15Y10285   1.266   7.786   4.724
  101SAPE  C31610286   1.264   7.666   4.544
  101SAPE  H16X10287   1.157   7.639   4.536
  101SAPE  H16Y10288   1.322   7.580   4.504
  101SAPE  C31710289   1.285   7.789   4.456
  101SAPE  H17X10290   1.375   7.841   4.494
  101SAPE  H17Y10291   1.194   7.853   4.454
  101SAPE  C31810292   1.320   7.758   4.308
  101SAPE  H18X10293   1.263   7.665   4.285
  101SAPE  H18Y10294   1.430   7.741   4.303
  101SAPE  H18Z10295   1.294   7.845   4.244
  102SAPE     N10296   0.339   5.878   6.444
  102SAPE   HN110297   0.253   5.845   6.492
  102SAPE   HN210298   0.415   5.848   6.509
  102SAPE   HN310299   0.339   5.981   6.435
  102SAPE   C1210300   0.354   5.815   6.308
  102SAPE  H12A10301   0.443   5.857   6.255
  102SAPE  H12B10302   0.258   5.839   6.258
  102SAPE   C1110303   0.363   5.663   6.325
  102SAPE  H11A10304   0.361   5.616   6.225
  102SAPE  H11B10305   0.277   5.625   6.385
  102SAPE     P10306   0.551   5.487   6.397
  102SAPE   O1310307   0.659   5.487   6.498
  102SAPE   O1410308   0.452   5.376   6.409
  102SAPE   O1210309   0.471   5.630   6.400
  102SAPE   O1110310   0.614   5.496   6.257
  102SAPE    C110311   0.666   5.610   6.198
  102SAPE    HA10312   0.625   5.699   6.251
  102SAPE    HB10313   0.777   5.613   6.208
  102SAPE    C210314   0.629   5.623   6.040
  102SAPE    HS10315   0.646   5.729   6.009
  102SAPE   O2110316   0.485   5.600   6.014
  102SAPE   C2110317   0.419   5.681   5.926
  102SAPE   O2210318   0.474   5.766   5.861
  102SAPE   C2210319   0.263   5.637   5.915
  102SAPE   H2R10320   0.256   5.539   5.968
  102SAPE   H2S10321   0.196   5.704   5.974
  102SAPE    C310322   0.714   5.536   5.950
  102SAPE    HX10323   0.672   5.433   5.954
  102SAPE    HY10324   0.822   5.542   5.973
  102SAPE   O3110325   0.694   5.576   5.809
  102SAPE   C3110326   0.766   5.679   5.756
  102SAPE   O3210327   0.845   5.744   5.819
  102SAPE   C3210328   0.730   5.699   5.606
  102SAPE   H2X10329   0.741   5.806   5.578
  102SAPE   H2Y10330   0.620   5.684   5.599
  102SAPE   C2310331   0.209   5.622   5.775
  102SAPE   H3R10332   0.127   5.549   5.794
  102SAPE   H3S10333   0.291   5.573   5.718
  102SAPE   C2410334   0.161   5.751   5.708
  102SAPE   H4R10335   0.246   5.819   5.686
  102SAPE   H4S10336   0.102   5.799   5.789
  102SAPE   C2510337   0.082   5.715   5.588
  102SAPE   H5R10338  -0.028   5.716   5.601
  102SAPE   C2610339   0.127   5.709   5.463
  102SAPE   H6R10340   0.066   5.679   5.377
  102SAPE   C2710341   0.276   5.712   5.433
  102SAPE   H7R10342   0.345   5.732   5.518
  102SAPE   H7S10343   0.285   5.786   5.350
  102SAPE   C2810344   0.319   5.577   5.394
  102SAPE   H8R10345   0.332   5.513   5.483
  102SAPE   C2910346   0.355   5.530   5.268
  102SAPE   H9R10347   0.382   5.424   5.252
  102SAPE  C21010348   0.355   5.613   5.145
  102SAPE  H10R10349   0.391   5.715   5.169
  102SAPE  H10S10350   0.246   5.630   5.129
  102SAPE  C21110351   0.440   5.553   5.038
  102SAPE  H11R10352   0.545   5.558   5.070
  102SAPE  C21210353   0.408   5.482   4.932
  102SAPE  H12R10354   0.493   5.442   4.875
  102SAPE  C21310355   0.272   5.453   4.890
  102SAPE  H13R10356   0.201   5.425   4.971
  102SAPE  H13S10357   0.276   5.369   4.817
  102SAPE  C21410358   0.207   5.574   4.822
  102SAPE  H14R10359   0.258   5.619   4.736
  102SAPE  C21510360   0.076   5.618   4.837
  102SAPE  H15R10361   0.049   5.712   4.786
  102SAPE  C21610362  -0.034   5.561   4.929
  102SAPE  H16R10363   0.015   5.482   4.988
  102SAPE  H16S10364  -0.116   5.527   4.862
  102SAPE  C21710365  -0.066   5.669   5.031
  102SAPE  H17R10366  -0.129   5.751   4.991
  102SAPE  H17S10367   0.022   5.712   5.082
  102SAPE  C21810368  -0.142   5.604   5.150
  102SAPE  H18R10369  -0.075   5.532   5.202
  102SAPE  H18S10370  -0.226   5.540   5.115
  102SAPE  C21910371  -0.198   5.705   5.244
  102SAPE  H19R10372  -0.264   5.783   5.201
  102SAPE  H19S10373  -0.112   5.764   5.284
  102SAPE  C22010374  -0.274   5.629   5.357
  102SAPE  H20R10375  -0.355   5.576   5.303
  102SAPE  H20S10376  -0.327   5.700   5.424
  102SAPE  H20T10377  -0.190   5.570   5.400
  102SAPE   C3310378   0.807   5.608   5.505
  102SAPE   H3X10379   0.754   5.597   5.408
  102SAPE   H3Y10380   0.822   5.504   5.541
  102SAPE   C3410381   0.941   5.670   5.464
  102SAPE   H4X10382   0.985   5.705   5.560
  102SAPE   H4Y10383   0.919   5.763   5.407
  102SAPE   C3510384   1.027   5.564   5.398
  102SAPE   H5X10385   0.974   5.538   5.304
  102SAPE   H5Y10386   1.039   5.472   5.460
  102SAPE   C3610387   1.169   5.622   5.359
  102SAPE   H6X10388   1.231   5.649   5.448
  102SAPE   H6Y10389   1.152   5.705   5.287
  102SAPE   C3710390   1.249   5.502   5.294
  102SAPE   H7X10391   1.196   5.466   5.204
  102SAPE   H7Y10392   1.249   5.428   5.377
  102SAPE   C3810393   1.390   5.545   5.245
  102SAPE   H8X10394   1.441   5.585   5.336
  102SAPE   H8Y10395   1.382   5.627   5.170
  102SAPE   C3910396   1.460   5.425   5.190
  102SAPE   H9X10397   1.444   5.348   5.268
  102SAPE   H9Y10398   1.568   5.452   5.185
  102SAPE  C31010399   1.404   5.373   5.058
  102SAPE  H10X10400   1.295   5.349   5.064
  102SAPE  H10Y10401   1.447   5.273   5.036
  102SAPE  C31110402   1.428   5.470   4.944
  102SAPE  H11X10403   1.538   5.479   4.939
  102SAPE  H11Y10404   1.366   5.560   4.969
  102SAPE  C31210405   1.380   5.420   4.807
  102SAPE  H12X10406   1.274   5.390   4.820
  102SAPE  H12Y10407   1.435   5.325   4.788
  102SAPE  C31310408   1.408   5.510   4.691
  102SAPE  H13X10409   1.495   5.465   4.638
  102SAPE  H13Y10410   1.420   5.616   4.723
  102SAPE  C31410411   1.302   5.505   4.578
  102SAPE  H14X10412   1.202   5.549   4.599
  102SAPE  H14Y10413   1.278   5.402   4.543
  102SAPE  C31510414   1.359   5.573   4.450
  102SAPE  H15X10415   1.456   5.526   4.424
  102SAPE  H15Y10416   1.385   5.681   4.461
  102SAPE  C31610417   1.270   5.556   4.323
  102SAPE  H16X10418   1.164   5.589   4.334
  102SAPE  H16Y10419   1.247   5.452   4.292
  102SAPE  C31710420   1.333   5.624   4.200
  102SAPE  H17X10421   1.431   5.573   4.193
  102SAPE  H17Y10422   1.348   5.731   4.224
  102SAPE  C31810423   1.254   5.606   4.069
  102SAPE  H18X10424   1.146   5.614   4.091
  102SAPE  H18Y10425   1.284   5.513   4.016
  102SAPE  H18Z10426   1.276   5.687   3.996
  103SAPE     N10427   0.541   4.534   2.149
  103SAPE   HN110428   0.452   4.585   2.165
  103SAPE   HN210429   0.624   4.596   2.156
  103SAPE   HN310430   0.537   4.494   2.053
  103SAPE   C1210431   0.550   4.411   2.240
  103SAPE  H12A10432   0.638   4.353   2.204
  103SAPE  H12B10433   0.458   4.350   2.225
  103SAPE   C1110434   0.546   4.468   2.383
  103SAPE  H11A10435   0.647   4.501   2.415
  103SAPE  H11B10436   0.528   4.381   2.449
  103SAPE     P10437   0.483   4.719   2.433
  103SAPE   O1310438   0.572   4.769   2.323
  103SAPE   O1410439   0.355   4.782   2.445
  103SAPE   O1210440   0.448   4.569   2.404
  103SAPE   O1110441   0.561   4.732   2.574
  103SAPE    C110442   0.524   4.650   2.687
  103SAPE    HA10443   0.468   4.557   2.663
  103SAPE    HB10444   0.616   4.603   2.728
  103SAPE    C210445   0.449   4.735   2.787
  103SAPE    HS10446   0.373   4.802   2.742
  103SAPE   O2110447   0.540   4.818   2.864
  103SAPE   C2110448   0.567   4.942   2.824
  103SAPE   O2210449   0.520   4.997   2.726
  103SAPE   C2210450   0.667   5.008   2.920
  103SAPE   H2R10451   0.605   5.038   3.008
  103SAPE   H2S10452   0.745   4.936   2.950
  103SAPE    C310453   0.357   4.658   2.877
  103SAPE    HX10454   0.298   4.592   2.810
  103SAPE    HY10455   0.282   4.722   2.928
  103SAPE   O3110456   0.432   4.570   2.969
  103SAPE   C3110457   0.450   4.622   3.093
  103SAPE   O3210458   0.401   4.727   3.130
  103SAPE   C3210459   0.538   4.543   3.190
  103SAPE   H2X10460   0.644   4.554   3.157
  103SAPE   H2Y10461   0.514   4.436   3.177
  103SAPE   C2310462   0.733   5.145   2.876
  103SAPE   H3R10463   0.665   5.228   2.847
  103SAPE   H3S10464   0.802   5.119   2.793
  103SAPE   C2410465   0.818   5.197   2.993
  103SAPE   H4R10466   0.891   5.263   2.942
  103SAPE   H4S10467   0.880   5.111   3.025
  103SAPE   C2510468   0.749   5.262   3.105
  103SAPE   H5R10469   0.711   5.361   3.077
  103SAPE   C2610470   0.728   5.210   3.227
  103SAPE   H6R10471   0.659   5.259   3.297
  103SAPE   C2710472   0.766   5.072   3.267
  103SAPE   H7R10473   0.874   5.074   3.297
  103SAPE   H7S10474   0.764   5.002   3.182
  103SAPE   C2810475   0.689   5.022   3.383
  103SAPE   H8R10476   0.614   4.948   3.351
  103SAPE   C2910477   0.693   5.053   3.511
  103SAPE   H9R10478   0.618   5.004   3.575
  103SAPE  C21010479   0.785   5.141   3.588
  103SAPE  H10R10480   0.737   5.230   3.634
  103SAPE  H10S10481   0.870   5.170   3.523
  103SAPE  C21110482   0.846   5.054   3.692
  103SAPE  H11R10483   0.937   4.995   3.673
  103SAPE  C21210484   0.799   5.040   3.819
  103SAPE  H12R10485   0.858   4.993   3.899
  103SAPE  C21310486   0.672   5.108   3.877
  103SAPE  H13R10487   0.621   5.026   3.932
  103SAPE  H13S10488   0.605   5.147   3.798
  103SAPE  C21410489   0.701   5.228   3.970
  103SAPE  H14R10490   0.721   5.319   3.911
  103SAPE  C21510491   0.683   5.234   4.103
  103SAPE  H15R10492   0.721   5.325   4.153
  103SAPE  C21610493   0.660   5.123   4.202
  103SAPE  H16R10494   0.733   5.040   4.190
  103SAPE  H16S10495   0.554   5.090   4.191
  103SAPE  C21710496   0.686   5.168   4.348
  103SAPE  H17R10497   0.790   5.206   4.358
  103SAPE  H17S10498   0.674   5.083   4.419
  103SAPE  C21810499   0.581   5.270   4.392
  103SAPE  H18R10500   0.484   5.243   4.345
  103SAPE  H18S10501   0.596   5.371   4.350
  103SAPE  C21910502   0.558   5.280   4.541
  103SAPE  H19R10503   0.542   5.176   4.579
  103SAPE  H19S10504   0.472   5.346   4.566
  103SAPE  C22010505   0.677   5.337   4.624
  103SAPE  H20R10506   0.695   5.444   4.600
  103SAPE  H20S10507   0.771   5.288   4.589
  103SAPE  H20T10508   0.643   5.323   4.728
  103SAPE   C3310509   0.534   4.572   3.332
  103SAPE   H3X10510   0.435   4.538   3.368
  103SAPE   H3Y10511   0.547   4.681   3.351
  103SAPE   C3410512   0.657   4.505   3.411
  103SAPE   H4X10513   0.734   4.579   3.382
  103SAPE   H4Y10514   0.676   4.407   3.363
  103SAPE   C3510515   0.648   4.478   3.564
  103SAPE   H5X10516   0.740   4.426   3.599
  103SAPE   H5Y10517   0.566   4.403   3.571
  103SAPE   C3610518   0.624   4.603   3.655
  103SAPE   H6X10519   0.532   4.652   3.616
  103SAPE   H6Y10520   0.702   4.682   3.658
  103SAPE   C3710521   0.602   4.549   3.800
  103SAPE   H7X10522   0.707   4.524   3.828
  103SAPE   H7Y10523   0.538   4.458   3.799
  103SAPE   C3810524   0.546   4.648   3.906
  103SAPE   H8X10525   0.439   4.667   3.884
  103SAPE   H8Y10526   0.584   4.752   3.902
  103SAPE   C3910527   0.562   4.582   4.043
  103SAPE   H9X10528   0.670   4.554   4.052
  103SAPE   H9Y10529   0.502   4.489   4.039
  103SAPE  C31010530   0.525   4.675   4.158
  103SAPE  H10X10531   0.414   4.670   4.163
  103SAPE  H10Y10532   0.552   4.782   4.144
  103SAPE  C31110533   0.588   4.635   4.297
  103SAPE  H11X10534   0.693   4.614   4.269
  103SAPE  H11Y10535   0.539   4.542   4.333
  103SAPE  C31210536   0.578   4.750   4.405
  103SAPE  H12X10537   0.478   4.763   4.450
  103SAPE  H12Y10538   0.596   4.845   4.350
  103SAPE  C31310539   0.669   4.725   4.523
  103SAPE  H13X10540   0.771   4.733   4.478
  103SAPE  H13Y10541   0.661   4.625   4.571
  103SAPE  C31410542   0.656   4.831   4.632
  103SAPE  H14X10543   0.550   4.865   4.634
  103SAPE  H14Y10544   0.710   4.920   4.595
  103SAPE  C31510545   0.684   4.785   4.769
  103SAPE  H15X10546   0.794   4.795   4.783
  103SAPE  H15Y10547   0.668   4.676   4.778
  103SAPE  C31610548   0.610   4.857   4.880
  103SAPE  H16X10549   0.605   4.966   4.859
  103SAPE  H16Y10550   0.661   4.842   4.978
  103SAPE  C31710551   0.466   4.802   4.894
  103SAPE  H17X10552   0.468   4.692   4.915
  103SAPE  H17Y10553   0.419   4.825   4.796
  103SAPE  C31810554   0.382   4.865   5.006
  103SAPE  H18X10555   0.398   4.975   5.008
  103SAPE  H18Y10556   0.410   4.839   5.110
  103SAPE  H18Z10557   0.277   4.835   4.985
  104SAPE     N10558   0.863   4.117   2.281
  104SAPE   HN110559   0.967   4.126   2.286
  104SAPE   HN210560   0.826   4.022   2.262
  104SAPE   HN310561   0.823   4.175   2.204
  104SAPE   C1210562   0.807   4.157   2.420
  104SAPE  H12A10563   0.817   4.069   2.488
  104SAPE  H12B10564   0.703   4.182   2.391
  104SAPE   C1110565   0.889   4.278   2.475
  104SAPE  H11A10566   0.991   4.240   2.496
  104SAPE  H11B10567   0.858   4.305   2.578
  104SAPE     P10568   0.992   4.481   2.364
  104SAPE   O1310569   1.119   4.416   2.307
  104SAPE   O1410570   0.947   4.598   2.284
  104SAPE   O1210571   0.878   4.378   2.379
  104SAPE   O1110572   1.003   4.527   2.515
  104SAPE    C110573   0.890   4.602   2.568
  104SAPE    HA10574   0.879   4.697   2.512
  104SAPE    HB10575   0.793   4.549   2.557
  104SAPE    C210576   0.893   4.623   2.723
  104SAPE    HS10577   0.809   4.690   2.754
  104SAPE   O2110578   1.014   4.684   2.754
  104SAPE   C2110579   1.035   4.805   2.713
  104SAPE   O2210580   0.951   4.882   2.660
  104SAPE   C2210581   1.183   4.843   2.720
  104SAPE   H2R10582   1.241   4.758   2.762
  104SAPE   H2S10583   1.211   4.848   2.612
  104SAPE    C310584   0.863   4.490   2.795
  104SAPE    HX10585   0.947   4.422   2.767
  104SAPE    HY10586   0.773   4.438   2.755
  104SAPE   O3110587   0.861   4.515   2.939
  104SAPE   C3110588   0.986   4.534   2.990
  104SAPE   O3210589   1.088   4.492   2.948
  104SAPE   C3210590   0.985   4.634   3.101
  104SAPE   H2X10591   0.902   4.708   3.088
  104SAPE   H2Y10592   1.084   4.683   3.091
  104SAPE   C2310593   1.222   4.967   2.800
  104SAPE   H3R10594   1.164   5.059   2.777
  104SAPE   H3S10595   1.326   4.997   2.772
  104SAPE   C2410596   1.233   4.929   2.956
  104SAPE   H4R10597   1.281   4.831   2.975
  104SAPE   H4S10598   1.128   4.928   2.993
  104SAPE   C2510599   1.312   5.033   3.028
  104SAPE   H5R10600   1.402   5.080   2.986
  104SAPE   C2610601   1.285   5.063   3.159
  104SAPE   H6R10602   1.355   5.132   3.208
  104SAPE   C2710603   1.171   5.011   3.240
  104SAPE   H7R10604   1.195   4.912   3.284
  104SAPE   H7S10605   1.084   4.980   3.179
  104SAPE   C2810606   1.136   5.112   3.338
  104SAPE   H8R10607   1.062   5.184   3.298
  104SAPE   C2910608   1.174   5.130   3.463
  104SAPE   H9R10609   1.129   5.214   3.518
  104SAPE  C21010610   1.277   5.041   3.536
  104SAPE  H10R10611   1.310   4.957   3.471
  104SAPE  H10S10612   1.226   4.984   3.616
  104SAPE  C21110613   1.399   5.113   3.592
  104SAPE  H11R10614   1.473   5.134   3.513
  104SAPE  C21210615   1.426   5.160   3.716
  104SAPE  H12R10616   1.519   5.219   3.730
  104SAPE  C21310617   1.340   5.139   3.842
  104SAPE  H13R10618   1.392   5.183   3.930
  104SAPE  H13S10619   1.315   5.031   3.855
  104SAPE  C21410620   1.203   5.209   3.828
  104SAPE  H14R10621   1.208   5.286   3.749
  104SAPE  C21510622   1.103   5.195   3.917
  104SAPE  H15R10623   1.007   5.246   3.903
  104SAPE  C21610624   1.106   5.099   4.037
  104SAPE  H16R10625   1.191   5.027   4.034
  104SAPE  H16S10626   1.011   5.041   4.042
  104SAPE  C21710627   1.117   5.180   4.167
  104SAPE  H17R10628   1.039   5.258   4.157
  104SAPE  H17S10629   1.218   5.222   4.187
  104SAPE  C21810630   1.088   5.090   4.288
  104SAPE  H18R10631   1.167   5.012   4.283
  104SAPE  H18S10632   0.995   5.033   4.265
  104SAPE  C21910633   1.089   5.162   4.424
  104SAPE  H19R10634   1.009   5.239   4.421
  104SAPE  H19S10635   1.192   5.206   4.430
  104SAPE  C22010636   1.062   5.078   4.556
  104SAPE  H20R10637   0.956   5.044   4.555
  104SAPE  H20S10638   1.074   5.133   4.651
  104SAPE  H20T10639   1.126   4.987   4.543
  104SAPE   C3310640   0.988   4.564   3.236
  104SAPE   H3X10641   1.081   4.503   3.244
  104SAPE   H3Y10642   0.898   4.500   3.255
  104SAPE   C3410643   1.015   4.672   3.349
  104SAPE   H4X10644   0.942   4.755   3.342
  104SAPE   H4Y10645   1.116   4.717   3.335
  104SAPE   C3510646   1.011   4.611   3.491
  104SAPE   H5X10647   1.082   4.527   3.481
  104SAPE   H5Y10648   0.908   4.571   3.504
  104SAPE   C3610649   1.053   4.711   3.603
  104SAPE   H6X10650   0.988   4.798   3.583
  104SAPE   H6Y10651   1.157   4.747   3.593
  104SAPE   C3710652   1.031   4.650   3.736
  104SAPE   H7X10653   1.083   4.552   3.736
  104SAPE   H7Y10654   0.920   4.636   3.739
  104SAPE   C3810655   1.071   4.728   3.858
  104SAPE   H8X10656   1.017   4.826   3.860
  104SAPE   H8Y10657   1.179   4.753   3.857
  104SAPE   C3910658   1.028   4.653   3.983
  104SAPE   H9X10659   1.028   4.544   3.964
  104SAPE   H9Y10660   0.923   4.680   4.005
  104SAPE  C31010661   1.122   4.678   4.100
  104SAPE  H10X10662   1.148   4.786   4.107
  104SAPE  H10Y10663   1.212   4.617   4.078
  104SAPE  C31110664   1.060   4.637   4.234
  104SAPE  H11X10665   1.026   4.532   4.239
  104SAPE  H11Y10666   0.972   4.704   4.245
  104SAPE  C31210667   1.143   4.670   4.356
  104SAPE  H12X10668   1.185   4.772   4.348
  104SAPE  H12Y10669   1.232   4.604   4.347
  104SAPE  C31310670   1.080   4.657   4.490
  104SAPE  H13X10671   1.023   4.747   4.521
  104SAPE  H13Y10672   1.160   4.636   4.564
  104SAPE  C31410673   0.975   4.539   4.498
  104SAPE  H14X10674   1.031   4.457   4.447
  104SAPE  H14Y10675   0.888   4.552   4.430
  104SAPE  C31510676   0.947   4.495   4.642
  104SAPE  H15X10677   0.879   4.572   4.684
  104SAPE  H15Y10678   1.041   4.497   4.702
  104SAPE  C31610679   0.887   4.356   4.648
  104SAPE  H16X10680   0.951   4.272   4.614
  104SAPE  H16Y10681   0.795   4.349   4.585
  104SAPE  C31710682   0.834   4.314   4.790
  104SAPE  H17X10683   0.786   4.214   4.785
  104SAPE  H17Y10684   0.762   4.388   4.831
  104SAPE  C31810685   0.946   4.307   4.909
  104SAPE  H18X10686   1.006   4.401   4.910
  104SAPE  H18Y10687   1.005   4.216   4.885
  104SAPE  H18Z10688   0.896   4.294   5.008
  105SAPE     N10689   3.703   3.133   1.828
  105SAPE   HN110690   3.710   3.111   1.726
  105SAPE   HN210691   3.627   3.203   1.834
  105SAPE   HN310692   3.789   3.178   1.865
  105SAPE   C1210693   3.655   3.016   1.913
  105SAPE  H12A10694   3.545   3.013   1.901
  105SAPE  H12B10695   3.680   3.026   2.021
  105SAPE   C1110696   3.711   2.883   1.861
  105SAPE  H11A10697   3.699   2.890   1.751
  105SAPE  H11B10698   3.646   2.809   1.913
  105SAPE     P10699   3.932   2.746   1.895
  105SAPE   O1310700   3.921   2.685   1.757
  105SAPE   O1410701   4.065   2.770   1.949
  105SAPE   O1210702   3.846   2.880   1.902
  105SAPE   O1110703   3.857   2.648   1.993
  105SAPE    C110704   3.803   2.675   2.124
  105SAPE    HA10705   3.730   2.759   2.126
  105SAPE    HB10706   3.746   2.587   2.161
  105SAPE    C210707   3.914   2.702   2.231
  105SAPE    HS10708   4.009   2.655   2.200
  105SAPE   O2110709   3.861   2.653   2.359
  105SAPE   C2110710   3.959   2.629   2.449
  105SAPE   O2210711   4.078   2.645   2.425
  105SAPE   C2210712   3.911   2.581   2.581
  105SAPE   H2R10713   3.864   2.657   2.647
  105SAPE   H2S10714   3.836   2.503   2.560
  105SAPE    C310715   3.940   2.851   2.242
  105SAPE    HX10716   3.884   2.912   2.167
  105SAPE    HY10717   4.047   2.873   2.218
  105SAPE   O3110718   3.917   2.907   2.373
  105SAPE   C3110719   3.942   3.032   2.388
  105SAPE   O3210720   3.988   3.105   2.299
  105SAPE   C3210721   3.902   3.077   2.527
  105SAPE   H2X10722   3.799   3.111   2.507
  105SAPE   H2Y10723   3.963   3.163   2.561
  105SAPE   C2310724   4.025   2.525   2.672
  105SAPE   H3R10725   4.096   2.468   2.608
  105SAPE   H3S10726   3.986   2.450   2.743
  105SAPE   C2410727   4.097   2.637   2.744
  105SAPE   H4R10728   4.026   2.695   2.807
  105SAPE   H4S10729   4.135   2.706   2.665
  105SAPE   C2510730   4.211   2.576   2.837
  105SAPE   H5R10731   4.309   2.580   2.788
  105SAPE   C2610732   4.205   2.526   2.955
  105SAPE   H6R10733   4.287   2.489   3.020
  105SAPE   C2710734   4.080   2.523   3.045
  105SAPE   H7R10735   3.986   2.550   2.993
  105SAPE   H7S10736   4.096   2.608   3.115
  105SAPE   C2810737   4.075   2.391   3.116
  105SAPE   H8R10738   4.081   2.304   3.049
  105SAPE   C2910739   4.072   2.369   3.251
  105SAPE   H9R10740   4.089   2.263   3.278
  105SAPE  C21010741   4.066   2.469   3.367
  105SAPE  H10R10742   4.033   2.565   3.322
  105SAPE  H10S10743   4.159   2.478   3.428
  105SAPE  C21110744   3.948   2.444   3.459
  105SAPE  H11R10745   3.854   2.467   3.408
  105SAPE  C21210746   3.944   2.379   3.570
  105SAPE  H12R10747   3.853   2.371   3.631
  105SAPE  C21310748   4.071   2.326   3.645
  105SAPE  H13R10749   4.132   2.411   3.682
  105SAPE  H13S10750   4.131   2.267   3.573
  105SAPE  C21410751   4.034   2.248   3.770
  105SAPE  H14R10752   3.986   2.306   3.849
  105SAPE  C21510753   4.095   2.127   3.792
  105SAPE  H15R10754   4.056   2.069   3.877
  105SAPE  C21610755   4.195   2.044   3.706
  105SAPE  H16R10756   4.181   2.058   3.596
  105SAPE  H16S10757   4.185   1.939   3.740
  105SAPE  C21710758   4.340   2.080   3.730
  105SAPE  H17R10759   4.345   2.186   3.697
  105SAPE  H17S10760   4.409   2.029   3.660
  105SAPE  C21810761   4.390   2.064   3.877
  105SAPE  H18R10762   4.312   2.064   3.956
  105SAPE  H18S10763   4.460   2.148   3.898
  105SAPE  C21910764   4.473   1.926   3.895
  105SAPE  H19R10765   4.540   1.939   3.807
  105SAPE  H19S10766   4.405   1.840   3.880
  105SAPE  C22010767   4.554   1.905   4.025
  105SAPE  H20R10768   4.500   1.941   4.115
  105SAPE  H20S10769   4.655   1.953   4.021
  105SAPE  H20T10770   4.567   1.796   4.038
  105SAPE   C3310771   3.900   2.962   2.635
  105SAPE   H3X10772   4.001   2.916   2.641
  105SAPE   H3Y10773   3.831   2.882   2.599
  105SAPE   C3410774   3.854   3.013   2.774
  105SAPE   H4X10775   3.763   3.076   2.762
  105SAPE   H4Y10776   3.939   3.066   2.822
  105SAPE   C3510777   3.834   2.899   2.878
  105SAPE   H5X10778   3.922   2.836   2.905
  105SAPE   H5Y10779   3.759   2.835   2.826
  105SAPE   C3610780   3.769   2.955   3.009
  105SAPE   H6X10781   3.708   2.874   3.054
  105SAPE   H6Y10782   3.715   3.050   2.989
  105SAPE   C3710783   3.871   2.985   3.114
  105SAPE   H7X10784   3.821   3.064   3.175
  105SAPE   H7Y10785   3.970   3.020   3.078
  105SAPE   C3810786   3.893   2.859   3.205
  105SAPE   H8X10787   3.902   2.773   3.135
  105SAPE   H8Y10788   3.801   2.839   3.263
  105SAPE   C3910789   4.013   2.883   3.298
  105SAPE   H9X10790   4.097   2.912   3.231
  105SAPE   H9Y10791   4.043   2.780   3.328
  105SAPE  C31010792   3.996   2.979   3.414
  105SAPE  H10X10793   3.905   2.945   3.468
  105SAPE  H10Y10794   3.977   3.079   3.371
  105SAPE  C31110795   4.113   2.996   3.519
  105SAPE  H11X10796   4.201   3.023   3.457
  105SAPE  H11Y10797   4.135   2.898   3.568
  105SAPE  C31210798   4.080   3.101   3.622
  105SAPE  H12X10799   3.970   3.101   3.640
  105SAPE  H12Y10800   4.106   3.202   3.584
  105SAPE  C31310801   4.176   3.092   3.743
  105SAPE  H13X10802   4.283   3.099   3.711
  105SAPE  H13Y10803   4.166   2.989   3.784
  105SAPE  C31410804   4.142   3.193   3.853
  105SAPE  H14X10805   4.039   3.228   3.834
  105SAPE  H14Y10806   4.204   3.283   3.831
  105SAPE  C31510807   4.139   3.140   4.000
  105SAPE  H15X10808   4.050   3.076   4.015
  105SAPE  H15Y10809   4.113   3.234   4.053
  105SAPE  C31610810   4.272   3.072   4.034
  105SAPE  H16X10811   4.354   3.143   4.008
  105SAPE  H16Y10812   4.279   2.975   3.980
  105SAPE  C31710813   4.283   3.030   4.176
  105SAPE  H17X10814   4.292   3.120   4.241
  105SAPE  H17Y10815   4.378   2.973   4.191
  105SAPE  C31810816   4.182   2.927   4.219
  105SAPE  H18X10817   4.204   2.827   4.176
  105SAPE  H18Y10818   4.080   2.958   4.189
  105SAPE  H18Z10819   4.193   2.906   4.327
  106SAPE     N10820   5.235   5.332   2.150
  106SAPE   HN110821   5.261   5.258   2.218
  106SAPE   HN210822   5.178   5.289   2.074
  106SAPE   HN310823   5.323   5.350   2.097
  106SAPE   C1210824   5.164   5.449   2.205
  106SAPE  H12A10825   5.119   5.505   2.121
  106SAPE  H12B10826   5.236   5.517   2.256
  106SAPE   C1110827   5.065   5.398   2.316
  106SAPE  H11A10828   5.005   5.483   2.354
  106SAPE  H11B10829   5.126   5.365   2.403
  106SAPE     P10830   4.828   5.297   2.246
  106SAPE   O1310831   4.807   5.427   2.183
  106SAPE   O1410832   4.779   5.174   2.177
  106SAPE   O1210833   4.984   5.292   2.266
  106SAPE   O1110834   4.774   5.293   2.395
  106SAPE    C110835   4.724   5.423   2.449
  106SAPE    HA10836   4.797   5.498   2.412
  106SAPE    HB10837   4.628   5.444   2.399
  106SAPE    C210838   4.723   5.428   2.605
  106SAPE    HS10839   4.705   5.531   2.644
  106SAPE   O2110840   4.851   5.388   2.656
  106SAPE   C2110841   4.949   5.481   2.639
  106SAPE   O2210842   4.936   5.589   2.588
  106SAPE   C2210843   5.078   5.413   2.687
  106SAPE   H2R10844   5.076   5.407   2.798
  106SAPE   H2S10845   5.075   5.307   2.654
  106SAPE    C310846   4.608   5.350   2.667
  106SAPE    HX10847   4.611   5.246   2.628
  106SAPE    HY10848   4.511   5.385   2.627
  106SAPE   O3110849   4.628   5.349   2.811
  106SAPE   C3110850   4.553   5.269   2.883
  106SAPE   O3210851   4.483   5.181   2.839
  106SAPE   C3210852   4.576   5.308   3.031
  106SAPE   H2X10853   4.513   5.396   3.056
  106SAPE   H2Y10854   4.680   5.345   3.041
  106SAPE   C2310855   5.214   5.484   2.638
  106SAPE   H3R10856   5.189   5.548   2.550
  106SAPE   H3S10857   5.286   5.414   2.591
  106SAPE   C2410858   5.267   5.570   2.754
  106SAPE   H4R10859   5.335   5.646   2.710
  106SAPE   H4S10860   5.341   5.510   2.811
  106SAPE   C2510861   5.169   5.646   2.837
  106SAPE   H5R10862   5.127   5.729   2.779
  106SAPE   C2610863   5.137   5.621   2.965
  106SAPE   H6R10864   5.060   5.685   3.010
  106SAPE   C2710865   5.198   5.518   3.052
  106SAPE   H7R10866   5.296   5.550   3.092
  106SAPE   H7S10867   5.231   5.432   2.991
  106SAPE   C2810868   5.121   5.464   3.171
  106SAPE   H8R10869   5.111   5.533   3.255
  106SAPE   C2910870   5.069   5.346   3.181
  106SAPE   H9R10871   5.021   5.321   3.278
  106SAPE  C21010872   5.061   5.240   3.075
  106SAPE  H10R10873   5.133   5.162   3.106
  106SAPE  H10S10874   5.099   5.277   2.977
  106SAPE  C21110875   4.925   5.181   3.063
  106SAPE  H11R10876   4.856   5.237   2.998
  106SAPE  C21210877   4.895   5.053   3.103
  106SAPE  H12R10878   4.793   5.012   3.094
  106SAPE  C21310879   4.997   4.963   3.176
  106SAPE  H13R10880   5.042   5.015   3.263
  106SAPE  H13S10881   5.076   4.928   3.107
  106SAPE  C21410882   4.931   4.843   3.242
  106SAPE  H14R10883   4.896   4.772   3.165
  106SAPE  C21510884   4.929   4.811   3.372
  106SAPE  H15R10885   4.870   4.724   3.405
  106SAPE  C21610886   5.003   4.890   3.481
  106SAPE  H16R10887   4.945   4.906   3.575
  106SAPE  H16S10888   5.032   4.992   3.448
  106SAPE  C21710889   5.119   4.811   3.541
  106SAPE  H17R10890   5.192   4.787   3.461
  106SAPE  H17S10891   5.091   4.717   3.592
  106SAPE  C21810892   5.210   4.895   3.630
  106SAPE  H18R10893   5.156   4.900   3.727
  106SAPE  H18S10894   5.215   4.999   3.591
  106SAPE  C21910895   5.347   4.836   3.654
  106SAPE  H19R10896   5.389   4.802   3.557
  106SAPE  H19S10897   5.330   4.754   3.727
  106SAPE  C22010898   5.451   4.933   3.710
  106SAPE  H20R10899   5.423   4.968   3.812
  106SAPE  H20S10900   5.461   5.020   3.642
  106SAPE  H20T10901   5.552   4.891   3.724
  106SAPE   C3310902   4.523   5.188   3.117
  106SAPE   H3X10903   4.581   5.096   3.093
  106SAPE   H3Y10904   4.418   5.165   3.088
  106SAPE   C3410905   4.535   5.211   3.273
  106SAPE   H4X10906   4.515   5.116   3.326
  106SAPE   H4Y10907   4.472   5.294   3.312
  106SAPE   C3510908   4.674   5.258   3.317
  106SAPE   H5X10909   4.677   5.359   3.269
  106SAPE   H5Y10910   4.751   5.193   3.270
  106SAPE   C3610911   4.683   5.273   3.468
  106SAPE   H6X10912   4.608   5.348   3.501
  106SAPE   H6Y10913   4.784   5.310   3.498
  106SAPE   C3710914   4.667   5.138   3.545
  106SAPE   H7X10915   4.696   5.045   3.491
  106SAPE   H7Y10916   4.564   5.116   3.581
  106SAPE   C3810917   4.749   5.142   3.676
  106SAPE   H8X10918   4.718   5.232   3.733
  106SAPE   H8Y10919   4.856   5.145   3.649
  106SAPE   C3910920   4.726   5.019   3.772
  106SAPE   H9X10921   4.736   4.938   3.697
  106SAPE   H9Y10922   4.631   5.027   3.829
  106SAPE  C31010923   4.839   5.001   3.873
  106SAPE  H10X10924   4.821   5.057   3.967
  106SAPE  H10Y10925   4.932   5.052   3.838
  106SAPE  C31110926   4.852   4.861   3.918
  106SAPE  H11X10927   4.871   4.803   3.825
  106SAPE  H11Y10928   4.760   4.826   3.969
  106SAPE  C31210929   4.974   4.835   4.008
  106SAPE  H12X10930   4.940   4.898   4.093
  106SAPE  H12Y10931   5.065   4.875   3.958
  106SAPE  C31310932   5.000   4.694   4.051
  106SAPE  H13X10933   5.004   4.637   3.955
  106SAPE  H13Y10934   4.915   4.653   4.109
  106SAPE  C31410935   5.135   4.685   4.120
  106SAPE  H14X10936   5.124   4.622   4.211
  106SAPE  H14Y10937   5.168   4.781   4.163
  106SAPE  C31510938   5.243   4.637   4.021
  106SAPE  H15X10939   5.235   4.694   3.926
  106SAPE  H15Y10940   5.224   4.530   3.998
  106SAPE  C31610941   5.386   4.643   4.062
  106SAPE  H16X10942   5.460   4.612   3.985
  106SAPE  H16Y10943   5.402   4.563   4.138
  106SAPE  C31710944   5.422   4.781   4.116
  106SAPE  H17X10945   5.375   4.790   4.217
  106SAPE  H17Y10946   5.381   4.859   4.049
  106SAPE  C31810947   5.578   4.798   4.128
  106SAPE  H18X10948   5.614   4.758   4.225
  106SAPE  H18Y10949   5.589   4.908   4.137
  106SAPE  H18Z10950   5.644   4.753   4.051
  107SAPE     N10951   1.179   2.568   1.859
  107SAPE   HN110952   1.218   2.569   1.955
  107SAPE   HN210953   1.249   2.595   1.787
  107SAPE   HN310954   1.106   2.642   1.857
  107SAPE   C1210955   1.122   2.431   1.831
  107SAPE  H12A10956   1.181   2.389   1.747
  107SAPE  H12B10957   1.014   2.443   1.809
  107SAPE   C1110958   1.127   2.342   1.954
  107SAPE  H11A10959   1.237   2.339   1.970
  107SAPE  H11B10960   1.098   2.238   1.931
  107SAPE     P10961   0.920   2.338   2.111
  107SAPE   O1310962   0.817   2.416   2.042
  107SAPE   O1410963   0.922   2.192   2.086
  107SAPE   O1210964   1.058   2.393   2.066
  107SAPE   O1110965   0.902   2.359   2.273
  107SAPE    C110966   0.981   2.471   2.323
  107SAPE    HA10967   1.086   2.443   2.343
  107SAPE    HB10968   0.981   2.556   2.251
  107SAPE    C210969   0.916   2.517   2.454
  107SAPE    HS10970   0.971   2.604   2.495
  107SAPE   O2110971   0.889   2.405   2.547
  107SAPE   C2110972   0.950   2.424   2.667
  107SAPE   O2210973   1.009   2.523   2.705
  107SAPE   C2210974   0.929   2.292   2.747
  107SAPE   H2R10975   0.860   2.229   2.686
  107SAPE   H2S10976   1.028   2.242   2.754
  107SAPE    C310977   0.777   2.572   2.418
  107SAPE    HX10978   0.722   2.485   2.379
  107SAPE    HY10979   0.783   2.655   2.344
  107SAPE   O3110980   0.711   2.619   2.537
  107SAPE   C3110981   0.591   2.655   2.532
  107SAPE   O3210982   0.520   2.647   2.435
  107SAPE   C3210983   0.541   2.691   2.670
  107SAPE   H2X10984   0.599   2.778   2.707
  107SAPE   H2Y10985   0.579   2.613   2.740
  107SAPE   C2310986   0.865   2.315   2.884
  107SAPE   H3R10987   0.792   2.232   2.895
  107SAPE   H3S10988   0.807   2.410   2.888
  107SAPE   C2410989   0.963   2.304   3.005
  107SAPE   H4R10990   1.051   2.237   2.991
  107SAPE   H4S10991   0.908   2.247   3.081
  107SAPE   C2510992   1.010   2.441   3.054
  107SAPE   H5R10993   1.047   2.508   2.976
  107SAPE   C2610994   1.004   2.481   3.180
  107SAPE   H6R10995   1.034   2.582   3.211
  107SAPE   C2710996   0.935   2.405   3.297
  107SAPE   H7R10997   0.993   2.311   3.314
  107SAPE   H7S10998   0.834   2.366   3.275
  107SAPE   C2810999   0.928   2.488   3.419
  107SAPE   H8R11000   0.992   2.577   3.425
  107SAPE   C2911001   0.852   2.472   3.531
  107SAPE   H9R11002   0.856   2.555   3.603
  107SAPE  C21011003   0.741   2.371   3.547
  107SAPE  H10R11004   0.739   2.334   3.651
  107SAPE  H10S11005   0.764   2.278   3.491
  107SAPE  C21111006   0.606   2.421   3.504
  107SAPE  H11R11007   0.596   2.472   3.407
  107SAPE  C21211008   0.492   2.412   3.578
  107SAPE  H12R11009   0.393   2.446   3.545
  107SAPE  C21311010   0.486   2.354   3.715
  107SAPE  H13R11011   0.409   2.411   3.772
  107SAPE  H13S11012   0.578   2.379   3.772
  107SAPE  C21411013   0.460   2.211   3.723
  107SAPE  H14R11014   0.468   2.163   3.625
  107SAPE  C21511015   0.438   2.136   3.835
  107SAPE  H15R11016   0.434   2.026   3.828
  107SAPE  C21611017   0.438   2.188   3.978
  107SAPE  H16R11018   0.341   2.183   4.032
  107SAPE  H16S11019   0.437   2.299   3.985
  107SAPE  C21711020   0.559   2.143   4.063
  107SAPE  H17R11021   0.649   2.197   4.026
  107SAPE  H17S11022   0.580   2.034   4.061
  107SAPE  C21811023   0.548   2.172   4.217
  107SAPE  H18R11024   0.452   2.139   4.264
  107SAPE  H18S11025   0.546   2.282   4.229
  107SAPE  C21911026   0.664   2.108   4.289
  107SAPE  H19R11027   0.651   1.998   4.286
  107SAPE  H19S11028   0.656   2.134   4.396
  107SAPE  C22011029   0.809   2.139   4.246
  107SAPE  H20R11030   0.837   2.091   4.150
  107SAPE  H20S11031   0.885   2.106   4.319
  107SAPE  H20T11032   0.823   2.248   4.231
  107SAPE   C3311033   0.394   2.728   2.668
  107SAPE   H3X11034   0.327   2.640   2.654
  107SAPE   H3Y11035   0.369   2.801   2.588
  107SAPE   C3411036   0.357   2.792   2.808
  107SAPE   H4X11037   0.443   2.847   2.853
  107SAPE   H4Y11038   0.325   2.711   2.877
  107SAPE   C3511039   0.263   2.907   2.802
  107SAPE   H5X11040   0.162   2.874   2.769
  107SAPE   H5Y11041   0.310   2.978   2.731
  107SAPE   C3611042   0.238   2.989   2.928
  107SAPE   H6X11043   0.163   3.068   2.906
  107SAPE   H6Y11044   0.330   3.036   2.969
  107SAPE   C3711045   0.170   2.903   3.042
  107SAPE   H7X11046   0.235   2.816   3.066
  107SAPE   H7Y11047   0.079   2.855   2.998
  107SAPE   C3811048   0.124   2.978   3.166
  107SAPE   H8X11049   0.079   3.076   3.140
  107SAPE   H8Y11050   0.212   2.995   3.232
  107SAPE   C3911051   0.015   2.904   3.246
  107SAPE   H9X11052  -0.080   2.915   3.189
  107SAPE   H9Y11053  -0.001   2.963   3.338
  107SAPE  C31011054   0.038   2.758   3.275
  107SAPE  H10X11055   0.053   2.701   3.181
  107SAPE  H10Y11056  -0.060   2.723   3.313
  107SAPE  C31111057   0.152   2.733   3.376
  107SAPE  H11X11058   0.240   2.765   3.316
  107SAPE  H11Y11059   0.168   2.626   3.399
  107SAPE  C31211060   0.126   2.795   3.512
  107SAPE  H12X11061   0.028   2.756   3.547
  107SAPE  H12Y11062   0.117   2.904   3.490
  107SAPE  C31311063   0.240   2.772   3.613
  107SAPE  H13X11064   0.245   2.664   3.639
  107SAPE  H13Y11065   0.225   2.822   3.710
  107SAPE  C31411066   0.382   2.791   3.551
  107SAPE  H14X11067   0.393   2.894   3.510
  107SAPE  H14Y11068   0.402   2.715   3.472
  107SAPE  C31511069   0.492   2.760   3.653
  107SAPE  H15X11070   0.498   2.653   3.682
  107SAPE  H15Y11071   0.471   2.828   3.738
  107SAPE  C31611072   0.637   2.800   3.624
  107SAPE  H16X11073   0.638   2.910   3.609
  107SAPE  H16Y11074   0.661   2.755   3.525
  107SAPE  C31711075   0.728   2.744   3.730
  107SAPE  H17X11076   0.725   2.634   3.739
  107SAPE  H17Y11077   0.683   2.783   3.825
  107SAPE  C31811078   0.874   2.800   3.712
  107SAPE  H18X11079   0.920   2.768   3.807
  107SAPE  H18Y11080   0.870   2.911   3.711
  107SAPE  H18Z11081   0.931   2.772   3.620
  108SAPE     N11082   4.990   3.558   2.236
  108SAPE   HN111083   4.978   3.455   2.228
  108SAPE   HN211084   4.903   3.613   2.217
  108SAPE   HN311085   5.054   3.584   2.159
  108SAPE   C1211086   5.047   3.606   2.358
  108SAPE  H12A11087   5.005   3.542   2.438
  108SAPE  H12B11088   5.040   3.717   2.369
  108SAPE   C1111089   5.195   3.579   2.358
  108SAPE  H11A11090   5.208   3.471   2.336
  108SAPE  H11B11091   5.235   3.602   2.459
  108SAPE     P11092   5.415   3.619   2.211
  108SAPE   O1311093   5.407   3.547   2.080
  108SAPE   O1411094   5.497   3.740   2.209
  108SAPE   O1211095   5.265   3.654   2.256
  108SAPE   O1111096   5.461   3.527   2.335
  108SAPE    C111097   5.603   3.509   2.363
  108SAPE    HA11098   5.651   3.457   2.278
  108SAPE    HB11099   5.641   3.610   2.386
  108SAPE    C211100   5.625   3.406   2.484
  108SAPE    HS11101   5.598   3.310   2.434
  108SAPE   O2111102   5.546   3.431   2.599
  108SAPE   C2111103   5.523   3.336   2.679
  108SAPE   O2211104   5.526   3.217   2.650
  108SAPE   C2211105   5.469   3.400   2.805
  108SAPE   H2R11106   5.545   3.470   2.846
  108SAPE   H2S11107   5.373   3.455   2.796
  108SAPE    C311108   5.769   3.398   2.529
  108SAPE    HX11109   5.830   3.396   2.436
  108SAPE    HY11110   5.787   3.300   2.577
  108SAPE   O3111111   5.802   3.516   2.611
  108SAPE   C3111112   5.806   3.505   2.742
  108SAPE   O3211113   5.802   3.406   2.812
  108SAPE   C3211114   5.816   3.650   2.802
  108SAPE   H2X11115   5.742   3.717   2.753
  108SAPE   H2Y11116   5.917   3.688   2.777
  108SAPE   C2311117   5.458   3.290   2.914
  108SAPE   H3R11118   5.553   3.233   2.920
  108SAPE   H3S11119   5.371   3.231   2.877
  108SAPE   C2411120   5.425   3.349   3.049
  108SAPE   H4R11121   5.380   3.265   3.107
  108SAPE   H4S11122   5.350   3.431   3.046
  108SAPE   C2511123   5.545   3.382   3.128
  108SAPE   H5R11124   5.608   3.460   3.083
  108SAPE   C2611125   5.608   3.320   3.229
  108SAPE   H6R11126   5.700   3.356   3.278
  108SAPE   C2711127   5.560   3.189   3.289
  108SAPE   H7R11128   5.648   3.127   3.316
  108SAPE   H7S11129   5.521   3.131   3.202
  108SAPE   C2811130   5.452   3.188   3.392
  108SAPE   H8R11131   5.347   3.186   3.360
  108SAPE   C2911132   5.471   3.198   3.527
  108SAPE   H9R11133   5.389   3.200   3.599
  108SAPE  C21011134   5.601   3.221   3.591
  108SAPE  H10R11135   5.685   3.184   3.528
  108SAPE  H10S11136   5.612   3.166   3.686
  108SAPE  C21111137   5.610   3.366   3.614
  108SAPE  H11R11138   5.630   3.418   3.520
  108SAPE  C21211139   5.596   3.444   3.728
  108SAPE  H12R11140   5.596   3.551   3.703
  108SAPE  C21311141   5.577   3.409   3.871
  108SAPE  H13R11142   5.548   3.303   3.892
  108SAPE  H13S11143   5.498   3.478   3.907
  108SAPE  C21411144   5.704   3.432   3.948
  108SAPE  H14R11145   5.801   3.425   3.896
  108SAPE  C21511146   5.706   3.447   4.090
  108SAPE  H15R11147   5.801   3.462   4.144
  108SAPE  C21611148   5.590   3.424   4.182
  108SAPE  H16R11149   5.599   3.318   4.215
  108SAPE  H16S11150   5.491   3.434   4.133
  108SAPE  C21711151   5.603   3.513   4.307
  108SAPE  H17R11152   5.596   3.619   4.275
  108SAPE  H17S11153   5.703   3.500   4.354
  108SAPE  C21811154   5.486   3.481   4.395
  108SAPE  H18R11155   5.482   3.370   4.405
  108SAPE  H18S11156   5.392   3.508   4.343
  108SAPE  C21911157   5.497   3.535   4.537
  108SAPE  H19R11158   5.508   3.645   4.528
  108SAPE  H19S11159   5.591   3.498   4.583
  108SAPE  C22011160   5.377   3.504   4.633
  108SAPE  H20R11161   5.280   3.540   4.592
  108SAPE  H20S11162   5.394   3.573   4.719
  108SAPE  H20T11163   5.373   3.395   4.654
  108SAPE   C3311164   5.769   3.663   2.953
  108SAPE   H3X11165   5.668   3.619   2.961
  108SAPE   H3Y11166   5.773   3.772   2.974
  108SAPE   C3411167   5.872   3.609   3.046
  108SAPE   H4X11168   5.976   3.642   3.026
  108SAPE   H4Y11169   5.863   3.498   3.050
  108SAPE   C3511170   5.850   3.659   3.189
  108SAPE   H5X11171   5.874   3.767   3.195
  108SAPE   H5Y11172   5.741   3.661   3.211
  108SAPE   C3611173   5.924   3.566   3.292
  108SAPE   H6X11174   6.030   3.553   3.261
  108SAPE   H6Y11175   5.876   3.465   3.293
  108SAPE   C3711176   5.916   3.621   3.435
  108SAPE   H7X11177   5.813   3.628   3.477
  108SAPE   H7Y11178   5.968   3.719   3.434
  108SAPE   C3811179   6.011   3.546   3.529
  108SAPE   H8X11180   6.010   3.600   3.626
  108SAPE   H8Y11181   6.111   3.563   3.483
  108SAPE   C3911182   5.985   3.395   3.545
  108SAPE   H9X11183   6.030   3.342   3.459
  108SAPE   H9Y11184   5.877   3.367   3.537
  108SAPE  C31011185   6.043   3.352   3.682
  108SAPE  H10X11186   5.999   3.416   3.761
  108SAPE  H10Y11187   6.154   3.365   3.686
  108SAPE  C31111188   6.011   3.212   3.713
  108SAPE  H11X11189   6.037   3.154   3.622
  108SAPE  H11Y11190   5.908   3.184   3.746
  108SAPE  C31211191   6.099   3.156   3.828
  108SAPE  H12X11192   6.090   3.228   3.912
  108SAPE  H12Y11193   6.198   3.168   3.778
  108SAPE  C31311194   6.073   3.018   3.871
  108SAPE  H13X11195   6.061   2.958   3.778
  108SAPE  H13Y11196   5.989   2.999   3.941
  108SAPE  C31411197   6.194   2.952   3.941
  108SAPE  H14X11198   6.276   2.941   3.867
  108SAPE  H14Y11199   6.171   2.848   3.975
  108SAPE  C31511200   6.247   3.025   4.065
  108SAPE  H15X11201   6.171   3.030   4.146
  108SAPE  H15Y11202   6.271   3.129   4.035
  108SAPE  C31611203   6.376   2.949   4.116
  108SAPE  H16X11204   6.438   2.937   4.024
  108SAPE  H16Y11205   6.355   2.846   4.152
  108SAPE  C31711206   6.451   3.028   4.220
  108SAPE  H17X11207   6.374   3.051   4.298
  108SAPE  H17Y11208   6.484   3.123   4.174
  108SAPE  C31811209   6.573   2.951   4.273
  108SAPE  H18X11210   6.535   2.855   4.314
  108SAPE  H18Y11211   6.629   3.008   4.349
  108SAPE  H18Z11212   6.647   2.925   4.194
  109SAPE     N11213   3.505   1.134   1.922
  109SAPE   HN111214   3.566   1.073   1.863
  109SAPE   HN211215   3.501   1.226   1.875
  109SAPE   HN311216   3.549   1.152   2.014
  109SAPE   C1211217   3.375   1.072   1.937
  109SAPE  H12A11218   3.370   0.988   2.010
  109SAPE  H12B11219   3.349   1.033   1.837
  109SAPE   C1111220   3.275   1.179   1.975
  109SAPE  H11A11221   3.188   1.130   2.023
  109SAPE  H11B11222   3.242   1.226   1.880
  109SAPE     P11223   3.252   1.418   2.076
  109SAPE   O1311224   3.354   1.512   2.123
  109SAPE   O1411225   3.181   1.447   1.947
  109SAPE   O1211226   3.329   1.280   2.062
  109SAPE   O1111227   3.144   1.388   2.181
  109SAPE    C111228   3.172   1.296   2.289
  109SAPE    HA11229   3.153   1.192   2.254
  109SAPE    HB11230   3.274   1.321   2.328
  109SAPE    C211231   3.088   1.324   2.417
  109SAPE    HS11232   2.984   1.308   2.380
  109SAPE   O2111233   3.098   1.462   2.447
  109SAPE   C2111234   2.997   1.526   2.501
  109SAPE   O2211235   2.884   1.477   2.505
  109SAPE   C2211236   3.037   1.665   2.554
  109SAPE   H2R11237   3.120   1.705   2.492
  109SAPE   H2S11238   2.954   1.740   2.555
  109SAPE    C311239   3.122   1.226   2.534
  109SAPE    HX11240   3.231   1.210   2.538
  109SAPE    HY11241   3.083   1.127   2.501
  109SAPE   O3111242   3.071   1.280   2.654
  109SAPE   C3111243   3.102   1.222   2.761
  109SAPE   O3211244   3.177   1.127   2.768
  109SAPE   C3211245   3.018   1.284   2.874
  109SAPE   H2X11246   2.926   1.337   2.840
  109SAPE   H2Y11247   3.073   1.374   2.911
  109SAPE   C2311248   3.096   1.664   2.695
  109SAPE   H3R11249   3.157   1.572   2.708
  109SAPE   H3S11250   3.009   1.668   2.764
  109SAPE   C2411251   3.176   1.799   2.723
  109SAPE   H4R11252   3.179   1.824   2.831
  109SAPE   H4S11253   3.113   1.874   2.671
  109SAPE   C2511254   3.314   1.805   2.661
  109SAPE   H5R11255   3.321   1.815   2.551
  109SAPE   C2611256   3.429   1.807   2.724
  109SAPE   H6R11257   3.517   1.813   2.659
  109SAPE   C2711258   3.448   1.809   2.871
  109SAPE   H7R11259   3.549   1.772   2.898
  109SAPE   H7S11260   3.387   1.726   2.912
  109SAPE   C2811261   3.417   1.950   2.924
  109SAPE   H8R11262   3.407   2.028   2.847
  109SAPE   C2911263   3.385   1.979   3.046
  109SAPE   H9R11264   3.343   2.074   3.081
  109SAPE  C21011265   3.381   1.875   3.155
  109SAPE  H10R11266   3.294   1.810   3.136
  109SAPE  H10S11267   3.336   1.928   3.241
  109SAPE  C21111268   3.494   1.787   3.199
  109SAPE  H11R11269   3.586   1.798   3.139
  109SAPE  C21211270   3.488   1.702   3.305
  109SAPE  H12R11271   3.571   1.633   3.328
  109SAPE  C21311272   3.369   1.685   3.397
  109SAPE  H13R11273   3.351   1.788   3.432
  109SAPE  H13S11274   3.399   1.623   3.484
  109SAPE  C21411275   3.251   1.611   3.334
  109SAPE  H14R11276   3.270   1.537   3.255
  109SAPE  C21511277   3.126   1.651   3.358
  109SAPE  H15R11278   3.044   1.603   3.303
  109SAPE  C21611279   3.083   1.762   3.461
  109SAPE  H16R11280   2.980   1.793   3.434
  109SAPE  H16S11281   3.138   1.858   3.452
  109SAPE  C21711282   3.070   1.702   3.602
  109SAPE  H17R11283   3.169   1.682   3.648
  109SAPE  H17S11284   3.005   1.612   3.597
  109SAPE  C21811285   3.019   1.798   3.709
  109SAPE  H18R11286   2.909   1.812   3.714
  109SAPE  H18S11287   3.058   1.898   3.681
  109SAPE  C21911288   3.071   1.754   3.853
  109SAPE  H19R11289   3.092   1.853   3.899
  109SAPE  H19S11290   3.156   1.683   3.845
  109SAPE  C22011291   2.965   1.690   3.937
  109SAPE  H20R11292   2.996   1.645   4.034
  109SAPE  H20S11293   2.916   1.613   3.874
  109SAPE  H20T11294   2.892   1.763   3.976
  109SAPE   C3311295   2.986   1.179   2.983
  109SAPE   H3X11296   3.078   1.120   3.002
  109SAPE   H3Y11297   2.921   1.103   2.934
  109SAPE   C3411298   2.932   1.230   3.119
  109SAPE   H4X11299   3.007   1.294   3.170
  109SAPE   H4Y11300   2.925   1.139   3.183
  109SAPE   C3511301   2.813   1.323   3.110
  109SAPE   H5X11302   2.726   1.262   3.075
  109SAPE   H5Y11303   2.838   1.403   3.038
  109SAPE   C3611304   2.766   1.384   3.244
  109SAPE   H6X11305   2.665   1.431   3.236
  109SAPE   H6Y11306   2.831   1.471   3.268
  109SAPE   C3711307   2.767   1.286   3.360
  109SAPE   H7X11308   2.870   1.251   3.383
  109SAPE   H7Y11309   2.689   1.210   3.336
  109SAPE   C3811310   2.715   1.356   3.495
  109SAPE   H8X11311   2.622   1.406   3.461
  109SAPE   H8Y11312   2.797   1.414   3.540
  109SAPE   C3911313   2.665   1.255   3.597
  109SAPE   H9X11314   2.578   1.197   3.558
  109SAPE   H9Y11315   2.624   1.314   3.682
  109SAPE  C31011316   2.766   1.154   3.651
  109SAPE  H10X11317   2.840   1.209   3.713
  109SAPE  H10Y11318   2.823   1.105   3.569
  109SAPE  C31111319   2.712   1.043   3.747
  109SAPE  H11X11320   2.669   1.085   3.840
  109SAPE  H11Y11321   2.795   0.975   3.774
  109SAPE  C31211322   2.602   0.957   3.674
  109SAPE  H12X11323   2.640   0.926   3.574
  109SAPE  H12Y11324   2.514   1.023   3.657
  109SAPE  C31311325   2.560   0.840   3.757
  109SAPE  H13X11326   2.538   0.876   3.860
  109SAPE  H13Y11327   2.640   0.763   3.755
  109SAPE  C31411328   2.447   0.758   3.686
  109SAPE  H14X11329   2.488   0.735   3.586
  109SAPE  H14Y11330   2.365   0.828   3.659
  109SAPE  C31511331   2.419   0.631   3.754
  109SAPE  H15X11332   2.506   0.561   3.751
  109SAPE  H15Y11333   2.340   0.579   3.697
  109SAPE  C31611334   2.383   0.639   3.907
  109SAPE  H16X11335   2.297   0.707   3.922
  109SAPE  H16Y11336   2.474   0.683   3.953
  109SAPE  C31711337   2.367   0.495   3.968
  109SAPE  H17X11338   2.401   0.499   4.074
  109SAPE  H17Y11339   2.440   0.428   3.919
  109SAPE  C31811340   2.229   0.424   3.943
  109SAPE  H18X11341   2.212   0.398   3.836
  109SAPE  H18Y11342   2.146   0.488   3.979
  109SAPE  H18Z11343   2.228   0.336   4.011
  110SAPE     N11344   2.527   6.051   2.177
  110SAPE   HN111345   2.554   6.142   2.134
  110SAPE   HN211346   2.568   6.044   2.273
  110SAPE   HN311347   2.562   5.974   2.117
  110SAPE   C1211348   2.376   6.049   2.190
  110SAPE  H12A11349   2.352   6.095   2.288
  110SAPE  H12B11350   2.339   5.946   2.209
  110SAPE   C1111351   2.313   6.124   2.078
  110SAPE  H11A11352   2.351   6.228   2.078
  110SAPE  H11B11353   2.203   6.136   2.087
  110SAPE     P11354   2.235   6.017   1.849
  110SAPE   O1311355   2.155   6.139   1.815
  110SAPE   O1411356   2.295   5.940   1.739
  110SAPE   O1211357   2.349   6.054   1.953
  110SAPE   O1111358   2.143   5.923   1.927
  110SAPE    C111359   2.196   5.792   1.970
  110SAPE    HA11360   2.208   5.726   1.882
  110SAPE    HB11361   2.300   5.789   2.011
  110SAPE    C211362   2.103   5.733   2.073
  110SAPE    HS11363   2.002   5.726   2.027
  110SAPE   O2111364   2.101   5.816   2.189
  110SAPE   C2111365   1.987   5.831   2.248
  110SAPE   O2211366   1.886   5.766   2.211
  110SAPE   C2211367   2.000   5.943   2.347
  110SAPE   H2R11368   2.089   5.926   2.412
  110SAPE   H2S11369   2.026   6.029   2.283
  110SAPE    C311370   2.143   5.592   2.118
  110SAPE    HX11371   2.068   5.568   2.197
  110SAPE    HY11372   2.123   5.514   2.042
  110SAPE   O3111373   2.278   5.588   2.170
  110SAPE   C3111374   2.371   5.522   2.101
  110SAPE   O3211375   2.357   5.477   1.983
  110SAPE   C3211376   2.507   5.507   2.162
  110SAPE   H2X11377   2.587   5.530   2.089
  110SAPE   H2Y11378   2.520   5.398   2.180
  110SAPE   C2311379   1.871   5.972   2.431
  110SAPE   H3R11380   1.854   5.875   2.482
  110SAPE   H3S11381   1.780   5.997   2.373
  110SAPE   C2411382   1.898   6.086   2.535
  110SAPE   H4R11383   1.990   6.070   2.596
  110SAPE   H4S11384   1.811   6.107   2.601
  110SAPE   C2511385   1.911   6.216   2.448
  110SAPE   H5R11386   1.883   6.215   2.341
  110SAPE   C2611387   1.966   6.331   2.491
  110SAPE   H6R11388   1.963   6.421   2.427
  110SAPE   C2711389   2.013   6.363   2.625
  110SAPE   H7R11390   2.087   6.446   2.623
  110SAPE   H7S11391   2.072   6.287   2.680
  110SAPE   C2811392   1.898   6.411   2.710
  110SAPE   H8R11393   1.815   6.461   2.656
  110SAPE   C2911394   1.881   6.416   2.842
  110SAPE   H9R11395   1.791   6.461   2.885
  110SAPE  C21011396   1.987   6.358   2.942
  110SAPE  H10R11397   2.049   6.284   2.888
  110SAPE  H10S11398   1.929   6.301   3.018
  110SAPE  C21111399   2.067   6.463   3.004
  110SAPE  H11R11400   2.053   6.565   2.963
  110SAPE  C21211401   2.142   6.438   3.112
  110SAPE  H12R11402   2.196   6.513   3.172
  110SAPE  C21311403   2.165   6.300   3.159
  110SAPE  H13R11404   2.132   6.221   3.088
  110SAPE  H13S11405   2.092   6.281   3.241
  110SAPE  C21411406   2.299   6.285   3.220
  110SAPE  H14R11407   2.386   6.261   3.156
  110SAPE  C21511408   2.335   6.292   3.346
  110SAPE  H15R11409   2.441   6.281   3.374
  110SAPE  C21611410   2.242   6.307   3.468
  110SAPE  H16R11411   2.139   6.344   3.447
  110SAPE  H16S11412   2.277   6.396   3.525
  110SAPE  C21711413   2.245   6.176   3.552
  110SAPE  H17R11414   2.352   6.147   3.565
  110SAPE  H17S11415   2.199   6.090   3.498
  110SAPE  C21811416   2.179   6.181   3.699
  110SAPE  H18R11417   2.079   6.228   3.708
  110SAPE  H18S11418   2.255   6.255   3.733
  110SAPE  C21911419   2.173   6.053   3.781
  110SAPE  H19R11420   2.101   5.981   3.735
  110SAPE  H19S11421   2.130   6.079   3.880
  110SAPE  C22011422   2.306   5.991   3.816
  110SAPE  H20R11423   2.291   5.900   3.878
  110SAPE  H20S11424   2.368   6.064   3.871
  110SAPE  H20T11425   2.369   5.950   3.733
  110SAPE   C3311426   2.534   5.591   2.292
  110SAPE   H3X11427   2.449   5.584   2.362
  110SAPE   H3Y11428   2.540   5.696   2.255
  110SAPE   C3411429   2.666   5.555   2.374
  110SAPE   H4X11430   2.747   5.548   2.299
  110SAPE   H4Y11431   2.658   5.454   2.421
  110SAPE   C3511432   2.687   5.657   2.484
  110SAPE   H5X11433   2.628   5.751   2.476
  110SAPE   H5Y11434   2.796   5.679   2.490
  110SAPE   C3611435   2.656   5.590   2.621
  110SAPE   H6X11436   2.678   5.481   2.616
  110SAPE   H6Y11437   2.547   5.598   2.643
  110SAPE   C3711438   2.747   5.639   2.741
  110SAPE   H7X11439   2.739   5.749   2.752
  110SAPE   H7Y11440   2.851   5.620   2.709
  110SAPE   C3811441   2.714   5.572   2.874
  110SAPE   H8X11442   2.716   5.462   2.854
  110SAPE   H8Y11443   2.608   5.583   2.903
  110SAPE   C3911444   2.815   5.596   2.985
  110SAPE   H9X11445   2.825   5.706   2.999
  110SAPE   H9Y11446   2.916   5.561   2.956
  110SAPE  C31011447   2.774   5.523   3.116
  110SAPE  H10X11448   2.767   5.415   3.091
  110SAPE  H10Y11449   2.670   5.558   3.135
  110SAPE  C31111450   2.874   5.558   3.223
  110SAPE  H11X11451   2.895   5.667   3.223
  110SAPE  H11Y11452   2.967   5.502   3.199
  110SAPE  C31211453   2.836   5.521   3.370
  110SAPE  H12X11454   2.772   5.430   3.372
  110SAPE  H12Y11455   2.784   5.611   3.411
  110SAPE  C31311456   2.965   5.492   3.460
  110SAPE  H13X11457   3.028   5.583   3.469
  110SAPE  H13Y11458   3.028   5.419   3.405
  110SAPE  C31411459   2.919   5.457   3.596
  110SAPE  H14X11460   2.829   5.391   3.590
  110SAPE  H14Y11461   2.868   5.543   3.645
  110SAPE  C31511462   3.040   5.405   3.684
  110SAPE  H15X11463   3.111   5.489   3.695
  110SAPE  H15Y11464   3.099   5.333   3.623
  110SAPE  C31611465   3.000   5.339   3.813
  110SAPE  H16X11466   3.084   5.337   3.886
  110SAPE  H16Y11467   2.963   5.236   3.796
  110SAPE  C31711468   2.871   5.387   3.887
  110SAPE  H17X11469   2.787   5.346   3.827
  110SAPE  H17Y11470   2.858   5.498   3.887
  110SAPE  C31811471   2.864   5.342   4.036
  110SAPE  H18X11472   2.910   5.420   4.100
  110SAPE  H18Y11473   2.929   5.253   4.052
  110SAPE  H18Z11474   2.760   5.327   4.074
  111SAPE     N11475   2.464   0.447   2.048
  111SAPE   HN111476   2.436   0.403   2.138
  111SAPE   HN211477   2.518   0.375   1.996
  111SAPE   HN311478   2.526   0.528   2.066
  111SAPE   C1211479   2.352   0.498   1.971
  111SAPE  H12A11480   2.288   0.410   1.946
  111SAPE  H12B11481   2.401   0.539   1.880
  111SAPE   C1111482   2.293   0.623   2.041
  111SAPE  H11A11483   2.213   0.663   1.976
  111SAPE  H11B11484   2.372   0.696   2.071
  111SAPE     P11485   2.110   0.638   2.223
  111SAPE   O1311486   2.012   0.665   2.115
  111SAPE   O1411487   2.075   0.547   2.335
  111SAPE   O1211488   2.235   0.580   2.155
  111SAPE   O1111489   2.140   0.778   2.277
  111SAPE    C111490   2.264   0.807   2.349
  111SAPE    HA11491   2.335   0.723   2.362
  111SAPE    HB11492   2.312   0.902   2.316
  111SAPE    C211493   2.237   0.845   2.497
  111SAPE    HS11494   2.337   0.872   2.538
  111SAPE   O2111495   2.181   0.735   2.573
  111SAPE   C2111496   2.257   0.625   2.596
  111SAPE   O2211497   2.379   0.628   2.574
  111SAPE   C2211498   2.171   0.519   2.667
  111SAPE   H2R11499   2.068   0.516   2.625
  111SAPE   H2S11500   2.211   0.418   2.647
  111SAPE    C311501   2.161   0.974   2.501
  111SAPE    HX11502   2.083   0.964   2.422
  111SAPE    HY11503   2.233   1.053   2.470
  111SAPE   O3111504   2.107   1.003   2.632
  111SAPE   C3111505   1.976   0.968   2.652
  111SAPE   O3211506   1.903   0.911   2.569
  111SAPE   C3211507   1.933   1.018   2.789
  111SAPE   H2X11508   1.948   1.128   2.792
  111SAPE   H2Y11509   1.997   0.982   2.872
  111SAPE   C2311510   2.175   0.531   2.819
  111SAPE   H3R11511   2.274   0.501   2.859
  111SAPE   H3S11512   2.108   0.455   2.866
  111SAPE   C2411513   2.121   0.666   2.877
  111SAPE   H4R11514   2.180   0.751   2.836
  111SAPE   H4S11515   2.148   0.655   2.985
  111SAPE   C2511516   1.972   0.686   2.858
  111SAPE   H5R11517   1.939   0.699   2.754
  111SAPE   C2611518   1.881   0.691   2.959
  111SAPE   H6R11519   1.773   0.704   2.942
  111SAPE   C2711520   1.908   0.689   3.109
  111SAPE   H7R11521   1.859   0.776   3.158
  111SAPE   H7S11522   2.012   0.722   3.133
  111SAPE   C2811523   1.863   0.564   3.185
  111SAPE   H8R11524   1.760   0.539   3.157
  111SAPE   C2911525   1.928   0.510   3.286
  111SAPE   H9R11526   1.877   0.421   3.326
  111SAPE  C21011527   2.064   0.548   3.345
  111SAPE  H10R11528   2.105   0.634   3.287
  111SAPE  H10S11529   2.141   0.472   3.319
  111SAPE  C21111530   2.076   0.585   3.484
  111SAPE  H11R11531   2.068   0.691   3.513
  111SAPE  C21211532   2.103   0.505   3.593
  111SAPE  H12R11533   2.130   0.545   3.692
  111SAPE  C21311534   2.123   0.357   3.568
  111SAPE  H13R11535   2.063   0.322   3.482
  111SAPE  H13S11536   2.081   0.308   3.658
  111SAPE  C21411537   2.263   0.319   3.546
  111SAPE  H14R11538   2.336   0.396   3.518
  111SAPE  C21511539   2.310   0.198   3.573
  111SAPE  H15R11540   2.419   0.184   3.575
  111SAPE  C21611541   2.223   0.087   3.618
  111SAPE  H16R11542   2.258  -0.009   3.575
  111SAPE  H16S11543   2.119   0.102   3.581
  111SAPE  C21711544   2.226   0.076   3.768
  111SAPE  H17R11545   2.188   0.169   3.814
  111SAPE  H17S11546   2.332   0.076   3.801
  111SAPE  C21811547   2.145  -0.044   3.812
  111SAPE  H18R11548   2.175  -0.136   3.758
  111SAPE  H18S11549   2.039  -0.025   3.788
  111SAPE  C21911550   2.161  -0.068   3.960
  111SAPE  H19R11551   2.142   0.026   4.016
  111SAPE  H19S11552   2.267  -0.090   3.985
  111SAPE  C22011553   2.080  -0.189   4.005
  111SAPE  H20R11554   2.116  -0.228   4.102
  111SAPE  H20S11555   2.082  -0.263   3.923
  111SAPE  H20T11556   1.973  -0.157   4.014
  111SAPE   C3311557   1.781   0.989   2.824
  111SAPE   H3X11558   1.761   0.882   2.803
  111SAPE   H3Y11559   1.732   1.047   2.743
  111SAPE   C3411560   1.743   1.024   2.973
  111SAPE   H4X11561   1.823   0.979   3.036
  111SAPE   H4Y11562   1.644   0.978   2.995
  111SAPE   C3511563   1.751   1.170   2.987
  111SAPE   H5X11564   1.686   1.220   2.912
  111SAPE   H5Y11565   1.855   1.205   2.971
  111SAPE   C3611566   1.708   1.239   3.120
  111SAPE   H6X11567   1.597   1.236   3.122
  111SAPE   H6Y11568   1.755   1.340   3.121
  111SAPE   C3711569   1.750   1.168   3.244
  111SAPE   H7X11570   1.859   1.148   3.238
  111SAPE   H7Y11571   1.696   1.071   3.237
  111SAPE   C3811572   1.724   1.237   3.379
  111SAPE   H8X11573   1.627   1.291   3.373
  111SAPE   H8Y11574   1.801   1.317   3.387
  111SAPE   C3911575   1.712   1.134   3.489
  111SAPE   H9X11576   1.809   1.085   3.513
  111SAPE   H9Y11577   1.646   1.056   3.446
  111SAPE  C31011578   1.655   1.196   3.621
  111SAPE  H10X11579   1.631   1.115   3.692
  111SAPE  H10Y11580   1.568   1.260   3.595
  111SAPE  C31111581   1.750   1.297   3.689
  111SAPE  H11X11582   1.693   1.392   3.703
  111SAPE  H11Y11583   1.837   1.311   3.621
  111SAPE  C31211584   1.811   1.251   3.820
  111SAPE  H12X11585   1.885   1.326   3.856
  111SAPE  H12Y11586   1.869   1.156   3.812
  111SAPE  C31311587   1.707   1.219   3.930
  111SAPE  H13X11588   1.752   1.191   4.028
  111SAPE  H13Y11589   1.651   1.128   3.901
  111SAPE  C31411590   1.595   1.331   3.951
  111SAPE  H14X11591   1.521   1.279   4.015
  111SAPE  H14Y11592   1.536   1.360   3.861
  111SAPE  C31511593   1.654   1.457   4.013
  111SAPE  H15X11594   1.580   1.540   4.023
  111SAPE  H15Y11595   1.733   1.500   3.949
  111SAPE  C31611596   1.706   1.431   4.154
  111SAPE  H16X11597   1.701   1.320   4.167
  111SAPE  H16Y11598   1.630   1.470   4.225
  111SAPE  C31711599   1.842   1.481   4.180
  111SAPE  H17X11600   1.848   1.586   4.144
  111SAPE  H17Y11601   1.908   1.424   4.113
  111SAPE  C31811602   1.877   1.467   4.325
  111SAPE  H18X11603   1.880   1.361   4.358
  111SAPE  H18Y11604   1.801   1.513   4.392
  111SAPE  H18Z11605   1.967   1.522   4.361
  112SAPE     N11606   6.177   6.241   2.446
  112SAPE   HN111607   6.205   6.149   2.407
  112SAPE   HN211608   6.257   6.293   2.488
  112SAPE   HN311609   6.110   6.233   2.525
  112SAPE   C1211610   6.113   6.325   2.335
  112SAPE  H12A11611   6.193   6.379   2.280
  112SAPE  H12B11612   6.048   6.401   2.382
  112SAPE   C1111613   6.038   6.238   2.235
  112SAPE  H11A11614   6.092   6.150   2.195
  112SAPE  H11B11615   6.006   6.297   2.146
  112SAPE     P11616   5.781   6.241   2.292
  112SAPE   O1311617   5.782   6.385   2.341
  112SAPE   O1411618   5.738   6.221   2.158
  112SAPE   O1211619   5.922   6.182   2.303
  112SAPE   O1111620   5.690   6.150   2.392
  112SAPE    C111621   5.742   6.093   2.514
  112SAPE    HA11622   5.674   6.009   2.541
  112SAPE    HB11623   5.847   6.061   2.500
  112SAPE    C211624   5.743   6.189   2.641
  112SAPE    HS11625   5.774   6.289   2.603
  112SAPE   O2111626   5.824   6.129   2.739
  112SAPE   C2111627   5.954   6.157   2.741
  112SAPE   O2211628   6.015   6.229   2.662
  112SAPE   C2211629   6.023   6.078   2.858
  112SAPE   H2R11630   5.950   6.008   2.904
  112SAPE   H2S11631   6.109   6.019   2.820
  112SAPE    C311632   5.607   6.208   2.717
  112SAPE    HX11633   5.567   6.107   2.738
  112SAPE    HY11634   5.538   6.263   2.649
  112SAPE   O3111635   5.622   6.275   2.847
  112SAPE   C3111636   5.648   6.406   2.837
  112SAPE   O3211637   5.689   6.459   2.737
  112SAPE   C3211638   5.620   6.474   2.973
  112SAPE   H2X11639   5.541   6.551   2.958
  112SAPE   H2Y11640   5.702   6.544   3.001
  112SAPE   C2311641   6.090   6.169   2.960
  112SAPE   H3R11642   6.155   6.237   2.902
  112SAPE   H3S11643   6.163   6.113   3.023
  112SAPE   C2411644   5.998   6.242   3.059
  112SAPE   H4R11645   5.942   6.312   2.993
  112SAPE   H4S11646   6.064   6.307   3.120
  112SAPE   C2511647   5.904   6.167   3.154
  112SAPE   H5R11648   5.852   6.079   3.112
  112SAPE   C2611649   5.863   6.207   3.278
  112SAPE   H6R11650   5.779   6.149   3.318
  112SAPE   C2711651   5.895   6.321   3.364
  112SAPE   H7R11652   5.802   6.357   3.413
  112SAPE   H7S11653   5.922   6.405   3.296
  112SAPE   C2811654   6.003   6.285   3.462
  112SAPE   H8R11655   6.101   6.271   3.414
  112SAPE   C2911656   5.980   6.245   3.584
  112SAPE   H9R11657   6.059   6.205   3.651
  112SAPE  C21011658   5.852   6.232   3.651
  112SAPE  H10R11659   5.847   6.137   3.709
  112SAPE  H10S11660   5.765   6.222   3.582
  112SAPE  C21111661   5.835   6.361   3.733
  112SAPE  H11R11662   5.800   6.451   3.680
  112SAPE  C21211663   5.853   6.360   3.864
  112SAPE  H12R11664   5.857   6.463   3.904
  112SAPE  C21311665   5.892   6.245   3.961
  112SAPE  H13R11666   5.895   6.150   3.904
  112SAPE  H13S11667   5.810   6.252   4.036
  112SAPE  C21411668   6.021   6.276   4.028
  112SAPE  H14R11669   6.085   6.348   3.976
  112SAPE  C21511670   6.074   6.215   4.138
  112SAPE  H15R11671   6.163   6.254   4.190
  112SAPE  C21611672   6.000   6.105   4.214
  112SAPE  H16R11673   6.064   6.064   4.294
  112SAPE  H16S11674   5.962   6.029   4.143
  112SAPE  C21711675   5.877   6.164   4.294
  112SAPE  H17R11676   5.815   6.080   4.332
  112SAPE  H17S11677   5.814   6.238   4.239
  112SAPE  C21811678   5.924   6.235   4.427
  112SAPE  H18R11679   5.995   6.312   4.390
  112SAPE  H18S11680   5.974   6.164   4.495
  112SAPE  C21911681   5.799   6.288   4.497
  112SAPE  H19R11682   5.744   6.357   4.429
  112SAPE  H19S11683   5.827   6.354   4.582
  112SAPE  C22011684   5.707   6.171   4.539
  112SAPE  H20R11685   5.622   6.214   4.596
  112SAPE  H20S11686   5.756   6.097   4.606
  112SAPE  H20T11687   5.651   6.121   4.457
  112SAPE   C3311688   5.572   6.374   3.089
  112SAPE   H3X11689   5.643   6.291   3.104
  112SAPE   H3Y11690   5.482   6.316   3.057
  112SAPE   C3411691   5.542   6.439   3.227
  112SAPE   H4X11692   5.451   6.502   3.213
  112SAPE   H4Y11693   5.621   6.509   3.262
  112SAPE   C3511694   5.519   6.347   3.344
  112SAPE   H5X11695   5.609   6.283   3.356
  112SAPE   H5Y11696   5.438   6.281   3.308
  112SAPE   C3611697   5.474   6.420   3.465
  112SAPE   H6X11698   5.381   6.476   3.441
  112SAPE   H6Y11699   5.550   6.500   3.478
  112SAPE   C3711700   5.477   6.334   3.595
  112SAPE   H7X11701   5.573   6.279   3.598
  112SAPE   H7Y11702   5.396   6.259   3.589
  112SAPE   C3811703   5.449   6.409   3.729
  112SAPE   H8X11704   5.360   6.474   3.719
  112SAPE   H8Y11705   5.532   6.482   3.743
  112SAPE   C3911706   5.449   6.313   3.853
  112SAPE   H9X11707   5.555   6.279   3.859
  112SAPE   H9Y11708   5.384   6.228   3.825
  112SAPE  C31011709   5.412   6.381   3.992
  112SAPE  H10X11710   5.326   6.449   3.975
  112SAPE  H10Y11711   5.491   6.457   4.013
  112SAPE  C31111712   5.386   6.280   4.104
  112SAPE  H11X11713   5.469   6.206   4.101
  112SAPE  H11Y11714   5.297   6.221   4.072
  112SAPE  C31211715   5.364   6.345   4.239
  112SAPE  H12X11716   5.292   6.427   4.222
  112SAPE  H12Y11717   5.458   6.400   4.262
  112SAPE  C31311718   5.305   6.252   4.349
  112SAPE  H13X11719   5.395   6.210   4.399
  112SAPE  H13Y11720   5.252   6.169   4.297
  112SAPE  C31411721   5.220   6.316   4.461
  112SAPE  H14X11722   5.175   6.404   4.410
  112SAPE  H14Y11723   5.290   6.361   4.535
  112SAPE  C31511724   5.115   6.224   4.532
  112SAPE  H15X11725   5.033   6.212   4.458
  112SAPE  H15Y11726   5.074   6.281   4.618
  112SAPE  C31611727   5.176   6.088   4.580
  112SAPE  H16X11728   5.199   6.024   4.493
  112SAPE  H16Y11729   5.098   6.040   4.644
  112SAPE  C31711730   5.299   6.095   4.671
  112SAPE  H17X11731   5.376   6.151   4.614
  112SAPE  H17Y11732   5.327   5.990   4.693
  112SAPE  C31811733   5.270   6.172   4.795
  112SAPE  H18X11734   5.189   6.126   4.855
  112SAPE  H18Y11735   5.251   6.279   4.768
  112SAPE  H18Z11736   5.358   6.186   4.861
  113SAPE     N11737   5.833   4.354   2.006
  113SAPE   HN111738   5.736   4.376   2.039
  113SAPE   HN211739   5.858   4.417   1.927
  113SAPE   HN311740   5.828   4.261   1.960
  113SAPE   C1211741   5.935   4.356   2.117
  113SAPE  H12A11742   6.035   4.341   2.071
  113SAPE  H12B11743   5.913   4.270   2.183
  113SAPE   C1111744   5.912   4.488   2.200
  113SAPE  H11A11745   5.916   4.568   2.124
  113SAPE  H11B11746   6.001   4.502   2.266
  113SAPE     P11747   5.731   4.634   2.327
  113SAPE   O1311748   5.831   4.742   2.305
  113SAPE   O1411749   5.605   4.661   2.261
  113SAPE   O1211750   5.788   4.490   2.279
  113SAPE   O1111751   5.713   4.622   2.484
  113SAPE    C111752   5.732   4.504   2.568
  113SAPE    HA11753   5.635   4.472   2.613
  113SAPE    HB11754   5.774   4.422   2.505
  113SAPE    C211755   5.825   4.521   2.694
  113SAPE    HS11756   5.775   4.590   2.766
  113SAPE   O2111757   5.955   4.564   2.649
  113SAPE   C2111758   5.965   4.693   2.631
  113SAPE   O2211759   5.886   4.777   2.675
  113SAPE   C2211760   6.089   4.724   2.547
  113SAPE   H2R11761   6.163   4.641   2.550
  113SAPE   H2S11762   6.045   4.736   2.446
  113SAPE    C311763   5.851   4.389   2.777
  113SAPE    HX11764   5.915   4.407   2.867
  113SAPE    HY11765   5.902   4.314   2.714
  113SAPE   O3111766   5.726   4.338   2.827
  113SAPE   C3111767   5.733   4.239   2.913
  113SAPE   O3211768   5.840   4.185   2.945
  113SAPE   C3211769   5.596   4.190   2.966
  113SAPE   H2X11770   5.600   4.079   2.965
  113SAPE   H2Y11771   5.519   4.233   2.899
  113SAPE   C2311772   6.155   4.860   2.595
  113SAPE   H3R11773   6.082   4.941   2.613
  113SAPE   H3S11774   6.226   4.896   2.518
  113SAPE   C2411775   6.230   4.844   2.726
  113SAPE   H4R11776   6.311   4.770   2.708
  113SAPE   H4S11777   6.159   4.802   2.801
  113SAPE   C2511778   6.288   4.974   2.774
  113SAPE   H5R11779   6.314   5.037   2.688
  113SAPE   C2611780   6.311   5.009   2.903
  113SAPE   H6R11781   6.360   5.104   2.927
  113SAPE   C2711782   6.278   4.920   3.020
  113SAPE   H7R11783   6.216   4.833   2.985
  113SAPE   H7S11784   6.209   4.972   3.089
  113SAPE   C2811785   6.396   4.864   3.090
  113SAPE   H8R11786   6.477   4.826   3.025
  113SAPE   C2911787   6.434   4.847   3.215
  113SAPE   H9R11788   6.537   4.808   3.220
  113SAPE  C21011789   6.349   4.875   3.335
  113SAPE  H10R11790   6.263   4.941   3.315
  113SAPE  H10S11791   6.404   4.941   3.405
  113SAPE  C21111792   6.298   4.748   3.394
  113SAPE  H11R11793   6.280   4.671   3.317
  113SAPE  C21211794   6.287   4.710   3.525
  113SAPE  H12R11795   6.257   4.608   3.554
  113SAPE  C21311796   6.324   4.811   3.638
  113SAPE  H13R11797   6.290   4.775   3.737
  113SAPE  H13S11798   6.260   4.899   3.617
  113SAPE  C21411799   6.463   4.872   3.651
  113SAPE  H14R11800   6.524   4.850   3.562
  113SAPE  C21511801   6.529   4.934   3.751
  113SAPE  H15R11802   6.621   4.990   3.727
  113SAPE  C21611803   6.475   4.964   3.889
  113SAPE  H16R11804   6.373   4.920   3.899
  113SAPE  H16S11805   6.462   5.073   3.911
  113SAPE  C21711806   6.566   4.902   4.000
  113SAPE  H17R11807   6.524   4.937   4.096
  113SAPE  H17S11808   6.662   4.957   3.995
  113SAPE  C21811809   6.585   4.750   4.005
  113SAPE  H18R11810   6.693   4.731   3.987
  113SAPE  H18S11811   6.531   4.706   3.919
  113SAPE  C21911812   6.562   4.683   4.145
  113SAPE  H19R11813   6.617   4.750   4.214
  113SAPE  H19S11814   6.597   4.578   4.151
  113SAPE  C22011815   6.414   4.675   4.183
  113SAPE  H20R11816   6.342   4.646   4.104
  113SAPE  H20S11817   6.385   4.772   4.229
  113SAPE  H20T11818   6.414   4.591   4.256
  113SAPE   C3311819   5.573   4.241   3.112
  113SAPE   H3X11820   5.466   4.258   3.138
  113SAPE   H3Y11821   5.622   4.341   3.116
  113SAPE   C3411822   5.647   4.153   3.209
  113SAPE   H4X11823   5.756   4.166   3.188
  113SAPE   H4Y11824   5.606   4.053   3.184
  113SAPE   C3511825   5.633   4.196   3.359
  113SAPE   H5X11826   5.526   4.193   3.391
  113SAPE   H5Y11827   5.653   4.305   3.350
  113SAPE   C3611828   5.725   4.116   3.441
  113SAPE   H6X11829   5.771   4.178   3.521
  113SAPE   H6Y11830   5.810   4.098   3.371
  113SAPE   C3711831   5.672   3.987   3.497
  113SAPE   H7X11832   5.638   3.913   3.422
  113SAPE   H7Y11833   5.579   4.013   3.552
  113SAPE   C3811834   5.763   3.908   3.594
  113SAPE   H8X11835   5.731   3.801   3.602
  113SAPE   H8Y11836   5.870   3.917   3.567
  113SAPE   C3911837   5.725   3.947   3.739
  113SAPE   H9X11838   5.619   3.921   3.759
  113SAPE   H9Y11839   5.735   4.057   3.753
  113SAPE  C31011840   5.816   3.872   3.834
  113SAPE  H10X11841   5.922   3.894   3.808
  113SAPE  H10Y11842   5.802   3.762   3.840
  113SAPE  C31111843   5.794   3.922   3.977
  113SAPE  H11X11844   5.686   3.914   4.001
  113SAPE  H11Y11845   5.830   4.026   3.988
  113SAPE  C31211846   5.876   3.834   4.076
  113SAPE  H12X11847   5.982   3.862   4.064
  113SAPE  H12Y11848   5.857   3.727   4.054
  113SAPE  C31311849   5.830   3.834   4.229
  113SAPE  H13X11850   5.725   3.800   4.234
  113SAPE  H13Y11851   5.823   3.941   4.257
  113SAPE  C31411852   5.922   3.752   4.330
  113SAPE  H14X11853   6.009   3.819   4.347
  113SAPE  H14Y11854   5.956   3.662   4.275
  113SAPE  C31511855   5.859   3.723   4.465
  113SAPE  H15X11856   5.842   3.615   4.481
  113SAPE  H15Y11857   5.757   3.769   4.472
  113SAPE  C31611858   5.938   3.765   4.590
  113SAPE  H16X11859   5.940   3.876   4.588
  113SAPE  H16Y11860   6.041   3.727   4.606
  113SAPE  C31711861   5.853   3.732   4.715
  113SAPE  H17X11862   5.808   3.631   4.708
  113SAPE  H17Y11863   5.775   3.812   4.726
  113SAPE  C31811864   5.935   3.735   4.846
  113SAPE  H18X11865   6.018   3.808   4.832
  113SAPE  H18Y11866   5.980   3.639   4.879
  113SAPE  H18Z11867   5.869   3.776   4.925
  114SAPE     N11868   1.684   5.985   1.609
  114SAPE   HN111869   1.670   5.979   1.506
  114SAPE   HN211870   1.782   5.962   1.633
  114SAPE   HN311871   1.618   5.918   1.653
  114SAPE   C1211872   1.626   6.121   1.652
  114SAPE  H12A11873   1.516   6.106   1.643
  114SAPE  H12B11874   1.655   6.198   1.577
  114SAPE   C1111875   1.661   6.157   1.791
  114SAPE  H11A11876   1.639   6.264   1.813
  114SAPE  H11B11877   1.770   6.141   1.803
  114SAPE     P11878   1.645   6.047   2.027
  114SAPE   O1311879   1.579   5.921   2.074
  114SAPE   O1411880   1.791   6.042   2.012
  114SAPE   O1211881   1.585   6.083   1.884
  114SAPE   O1111882   1.610   6.174   2.123
  114SAPE    C111883   1.481   6.178   2.184
  114SAPE    HA11884   1.407   6.207   2.107
  114SAPE    HB11885   1.452   6.082   2.231
  114SAPE    C211886   1.479   6.281   2.306
  114SAPE    HS11887   1.370   6.299   2.315
  114SAPE   O2111888   1.560   6.389   2.277
  114SAPE   C2111889   1.522   6.502   2.330
  114SAPE   O2211890   1.414   6.522   2.387
  114SAPE   C2211891   1.636   6.609   2.316
  114SAPE   H2R11892   1.731   6.564   2.353
  114SAPE   H2S11893   1.631   6.629   2.207
  114SAPE    C311894   1.526   6.214   2.434
  114SAPE    HX11895   1.633   6.190   2.418
  114SAPE    HY11896   1.482   6.113   2.451
  114SAPE   O3111897   1.526   6.297   2.551
  114SAPE   C3111898   1.409   6.283   2.626
  114SAPE   O3211899   1.323   6.202   2.602
  114SAPE   C3211900   1.415   6.381   2.745
  114SAPE   H2X11901   1.342   6.462   2.725
  114SAPE   H2Y11902   1.520   6.419   2.739
  114SAPE   C2311903   1.610   6.737   2.394
  114SAPE   H3R11904   1.585   6.690   2.492
  114SAPE   H3S11905   1.522   6.793   2.357
  114SAPE   C2411906   1.732   6.832   2.408
  114SAPE   H4R11907   1.701   6.936   2.430
  114SAPE   H4S11908   1.773   6.839   2.305
  114SAPE   C2511909   1.838   6.775   2.498
  114SAPE   H5R11910   1.916   6.720   2.443
  114SAPE   C2611911   1.844   6.791   2.630
  114SAPE   H6R11912   1.932   6.747   2.679
  114SAPE   C2711913   1.745   6.855   2.714
  114SAPE   H7R11914   1.718   6.786   2.798
  114SAPE   H7S11915   1.649   6.867   2.659
  114SAPE   C2811916   1.783   6.986   2.758
  114SAPE   H8R11917   1.822   7.058   2.686
  114SAPE   C2911918   1.750   7.031   2.883
  114SAPE   H9R11919   1.781   7.131   2.917
  114SAPE  C21011920   1.676   6.963   2.989
  114SAPE  H10R11921   1.629   6.864   2.967
  114SAPE  H10S11922   1.594   7.028   3.027
  114SAPE  C21111923   1.775   6.931   3.100
  114SAPE  H11R11924   1.866   6.877   3.073
  114SAPE  C21211925   1.768   6.969   3.227
  114SAPE  H12R11926   1.854   6.944   3.290
  114SAPE  C21311927   1.643   7.034   3.289
  114SAPE  H13R11928   1.556   7.040   3.222
  114SAPE  H13S11929   1.672   7.140   3.304
  114SAPE  C21411930   1.601   6.956   3.411
  114SAPE  H14R11931   1.517   6.886   3.396
  114SAPE  C21511932   1.646   6.956   3.535
  114SAPE  H15R11933   1.591   6.895   3.608
  114SAPE  C21611934   1.756   7.035   3.596
  114SAPE  H16R11935   1.737   7.142   3.573
  114SAPE  H16S11936   1.851   7.005   3.546
  114SAPE  C21711937   1.772   7.023   3.750
  114SAPE  H17R11938   1.847   7.101   3.775
  114SAPE  H17S11939   1.812   6.923   3.776
  114SAPE  C21811940   1.651   7.054   3.839
  114SAPE  H18R11941   1.573   6.976   3.852
  114SAPE  H18S11942   1.600   7.139   3.789
  114SAPE  C21911943   1.703   7.117   3.968
  114SAPE  H19R11944   1.614   7.152   4.025
  114SAPE  H19S11945   1.778   7.199   3.960
  114SAPE  C22011946   1.785   7.008   4.045
  114SAPE  H20R11947   1.713   6.925   4.063
  114SAPE  H20S11948   1.830   7.045   4.139
  114SAPE  H20T11949   1.872   6.966   3.990
  114SAPE   C3311950   1.380   6.301   2.877
  114SAPE   H3X11951   1.461   6.233   2.911
  114SAPE   H3Y11952   1.282   6.249   2.867
  114SAPE   C3411953   1.362   6.398   2.993
  114SAPE   H4X11954   1.272   6.460   2.971
  114SAPE   H4Y11955   1.451   6.464   2.990
  114SAPE   C3511956   1.334   6.325   3.122
  114SAPE   H5X11957   1.414   6.255   3.154
  114SAPE   H5Y11958   1.241   6.266   3.116
  114SAPE   C3611959   1.311   6.412   3.241
  114SAPE   H6X11960   1.213   6.461   3.218
  114SAPE   H6Y11961   1.387   6.493   3.240
  114SAPE   C3711962   1.307   6.327   3.369
  114SAPE   H7X11963   1.402   6.274   3.393
  114SAPE   H7Y11964   1.234   6.244   3.351
  114SAPE   C3811965   1.256   6.404   3.492
  114SAPE   H8X11966   1.230   6.326   3.568
  114SAPE   H8Y11967   1.162   6.455   3.461
  114SAPE   C3911968   1.372   6.487   3.550
  114SAPE   H9X11969   1.430   6.541   3.472
  114SAPE   H9Y11970   1.444   6.415   3.595
  114SAPE  C31011971   1.334   6.600   3.645
  114SAPE  H10X11972   1.259   6.671   3.602
  114SAPE  H10Y11973   1.420   6.666   3.672
  114SAPE  C31111974   1.276   6.545   3.779
  114SAPE  H11X11975   1.347   6.474   3.826
  114SAPE  H11Y11976   1.189   6.483   3.750
  114SAPE  C31211977   1.243   6.663   3.871
  114SAPE  H12X11978   1.160   6.729   3.837
  114SAPE  H12Y11979   1.333   6.729   3.882
  114SAPE  C31311980   1.205   6.606   4.009
  114SAPE  H13X11981   1.285   6.537   4.045
  114SAPE  H13Y11982   1.113   6.546   3.996
  114SAPE  C31411983   1.169   6.721   4.114
  114SAPE  H14X11984   1.103   6.787   4.054
  114SAPE  H14Y11985   1.258   6.786   4.128
  114SAPE  C31511986   1.110   6.671   4.251
  114SAPE  H15X11987   1.191   6.608   4.294
  114SAPE  H15Y11988   1.024   6.604   4.229
  114SAPE  C31611989   1.077   6.788   4.340
  114SAPE  H16X11990   1.016   6.859   4.280
  114SAPE  H16Y11991   1.175   6.837   4.359
  114SAPE  C31711992   1.012   6.761   4.474
  114SAPE  H17X11993   1.080   6.703   4.540
  114SAPE  H17Y11994   0.921   6.703   4.449
  114SAPE  C31811995   0.983   6.891   4.541
  114SAPE  H18X11996   0.987   6.886   4.652
  114SAPE  H18Y11997   0.879   6.922   4.518
  114SAPE  H18Z11998   1.060   6.970   4.533
  115SAPE     N11999   6.006   0.362   2.429
  115SAPE   HN112000   5.921   0.308   2.455
  115SAPE   HN212001   6.069   0.368   2.511
  115SAPE   HN312002   5.974   0.459   2.407
  115SAPE   C1212003   6.076   0.283   2.319
  115SAPE  H12A12004   6.013   0.291   2.228
  115SAPE  H12B12005   6.078   0.177   2.354
  115SAPE   C1112006   6.219   0.346   2.300
  115SAPE  H11A12007   6.205   0.452   2.270
  115SAPE  H11B12008   6.274   0.292   2.219
  115SAPE     P12009   6.421   0.393   2.431
  115SAPE   O1312010   6.476   0.348   2.560
  115SAPE   O1412011   6.499   0.363   2.314
  115SAPE   O1212012   6.286   0.339   2.426
  115SAPE   O1112013   6.385   0.549   2.437
  115SAPE    C112014   6.302   0.612   2.531
  115SAPE    HA12015   6.251   0.698   2.482
  115SAPE    HB12016   6.229   0.537   2.569
  115SAPE    C212017   6.376   0.660   2.657
  115SAPE    HS12018   6.407   0.566   2.707
  115SAPE   O2112019   6.292   0.742   2.737
  115SAPE   C2112020   6.210   0.680   2.813
  115SAPE   O2212021   6.182   0.561   2.810
  115SAPE   C2212022   6.138   0.792   2.903
  115SAPE   H2R12023   6.185   0.890   2.883
  115SAPE   H2S12024   6.028   0.799   2.886
  115SAPE    C312025   6.507   0.738   2.618
  115SAPE    HX12026   6.470   0.820   2.553
  115SAPE    HY12027   6.572   0.670   2.559
  115SAPE   O3112028   6.576   0.788   2.734
  115SAPE   C3112029   6.650   0.699   2.805
  115SAPE   O3212030   6.651   0.582   2.792
  115SAPE   C3212031   6.730   0.778   2.908
  115SAPE   H2X12032   6.719   0.888   2.896
  115SAPE   H2Y12033   6.833   0.742   2.890
  115SAPE   C2312034   6.155   0.752   3.051
  115SAPE   H3R12035   6.259   0.733   3.082
  115SAPE   H3S12036   6.103   0.660   3.086
  115SAPE   C2412037   6.118   0.861   3.154
  115SAPE   H4R12038   6.008   0.875   3.146
  115SAPE   H4S12039   6.155   0.959   3.119
  115SAPE   C2512040   6.154   0.830   3.296
  115SAPE   H5R12041   6.241   0.763   3.301
  115SAPE   C2612042   6.093   0.868   3.405
  115SAPE   H6R12043   6.131   0.834   3.502
  115SAPE   C2712044   5.972   0.965   3.412
  115SAPE   H7R12045   5.879   0.907   3.395
  115SAPE   H7S12046   5.985   1.039   3.329
  115SAPE   C2812047   5.965   1.023   3.554
  115SAPE   H8R12048   6.059   1.066   3.590
  115SAPE   C2912049   5.874   1.015   3.646
  115SAPE   H9R12050   5.897   1.054   3.746
  115SAPE  C21012051   5.743   0.932   3.636
  115SAPE  H10R12052   5.714   0.908   3.531
  115SAPE  H10S12053   5.650   0.984   3.669
  115SAPE  C21112054   5.770   0.805   3.710
  115SAPE  H11R12055   5.813   0.721   3.654
  115SAPE  C21212056   5.737   0.779   3.838
  115SAPE  H12R12057   5.776   0.689   3.888
  115SAPE  C21312058   5.685   0.881   3.933
  115SAPE  H13R12059   5.576   0.900   3.918
  115SAPE  H13S12060   5.730   0.979   3.907
  115SAPE  C21412061   5.712   0.859   4.079
  115SAPE  H14R12062   5.805   0.910   4.108
  115SAPE  C21512063   5.654   0.771   4.169
  115SAPE  H15R12064   5.686   0.770   4.274
  115SAPE  C21612065   5.544   0.678   4.131
  115SAPE  H16R12066   5.493   0.717   4.041
  115SAPE  H16S12067   5.466   0.671   4.210
  115SAPE  C21712068   5.601   0.537   4.106
  115SAPE  H17R12069   5.678   0.536   4.026
  115SAPE  H17S12070   5.519   0.482   4.056
  115SAPE  C21812071   5.653   0.463   4.226
  115SAPE  H18R12072   5.667   0.549   4.294
  115SAPE  H18S12073   5.749   0.422   4.188
  115SAPE  C21912074   5.570   0.351   4.281
  115SAPE  H19R12075   5.565   0.262   4.214
  115SAPE  H19S12076   5.467   0.391   4.298
  115SAPE  C22012077   5.621   0.287   4.413
  115SAPE  H20R12078   5.730   0.269   4.404
  115SAPE  H20S12079   5.566   0.201   4.456
  115SAPE  H20T12080   5.604   0.358   4.497
  115SAPE   C3312081   6.687   0.735   3.054
  115SAPE   H3X12082   6.764   0.774   3.124
  115SAPE   H3Y12083   6.687   0.623   3.054
  115SAPE   C3412084   6.532   0.775   3.075
  115SAPE   H4X12085   6.467   0.685   3.073
  115SAPE   H4Y12086   6.497   0.828   2.984
  115SAPE   C3512087   6.520   0.862   3.200
  115SAPE   H5X12088   6.419   0.907   3.190
  115SAPE   H5Y12089   6.591   0.946   3.184
  115SAPE   C3612090   6.542   0.782   3.331
  115SAPE   H6X12091   6.649   0.759   3.347
  115SAPE   H6Y12092   6.492   0.683   3.333
  115SAPE   C3712093   6.481   0.850   3.445
  115SAPE   H7X12094   6.370   0.853   3.435
  115SAPE   H7Y12095   6.517   0.955   3.448
  115SAPE   C3812096   6.532   0.795   3.570
  115SAPE   H8X12097   6.642   0.807   3.567
  115SAPE   H8Y12098   6.519   0.684   3.574
  115SAPE   C3912099   6.477   0.856   3.701
  115SAPE   H9X12100   6.499   0.965   3.708
  115SAPE   H9Y12101   6.518   0.792   3.782
  115SAPE  C31012102   6.328   0.836   3.711
  115SAPE  H10X12103   6.300   0.733   3.681
  115SAPE  H10Y12104   6.284   0.905   3.636
  115SAPE  C31112105   6.253   0.862   3.845
  115SAPE  H11X12106   6.297   0.801   3.927
  115SAPE  H11Y12107   6.144   0.837   3.841
  115SAPE  C31212108   6.259   1.018   3.880
  115SAPE  H12X12109   6.188   1.064   3.807
  115SAPE  H12Y12110   6.355   1.074   3.879
  115SAPE  C31312111   6.216   1.040   4.025
  115SAPE  H13X12112   6.279   0.984   4.098
  115SAPE  H13Y12113   6.115   0.998   4.043
  115SAPE  C31412114   6.207   1.194   4.049
  115SAPE  H14X12115   6.157   1.236   3.959
  115SAPE  H14Y12116   6.309   1.238   4.055
  115SAPE  C31512117   6.125   1.234   4.176
  115SAPE  H15X12118   6.024   1.188   4.189
  115SAPE  H15Y12119   6.108   1.343   4.169
  115SAPE  C31612120   6.200   1.189   4.300
  115SAPE  H16X12121   6.307   1.217   4.281
  115SAPE  H16Y12122   6.198   1.079   4.314
  115SAPE  C31712123   6.175   1.264   4.427
  115SAPE  H17X12124   6.240   1.215   4.504
  115SAPE  H17Y12125   6.073   1.250   4.469
  115SAPE  C31812126   6.209   1.415   4.419
  115SAPE  H18X12127   6.319   1.422   4.399
  115SAPE  H18Y12128   6.179   1.449   4.520
  115SAPE  H18Z12129   6.141   1.470   4.351
  116SAPE     N12130   5.877   1.910   2.194
  116SAPE   HN112131   5.929   1.855   2.266
  116SAPE   HN212132   5.880   1.852   2.109
  116SAPE   HN312133   5.937   1.991   2.169
  116SAPE   C1212134   5.743   1.966   2.228
  116SAPE  H12A12135   5.754   2.017   2.326
  116SAPE  H12B12136   5.666   1.886   2.236
  116SAPE   C1112137   5.688   2.071   2.124
  116SAPE  H11A12138   5.599   2.121   2.169
  116SAPE  H11B12139   5.655   2.005   2.040
  116SAPE     P12140   5.818   2.287   2.166
  116SAPE   O1312141   5.963   2.312   2.158
  116SAPE   O1412142   5.728   2.400   2.119
  116SAPE   O1212143   5.785   2.160   2.080
  116SAPE   O1112144   5.779   2.247   2.316
  116SAPE    C112145   5.819   2.320   2.434
  116SAPE    HA12146   5.850   2.248   2.512
  116SAPE    HB12147   5.899   2.396   2.418
  116SAPE    C212148   5.699   2.394   2.505
  116SAPE    HS12149   5.646   2.468   2.441
  116SAPE   O2112150   5.748   2.453   2.626
  116SAPE   C2112151   5.680   2.546   2.688
  116SAPE   O2212152   5.579   2.592   2.643
  116SAPE   C2212153   5.733   2.592   2.817
  116SAPE   H2R12154   5.832   2.544   2.834
  116SAPE   H2S12155   5.736   2.703   2.808
  116SAPE    C312156   5.589   2.289   2.529
  116SAPE    HX12157   5.554   2.259   2.428
  116SAPE    HY12158   5.503   2.346   2.570
  116SAPE   O3112159   5.631   2.181   2.619
  116SAPE   C3112160   5.604   2.055   2.585
  116SAPE   O3212161   5.550   2.017   2.480
  116SAPE   C3212162   5.655   1.944   2.686
  116SAPE   H2X12163   5.614   1.846   2.651
  116SAPE   H2Y12164   5.612   1.964   2.787
  116SAPE   C2312165   5.648   2.551   2.940
  116SAPE   H3R12166   5.664   2.442   2.953
  116SAPE   H3S12167   5.538   2.569   2.932
  116SAPE   C2412168   5.701   2.621   3.062
  116SAPE   H4R12169   5.811   2.636   3.056
  116SAPE   H4S12170   5.691   2.562   3.156
  116SAPE   C2512171   5.645   2.763   3.072
  116SAPE   H5R12172   5.644   2.828   2.983
  116SAPE   C2612173   5.627   2.811   3.192
  116SAPE   H6R12174   5.576   2.909   3.200
  116SAPE   C2712175   5.637   2.761   3.332
  116SAPE   H7R12176   5.646   2.651   3.341
  116SAPE   H7S12177   5.545   2.796   3.383
  116SAPE   C2812178   5.760   2.826   3.388
  116SAPE   H8R12179   5.847   2.831   3.322
  116SAPE   C2912180   5.783   2.825   3.523
  116SAPE   H9R12181   5.881   2.864   3.555
  116SAPE  C21012182   5.704   2.775   3.642
  116SAPE  H10R12183   5.713   2.666   3.660
  116SAPE  H10S12184   5.595   2.796   3.634
  116SAPE  C21112185   5.739   2.842   3.767
  116SAPE  H11R12186   5.734   2.952   3.760
  116SAPE  C21212187   5.782   2.799   3.887
  116SAPE  H12R12188   5.783   2.864   3.975
  116SAPE  C21312189   5.815   2.656   3.928
  116SAPE  H13R12190   5.925   2.649   3.944
  116SAPE  H13S12191   5.798   2.584   3.846
  116SAPE  C21412192   5.744   2.608   4.056
  116SAPE  H14R12193   5.643   2.565   4.045
  116SAPE  C21512194   5.790   2.620   4.180
  116SAPE  H15R12195   5.723   2.582   4.258
  116SAPE  C21612196   5.921   2.667   4.240
  116SAPE  H16R12197   5.976   2.716   4.157
  116SAPE  H16S12198   5.990   2.585   4.269
  116SAPE  C21712199   5.918   2.781   4.351
  116SAPE  H17R12200   5.849   2.745   4.431
  116SAPE  H17S12201   5.853   2.851   4.295
  116SAPE  C21812202   6.050   2.842   4.392
  116SAPE  H18R12203   6.028   2.912   4.476
  116SAPE  H18S12204   6.104   2.900   4.314
  116SAPE  C21912205   6.150   2.739   4.449
  116SAPE  H19R12206   6.209   2.702   4.362
  116SAPE  H19S12207   6.100   2.650   4.494
  116SAPE  C22012208   6.243   2.790   4.559
  116SAPE  H20R12209   6.190   2.828   4.649
  116SAPE  H20S12210   6.312   2.874   4.534
  116SAPE  H20T12211   6.311   2.705   4.580
  116SAPE   C3312212   5.809   1.944   2.711
  116SAPE   H3X12213   5.849   2.048   2.719
  116SAPE   H3Y12214   5.866   1.890   2.633
  116SAPE   C3412215   5.843   1.874   2.839
  116SAPE   H4X12216   5.794   1.774   2.844
  116SAPE   H4Y12217   5.813   1.937   2.926
  116SAPE   C3512218   5.991   1.843   2.869
  116SAPE   H5X12219   6.053   1.934   2.855
  116SAPE   H5Y12220   6.030   1.767   2.798
  116SAPE   C3612221   5.996   1.803   3.020
  116SAPE   H6X12222   5.928   1.718   3.039
  116SAPE   H6Y12223   5.948   1.890   3.072
  116SAPE   C3712224   6.137   1.797   3.071
  116SAPE   H7X12225   6.178   1.899   3.089
  116SAPE   H7Y12226   6.201   1.742   2.998
  116SAPE   C3812227   6.153   1.727   3.207
  116SAPE   H8X12228   6.262   1.732   3.229
  116SAPE   H8Y12229   6.118   1.622   3.191
  116SAPE   C3912230   6.077   1.776   3.331
  116SAPE   H9X12231   5.970   1.746   3.324
  116SAPE   H9Y12232   6.077   1.887   3.329
  116SAPE  C31012233   6.147   1.716   3.460
  116SAPE  H10X12234   6.251   1.752   3.470
  116SAPE  H10Y12235   6.159   1.608   3.439
  116SAPE  C31112236   6.062   1.744   3.587
  116SAPE  H11X12237   5.956   1.712   3.581
  116SAPE  H11Y12238   6.058   1.854   3.598
  116SAPE  C31212239   6.135   1.681   3.703
  116SAPE  H12X12240   6.241   1.715   3.701
  116SAPE  H12Y12241   6.138   1.570   3.698
  116SAPE  C31312242   6.067   1.719   3.836
  116SAPE  H13X12243   5.966   1.675   3.832
  116SAPE  H13Y12244   6.044   1.828   3.838
  116SAPE  C31412245   6.150   1.667   3.946
  116SAPE  H14X12246   6.260   1.680   3.938
  116SAPE  H14Y12247   6.141   1.556   3.941
  116SAPE  C31512248   6.126   1.712   4.096
  116SAPE  H15X12249   6.217   1.669   4.143
  116SAPE  H15Y12250   6.034   1.660   4.129
  116SAPE  C31612251   6.103   1.867   4.124
  116SAPE  H16X12252   5.999   1.889   4.090
  116SAPE  H16Y12253   6.178   1.919   4.061
  116SAPE  C31712254   6.100   1.924   4.260
  116SAPE  H17X12255   6.027   2.007   4.277
  116SAPE  H17Y12256   6.202   1.953   4.293
  116SAPE  C31812257   6.064   1.830   4.371
  116SAPE  H18X12258   6.121   1.848   4.466
  116SAPE  H18Y12259   6.067   1.721   4.349
  116SAPE  H18Z12260   5.963   1.862   4.405
  117SOPE     N12261   3.648   2.174   6.565
  117SOPE   HN112262   3.626   2.115   6.482
  117SOPE   HN212263   3.749   2.162   6.587
  117SOPE   HN312264   3.599   2.143   6.651
  117SOPE   C1212265   3.637   2.324   6.537
  117SOPE  H12A12266   3.529   2.350   6.532
  117SOPE  H12B12267   3.688   2.350   6.442
  117SOPE   C1112268   3.702   2.397   6.655
  117SOPE  H11A12269   3.663   2.355   6.751
  117SOPE  H11B12270   3.683   2.506   6.645
  117SOPE     P12271   3.953   2.487   6.639
  117SOPE   O1312272   4.089   2.428   6.653
  117SOPE   O1412273   3.926   2.604   6.727
  117SOPE   O1212274   3.843   2.378   6.658
  117SOPE   O1112275   3.927   2.542   6.486
  117SOPE    C112276   3.971   2.451   6.388
  117SOPE    HA12277   3.934   2.347   6.402
  117SOPE    HB12278   4.082   2.446   6.388
  117SOPE    C212279   3.918   2.506   6.253
  117SOPE    HS12280   3.963   2.607   6.236
  117SOPE   O2112281   3.770   2.508   6.260
  117SOPE   C2112282   3.711   2.605   6.197
  117SOPE   O2212283   3.763   2.713   6.162
  117SOPE   C2212284   3.566   2.560   6.170
  117SOPE   H2R12285   3.527   2.530   6.270
  117SOPE   H2S12286   3.584   2.472   6.105
  117SOPE    C312287   3.968   2.406   6.151
  117SOPE    HX12288   3.912   2.310   6.153
  117SOPE    HY12289   4.072   2.387   6.184
  117SOPE   O3112290   3.973   2.468   6.016
  117SOPE   C3112291   3.873   2.437   5.928
  117SOPE   O3212292   3.767   2.377   5.956
  117SOPE   C3212293   3.918   2.480   5.787
  117SOPE   H2X12294   3.994   2.404   5.757
  117SOPE   H2Y12295   3.976   2.575   5.790
  117SOPE   C2312296   3.472   2.663   6.099
  117SOPE   H3R12297   3.486   2.756   6.159
  117SOPE   H3S12298   3.364   2.638   6.090
  117SOPE   C2412299   3.520   2.681   5.959
  117SOPE   H4R12300   3.620   2.730   5.957
  117SOPE   H4S12301   3.527   2.585   5.903
  117SOPE   C2512302   3.425   2.775   5.883
  117SOPE   H5R12303   3.321   2.736   5.877
  117SOPE   H5S12304   3.413   2.876   5.928
  117SOPE   C2612305   3.486   2.787   5.742
  117SOPE   H6R12306   3.591   2.824   5.747
  117SOPE   H6S12307   3.482   2.684   5.701
  117SOPE   C2712308   3.409   2.890   5.654
  117SOPE   H7R12309   3.301   2.881   5.677
  117SOPE   H7S12310   3.432   2.993   5.688
  117SOPE   C2812311   3.418   2.867   5.500
  117SOPE   H8R12312   3.366   2.769   5.486
  117SOPE   H8S12313   3.351   2.938   5.448
  117SOPE   C2912314   3.553   2.879   5.440
  117SOPE   H9112315   3.622   2.799   5.470
  117SOPE  C21012316   3.584   2.947   5.329
  117SOPE  H10112317   3.688   2.935   5.297
  117SOPE  C21112318   3.491   3.039   5.252
  117SOPE  H11R12319   3.505   3.146   5.280
  117SOPE  H11S12320   3.384   3.018   5.273
  117SOPE  C21212321   3.507   3.014   5.098
  117SOPE  H12R12322   3.479   2.909   5.074
  117SOPE  H12S12323   3.615   3.013   5.070
  117SOPE  C21312324   3.424   3.123   5.020
  117SOPE  H13R12325   3.450   3.225   5.056
  117SOPE  H13S12326   3.316   3.112   5.041
  117SOPE  C21412327   3.437   3.114   4.862
  117SOPE  H14R12328   3.546   3.131   4.847
  117SOPE  H14S12329   3.381   3.198   4.816
  117SOPE  C21512330   3.393   2.981   4.794
  117SOPE  H15R12331   3.282   2.970   4.790
  117SOPE  H15S12332   3.432   2.892   4.848
  117SOPE  C21612333   3.424   2.981   4.647
  117SOPE  H16R12334   3.379   2.888   4.606
  117SOPE  H16S12335   3.535   2.975   4.636
  117SOPE  C21712336   3.370   3.102   4.570
  117SOPE  H17R12337   3.428   3.195   4.585
  117SOPE  H17S12338   3.268   3.122   4.609
  117SOPE  C21812339   3.352   3.085   4.414
  117SOPE  H18R12340   3.450   3.055   4.371
  117SOPE  H18S12341   3.315   3.177   4.363
  117SOPE  H18T12342   3.275   3.009   4.393
  117SOPE   C3312343   3.800   2.482   5.687
  117SOPE   H3X12344   3.708   2.532   5.726
  117SOPE   H3Y12345   3.776   2.376   5.665
  117SOPE   C3412346   3.840   2.556   5.560
  117SOPE   H4X12347   3.933   2.517   5.514
  117SOPE   H4Y12348   3.860   2.665   5.567
  117SOPE   C3512349   3.727   2.534   5.453
  117SOPE   H5X12350   3.636   2.572   5.503
  117SOPE   H5Y12351   3.707   2.426   5.438
  117SOPE   C3612352   3.768   2.594   5.324
  117SOPE   H6X12353   3.830   2.679   5.360
  117SOPE   H6Y12354   3.677   2.628   5.270
  117SOPE   C3712355   3.825   2.510   5.214
  117SOPE   H7X12356   3.761   2.419   5.217
  117SOPE   H7Y12357   3.928   2.476   5.238
  117SOPE   C3812358   3.810   2.569   5.078
  117SOPE   H8X12359   3.850   2.672   5.077
  117SOPE   H8Y12360   3.702   2.577   5.054
  117SOPE   C3912361   3.884   2.488   4.970
  117SOPE   H9X12362   3.843   2.385   4.967
  117SOPE   H9Y12363   3.991   2.495   4.999
  117SOPE  C31012364   3.874   2.551   4.830
  117SOPE  H10X12365   3.915   2.654   4.817
  117SOPE  H10Y12366   3.765   2.567   4.816
  117SOPE  C31112367   3.928   2.466   4.715
  117SOPE  H11X12368   3.919   2.513   4.614
  117SOPE  H11Y12369   3.874   2.369   4.719
  117SOPE  C31212370   4.078   2.438   4.723
  117SOPE  H12X12371   4.104   2.390   4.820
  117SOPE  H12Y12372   4.136   2.533   4.725
  117SOPE  C31312373   4.135   2.351   4.609
  117SOPE  H13X12374   4.084   2.387   4.517
  117SOPE  H13Y12375   4.126   2.240   4.614
  117SOPE  C31412376   4.286   2.382   4.581
  117SOPE  H14X12377   4.313   2.303   4.507
  117SOPE  H14Y12378   4.332   2.366   4.680
  117SOPE  C31512379   4.329   2.525   4.533
  117SOPE  H15X12380   4.323   2.594   4.619
  117SOPE  H15Y12381   4.257   2.557   4.455
  117SOPE  C31612382   4.471   2.537   4.478
  117SOPE  H16X12383   4.474   2.482   4.381
  117SOPE  H16Y12384   4.541   2.500   4.556
  117SOPE  C31712385   4.523   2.674   4.459
  117SOPE  H17X12386   4.444   2.721   4.397
  117SOPE  H17Y12387   4.612   2.658   4.395
  117SOPE  C31812388   4.554   2.746   4.585
  117SOPE  H18X12389   4.607   2.684   4.660
  117SOPE  H18Y12390   4.463   2.774   4.643
  117SOPE  H18Z12391   4.619   2.836   4.577
  118SOPE     N12392   4.326   4.654   6.627
  118SOPE   HN112393   4.292   4.745   6.663
  118SOPE   HN212394   4.368   4.665   6.532
  118SOPE   HN312395   4.242   4.594   6.641
  118SOPE   C1212396   4.426   4.606   6.736
  118SOPE  H12A12397   4.380   4.622   6.836
  118SOPE  H12B12398   4.519   4.666   6.738
  118SOPE   C1112399   4.463   4.457   6.709
  118SOPE  H11A12400   4.516   4.409   6.794
  118SOPE  H11B12401   4.529   4.445   6.620
  118SOPE     P12402   4.331   4.248   6.617
  118SOPE   O1312403   4.187   4.208   6.632
  118SOPE   O1412404   4.432   4.149   6.658
  118SOPE   O1212405   4.346   4.380   6.702
  118SOPE   O1112406   4.359   4.303   6.467
  118SOPE    C112407   4.250   4.332   6.377
  118SOPE    HA12408   4.291   4.397   6.297
  118SOPE    HB12409   4.171   4.396   6.421
  118SOPE    C212410   4.196   4.209   6.295
  118SOPE    HS12411   4.140   4.143   6.366
  118SOPE   O2112412   4.306   4.135   6.232
  118SOPE   C2112413   4.317   4.006   6.267
  118SOPE   O2212414   4.256   3.948   6.349
  118SOPE   C2212415   4.445   3.950   6.195
  118SOPE   H2R12416   4.426   3.841   6.187
  118SOPE   H2S12417   4.530   3.961   6.266
  118SOPE    C312418   4.087   4.245   6.191
  118SOPE    HX12419   3.993   4.277   6.241
  118SOPE    HY12420   4.062   4.148   6.143
  118SOPE   O3112421   4.123   4.346   6.104
  118SOPE   C3112422   4.166   4.302   5.985
  118SOPE   O3212423   4.170   4.184   5.949
  118SOPE   C3212424   4.228   4.423   5.917
  118SOPE   H2X12425   4.282   4.491   5.987
  118SOPE   H2Y12426   4.147   4.477   5.864
  118SOPE   C2312427   4.474   4.009   6.056
  118SOPE   H3R12428   4.382   4.048   6.008
  118SOPE   H3S12429   4.517   3.927   5.994
  118SOPE   C2412430   4.578   4.126   6.051
  118SOPE   H4R12431   4.524   4.217   6.017
  118SOPE   H4S12432   4.617   4.149   6.152
  118SOPE   C2512433   4.698   4.097   5.956
  118SOPE   H5R12434   4.787   4.160   5.981
  118SOPE   H5S12435   4.736   3.994   5.972
  118SOPE   C2612436   4.660   4.122   5.806
  118SOPE   H6R12437   4.562   4.074   5.786
  118SOPE   H6S12438   4.646   4.231   5.796
  118SOPE   C2712439   4.764   4.069   5.709
  118SOPE   H7R12440   4.856   4.122   5.741
  118SOPE   H7S12441   4.774   3.959   5.714
  118SOPE   C2812442   4.733   4.121   5.570
  118SOPE   H8R12443   4.622   4.118   5.561
  118SOPE   H8S12444   4.768   4.226   5.560
  118SOPE   C2912445   4.804   4.046   5.462
  118SOPE   H9112446   4.907   4.069   5.434
  118SOPE  C21012447   4.754   3.951   5.385
  118SOPE  H10112448   4.814   3.935   5.293
  118SOPE  C21112449   4.611   3.887   5.392
  118SOPE  H11R12450   4.559   3.893   5.490
  118SOPE  H11S12451   4.611   3.779   5.365
  118SOPE  C21212452   4.507   3.943   5.290
  118SOPE  H12R12453   4.507   4.053   5.298
  118SOPE  H12S12454   4.416   3.882   5.311
  118SOPE  C21312455   4.557   3.900   5.145
  118SOPE  H13R12456   4.574   3.791   5.159
  118SOPE  H13S12457   4.650   3.954   5.119
  118SOPE  C21412458   4.450   3.929   5.040
  118SOPE  H14R12459   4.470   4.027   4.991
  118SOPE  H14S12460   4.352   3.930   5.091
  118SOPE  C21512461   4.437   3.813   4.937
  118SOPE  H15R12462   4.419   3.723   5.000
  118SOPE  H15S12463   4.538   3.801   4.892
  118SOPE  C21612464   4.326   3.828   4.838
  118SOPE  H16R12465   4.334   3.927   4.788
  118SOPE  H16S12466   4.230   3.825   4.895
  118SOPE  C21712467   4.323   3.726   4.726
  118SOPE  H17R12468   4.304   3.628   4.776
  118SOPE  H17S12469   4.423   3.723   4.677
  118SOPE  C21812470   4.221   3.747   4.610
  118SOPE  H18R12471   4.216   3.667   4.533
  118SOPE  H18S12472   4.250   3.837   4.553
  118SOPE  H18T12473   4.115   3.752   4.643
  118SOPE   C3312474   4.324   4.383   5.801
  118SOPE   H3X12475   4.379   4.287   5.808
  118SOPE   H3Y12476   4.396   4.463   5.774
  118SOPE   C3412477   4.241   4.367   5.673
  118SOPE   H4X12478   4.214   4.468   5.635
  118SOPE   H4Y12479   4.148   4.307   5.682
  118SOPE   C3512480   4.315   4.280   5.562
  118SOPE   H5X12481   4.335   4.179   5.605
  118SOPE   H5Y12482   4.420   4.311   5.548
  118SOPE   C3612483   4.257   4.263   5.427
  118SOPE   H6X12484   4.161   4.207   5.417
  118SOPE   H6Y12485   4.331   4.202   5.371
  118SOPE   C3712486   4.244   4.398   5.353
  118SOPE   H7X12487   4.341   4.451   5.356
  118SOPE   H7Y12488   4.173   4.466   5.405
  118SOPE   C3812489   4.194   4.400   5.204
  118SOPE   H8X12490   4.114   4.323   5.192
  118SOPE   H8Y12491   4.275   4.368   5.135
  118SOPE   C3912492   4.156   4.542   5.157
  118SOPE   H9X12493   4.250   4.602   5.154
  118SOPE   H9Y12494   4.082   4.585   5.227
  118SOPE  C31012495   4.070   4.555   5.026
  118SOPE  H10X12496   3.982   4.488   5.028
  118SOPE  H10Y12497   4.137   4.524   4.943
  118SOPE  C31112498   4.018   4.697   5.019
  118SOPE  H11X12499   4.094   4.779   5.023
  118SOPE  H11Y12500   3.955   4.724   5.106
  118SOPE  C31212501   3.926   4.715   4.896
  118SOPE  H12X12502   3.872   4.812   4.906
  118SOPE  H12Y12503   3.846   4.640   4.911
  118SOPE  C31312504   4.000   4.686   4.757
  118SOPE  H13X12505   4.018   4.579   4.782
  118SOPE  H13Y12506   4.099   4.733   4.744
  118SOPE  C31412507   3.905   4.683   4.633
  118SOPE  H14X12508   3.813   4.621   4.643
  118SOPE  H14Y12509   3.952   4.638   4.543
  118SOPE  C31512510   3.834   4.819   4.606
  118SOPE  H15X12511   3.906   4.896   4.571
  118SOPE  H15Y12512   3.776   4.860   4.691
  118SOPE  C31612513   3.735   4.799   4.493
  118SOPE  H16X12514   3.662   4.883   4.485
  118SOPE  H16Y12515   3.667   4.713   4.516
  118SOPE  C31712516   3.787   4.764   4.352
  118SOPE  H17X12517   3.851   4.673   4.357
  118SOPE  H17Y12518   3.862   4.841   4.323
  118SOPE  C31812519   3.678   4.749   4.247
  118SOPE  H18X12520   3.626   4.655   4.277
  118SOPE  H18Y12521   3.721   4.744   4.145
  118SOPE  H18Z12522   3.605   4.833   4.246
  119SOPE     N12523   5.667   4.358   7.028
  119SOPE   HN112524   5.639   4.358   7.128
  119SOPE   HN212525   5.684   4.453   6.989
  119SOPE   HN312526   5.596   4.315   6.965
  119SOPE   C1212527   5.788   4.264   7.009
  119SOPE  H12A12528   5.869   4.293   7.079
  119SOPE  H12B12529   5.810   4.292   6.904
  119SOPE   C1112530   5.750   4.116   7.011
  119SOPE  H11A12531   5.722   4.092   7.116
  119SOPE  H11B12532   5.844   4.062   6.986
  119SOPE     P12533   5.612   3.947   6.859
  119SOPE   O1312534   5.505   3.970   6.761
  119SOPE   O1412535   5.587   3.846   6.966
  119SOPE   O1212536   5.634   4.088   6.933
  119SOPE   O1112537   5.755   3.927   6.797
  119SOPE    C112538   5.790   3.957   6.656
  119SOPE    HA12539   5.850   4.050   6.645
  119SOPE    HB12540   5.695   3.984   6.606
  119SOPE    C212541   5.848   3.830   6.595
  119SOPE    HS12542   5.950   3.838   6.639
  119SOPE   O2112543   5.834   3.855   6.458
  119SOPE   C2112544   5.926   3.799   6.385
  119SOPE   O2212545   6.034   3.762   6.422
  119SOPE   C2212546   5.886   3.811   6.232
  119SOPE   H2R12547   5.870   3.920   6.218
  119SOPE   H2S12548   5.786   3.766   6.213
  119SOPE    C312549   5.761   3.696   6.630
  119SOPE    HX12550   5.672   3.714   6.567
  119SOPE    HY12551   5.720   3.687   6.733
  119SOPE   O3112552   5.822   3.575   6.582
  119SOPE   C3112553   5.916   3.528   6.662
  119SOPE   O3212554   5.950   3.581   6.765
  119SOPE   C3212555   5.981   3.403   6.602
  119SOPE   H2X12556   5.896   3.340   6.568
  119SOPE   H2Y12557   6.043   3.352   6.679
  119SOPE   C2312558   5.990   3.752   6.134
  119SOPE   H3R12559   5.992   3.642   6.148
  119SOPE   H3S12560   6.090   3.785   6.169
  119SOPE   C2412561   5.959   3.783   5.986
  119SOPE   H4R12562   5.871   3.732   5.942
  119SOPE   H4S12563   5.940   3.893   5.984
  119SOPE   C2512564   6.080   3.761   5.900
  119SOPE   H5R12565   6.162   3.819   5.948
  119SOPE   H5S12566   6.100   3.653   5.913
  119SOPE   C2612567   6.051   3.815   5.753
  119SOPE   H6R12568   5.963   3.765   5.709
  119SOPE   H6S12569   6.018   3.920   5.763
  119SOPE   C2712570   6.178   3.821   5.671
  119SOPE   H7R12571   6.258   3.864   5.734
  119SOPE   H7S12572   6.217   3.723   5.636
  119SOPE   C2812573   6.149   3.915   5.548
  119SOPE   H8R12574   6.049   3.883   5.511
  119SOPE   H8S12575   6.144   4.013   5.600
  119SOPE   C2912576   6.269   3.920   5.457
  119SOPE   H9112577   6.363   3.935   5.512
  119SOPE  C21012578   6.266   3.909   5.323
  119SOPE  H10112579   6.357   3.921   5.263
  119SOPE  C21112580   6.155   3.871   5.235
  119SOPE  H11R12581   6.068   3.848   5.300
  119SOPE  H11S12582   6.186   3.787   5.169
  119SOPE  C21212583   6.103   3.989   5.140
  119SOPE  H12R12584   6.065   4.073   5.202
  119SOPE  H12S12585   6.011   3.948   5.094
  119SOPE  C21312586   6.195   4.054   5.039
  119SOPE  H13R12587   6.273   4.121   5.080
  119SOPE  H13S12588   6.132   4.121   4.976
  119SOPE  C21412589   6.286   3.951   4.964
  119SOPE  H14R12590   6.216   3.892   4.902
  119SOPE  H14S12591   6.336   3.878   5.031
  119SOPE  C21512592   6.395   4.011   4.872
  119SOPE  H15R12593   6.464   4.072   4.935
  119SOPE  H15S12594   6.355   4.086   4.800
  119SOPE  C21612595   6.474   3.913   4.788
  119SOPE  H16R12596   6.509   3.828   4.850
  119SOPE  H16S12597   6.562   3.962   4.740
  119SOPE  C21712598   6.398   3.851   4.668
  119SOPE  H17R12599   6.357   3.937   4.611
  119SOPE  H17S12600   6.313   3.791   4.709
  119SOPE  C21812601   6.481   3.752   4.578
  119SOPE  H18R12602   6.521   3.668   4.638
  119SOPE  H18S12603   6.562   3.808   4.526
  119SOPE  H18T12604   6.413   3.713   4.499
  119SOPE   C3312605   6.060   3.423   6.472
  119SOPE   H3X12606   6.148   3.490   6.481
  119SOPE   H3Y12607   5.993   3.486   6.409
  119SOPE   C3412608   6.105   3.290   6.401
  119SOPE   H4X12609   6.021   3.218   6.396
  119SOPE   H4Y12610   6.191   3.258   6.463
  119SOPE   C3512611   6.149   3.329   6.257
  119SOPE   H5X12612   6.235   3.398   6.267
  119SOPE   H5Y12613   6.065   3.382   6.207
  119SOPE   C3612614   6.182   3.201   6.183
  119SOPE   H6X12615   6.102   3.124   6.186
  119SOPE   H6Y12616   6.271   3.156   6.231
  119SOPE   C3712617   6.212   3.219   6.034
  119SOPE   H7X12618   6.122   3.266   5.991
  119SOPE   H7Y12619   6.235   3.118   5.993
  119SOPE   C3812620   6.331   3.316   6.017
  119SOPE   H8X12621   6.405   3.286   6.094
  119SOPE   H8Y12622   6.295   3.417   6.049
  119SOPE   C3912623   6.379   3.318   5.870
  119SOPE   H9X12624   6.429   3.220   5.854
  119SOPE   H9Y12625   6.452   3.402   5.860
  119SOPE  C31012626   6.274   3.337   5.761
  119SOPE  H10X12627   6.205   3.417   5.796
  119SOPE  H10Y12628   6.215   3.244   5.757
  119SOPE  C31112629   6.312   3.375   5.620
  119SOPE  H11X12630   6.380   3.297   5.581
  119SOPE  H11Y12631   6.362   3.475   5.619
  119SOPE  C31212632   6.207   3.365   5.511
  119SOPE  H12X12633   6.134   3.448   5.502
  119SOPE  H12Y12634   6.149   3.274   5.538
  119SOPE  C31312635   6.268   3.347   5.369
  119SOPE  H13X12636   6.186   3.319   5.300
  119SOPE  H13Y12637   6.340   3.262   5.364
  119SOPE  C31412638   6.349   3.474   5.330
  119SOPE  H14X12639   6.422   3.507   5.406
  119SOPE  H14Y12640   6.274   3.557   5.324
  119SOPE  C31512641   6.430   3.451   5.200
  119SOPE  H15X12642   6.358   3.406   5.129
  119SOPE  H15Y12643   6.514   3.380   5.215
  119SOPE  C31612644   6.489   3.580   5.129
  119SOPE  H16X12645   6.523   3.641   5.216
  119SOPE  H16Y12646   6.402   3.634   5.087
  119SOPE  C31712647   6.582   3.571   5.013
  119SOPE  H17X12648   6.682   3.527   5.027
  119SOPE  H17Y12649   6.618   3.670   4.977
  119SOPE  C31812650   6.521   3.499   4.889
  119SOPE  H18X12651   6.591   3.498   4.803
  119SOPE  H18Y12652   6.434   3.554   4.849
  119SOPE  H18Z12653   6.486   3.398   4.920
  120SOPE     N12654   6.047   6.630   6.799
  120SOPE   HN112655   6.014   6.550   6.857
  120SOPE   HN212656   6.128   6.668   6.852
  120SOPE   HN312657   5.967   6.696   6.792
  120SOPE   C1212658   6.082   6.581   6.662
  120SOPE  H12A12659   6.190   6.575   6.636
  120SOPE  H12B12660   6.036   6.653   6.590
  120SOPE   C1112661   6.017   6.439   6.639
  120SOPE  H11A12662   6.080   6.358   6.682
  120SOPE  H11B12663   6.010   6.408   6.533
  120SOPE     P12664   5.834   6.364   6.812
  120SOPE   O1312665   5.679   6.368   6.823
  120SOPE   O1412666   5.911   6.409   6.924
  120SOPE   O1212667   5.877   6.441   6.677
  120SOPE   O1112668   5.889   6.226   6.785
  120SOPE    C112669   5.835   6.150   6.674
  120SOPE    HA12670   5.811   6.218   6.590
  120SOPE    HB12671   5.747   6.092   6.709
  120SOPE    C212672   5.942   6.046   6.618
  120SOPE    HS12673   5.961   5.967   6.694
  120SOPE   O2112674   6.072   6.114   6.589
  120SOPE   C2112675   6.174   6.036   6.591
  120SOPE   O2212676   6.180   5.924   6.633
  120SOPE   C2212677   6.285   6.117   6.516
  120SOPE   H2R12678   6.354   6.146   6.598
  120SOPE   H2S12679   6.245   6.213   6.477
  120SOPE    C312680   5.889   5.956   6.497
  120SOPE    HX12681   5.817   5.877   6.528
  120SOPE    HY12682   5.975   5.898   6.457
  120SOPE   O3112683   5.841   6.039   6.387
  120SOPE   C3112684   5.712   6.067   6.368
  120SOPE   O3212685   5.629   6.039   6.449
  120SOPE   C3212686   5.696   6.125   6.232
  120SOPE   H2X12687   5.770   6.076   6.166
  120SOPE   H2Y12688   5.720   6.233   6.239
  120SOPE   C2312689   6.357   6.044   6.404
  120SOPE   H3R12690   6.286   6.006   6.328
  120SOPE   H3S12691   6.410   5.951   6.436
  120SOPE   C2412692   6.458   6.133   6.335
  120SOPE   H4R12693   6.510   6.207   6.400
  120SOPE   H4S12694   6.542   6.075   6.290
  120SOPE   C2512695   6.381   6.210   6.223
  120SOPE   H5R12696   6.395   6.160   6.125
  120SOPE   H5S12697   6.271   6.206   6.238
  120SOPE   C2612698   6.406   6.354   6.209
  120SOPE   H6R12699   6.512   6.386   6.201
  120SOPE   H6S12700   6.353   6.383   6.115
  120SOPE   C2712701   6.350   6.435   6.323
  120SOPE   H7R12702   6.247   6.407   6.355
  120SOPE   H7S12703   6.409   6.424   6.416
  120SOPE   C2812704   6.325   6.578   6.280
  120SOPE   H8R12705   6.262   6.581   6.188
  120SOPE   H8S12706   6.270   6.615   6.370
  120SOPE   C2912707   6.444   6.669   6.257
  120SOPE   H9112708   6.509   6.673   6.346
  120SOPE  C21012709   6.463   6.755   6.154
  120SOPE  H10112710   6.551   6.820   6.155
  120SOPE  C21112711   6.379   6.758   6.022
  120SOPE  H11R12712   6.325   6.854   6.007
  120SOPE  H11S12713   6.310   6.671   6.024
  120SOPE  C21212714   6.476   6.735   5.907
  120SOPE  H12R12715   6.421   6.728   5.811
  120SOPE  H12S12716   6.515   6.632   5.923
  120SOPE  C21312717   6.601   6.823   5.895
  120SOPE  H13R12718   6.659   6.831   5.990
  120SOPE  H13S12719   6.571   6.926   5.867
  120SOPE  C21412720   6.687   6.766   5.788
  120SOPE  H14R12721   6.696   6.655   5.784
  120SOPE  H14S12722   6.793   6.787   5.815
  120SOPE  C21512723   6.659   6.825   5.657
  120SOPE  H15R12724   6.644   6.933   5.679
  120SOPE  H15S12725   6.557   6.799   5.621
  120SOPE  C21612726   6.753   6.794   5.541
  120SOPE  H16R12727   6.754   6.684   5.531
  120SOPE  H16S12728   6.850   6.832   5.579
  120SOPE  C21712729   6.723   6.869   5.412
  120SOPE  H17R12730   6.741   6.977   5.433
  120SOPE  H17S12731   6.621   6.849   5.374
  120SOPE  C21812732   6.814   6.840   5.299
  120SOPE  H18R12733   6.817   6.731   5.277
  120SOPE  H18S12734   6.916   6.878   5.321
  120SOPE  H18T12735   6.784   6.895   5.208
  120SOPE   C3312736   5.549   6.103   6.179
  120SOPE   H3X12737   5.517   6.149   6.083
  120SOPE   H3Y12738   5.484   6.135   6.264
  120SOPE   C3412739   5.528   5.954   6.144
  120SOPE   H4X12740   5.549   5.888   6.231
  120SOPE   H4Y12741   5.602   5.934   6.063
  120SOPE   C3512742   5.393   5.917   6.083
  120SOPE   H5X12743   5.390   5.972   5.986
  120SOPE   H5Y12744   5.310   5.953   6.148
  120SOPE   C3612745   5.370   5.768   6.042
  120SOPE   H6X12746   5.265   5.760   6.006
  120SOPE   H6Y12747   5.390   5.701   6.128
  120SOPE   C3712748   5.444   5.727   5.922
  120SOPE   H7X12749   5.549   5.760   5.932
  120SOPE   H7Y12750   5.406   5.783   5.833
  120SOPE   C3812751   5.444   5.578   5.883
  120SOPE   H8X12752   5.346   5.544   5.843
  120SOPE   H8Y12753   5.443   5.536   5.986
  120SOPE   C3912754   5.558   5.529   5.797
  120SOPE   H9X12755   5.564   5.418   5.791
  120SOPE   H9Y12756   5.657   5.556   5.838
  120SOPE  C31012757   5.556   5.577   5.658
  120SOPE  H10X12758   5.510   5.678   5.656
  120SOPE  H10Y12759   5.481   5.519   5.599
  120SOPE  C31112760   5.698   5.574   5.597
  120SOPE  H11X12761   5.720   5.466   5.584
  120SOPE  H11Y12762   5.771   5.623   5.664
  120SOPE  C31212763   5.698   5.663   5.467
  120SOPE  H12X12764   5.805   5.689   5.451
  120SOPE  H12Y12765   5.644   5.759   5.476
  120SOPE  C31312766   5.639   5.587   5.345
  120SOPE  H13X12767   5.540   5.547   5.374
  120SOPE  H13Y12768   5.701   5.497   5.328
  120SOPE  C31412769   5.639   5.673   5.222
  120SOPE  H14X12770   5.741   5.714   5.207
  120SOPE  H14Y12771   5.560   5.750   5.233
  120SOPE  C31512772   5.609   5.583   5.097
  120SOPE  H15X12773   5.510   5.536   5.112
  120SOPE  H15Y12774   5.688   5.506   5.083
  120SOPE  C31612775   5.606   5.674   4.976
  120SOPE  H16X12776   5.702   5.729   4.971
  120SOPE  H16Y12777   5.520   5.742   4.995
  120SOPE  C31712778   5.598   5.595   4.846
  120SOPE  H17X12779   5.687   5.532   4.825
  120SOPE  H17Y12780   5.588   5.673   4.768
  120SOPE  C31812781   5.470   5.504   4.837
  120SOPE  H18X12782   5.489   5.399   4.869
  120SOPE  H18Y12783   5.429   5.505   4.734
  120SOPE  H18Z12784   5.392   5.558   4.894
  121SOPE     N12785   5.764   4.757   7.216
  121SOPE   HN112786   5.719   4.703   7.293
  121SOPE   HN212787   5.696   4.835   7.209
  121SOPE   HN312788   5.753   4.692   7.136
  121SOPE   C1212789   5.909   4.786   7.234
  121SOPE  H12A12790   5.956   4.713   7.304
  121SOPE  H12B12791   5.916   4.882   7.290
  121SOPE   C1112792   5.977   4.807   7.097
  121SOPE  H11A12793   6.078   4.829   7.137
  121SOPE  H11B12794   5.945   4.903   7.052
  121SOPE     P12795   5.870   4.654   6.917
  121SOPE   O1312796   5.854   4.768   6.822
  121SOPE   O1412797   5.749   4.615   6.990
  121SOPE   O1212798   5.977   4.683   7.024
  121SOPE   O1112799   5.929   4.530   6.838
  121SOPE    C112800   6.058   4.479   6.838
  121SOPE    HA12801   6.044   4.393   6.768
  121SOPE    HB12802   6.091   4.465   6.944
  121SOPE    C212803   6.163   4.563   6.768
  121SOPE    HS12804   6.168   4.657   6.827
  121SOPE   O2112805   6.123   4.583   6.631
  121SOPE   C2112806   6.167   4.694   6.571
  121SOPE   O2212807   6.225   4.787   6.616
  121SOPE   C2212808   6.114   4.685   6.429
  121SOPE   H2R12809   6.124   4.788   6.390
  121SOPE   H2S12810   6.010   4.647   6.426
  121SOPE    C312811   6.298   4.482   6.795
  121SOPE    HX12812   6.303   4.457   6.903
  121SOPE    HY12813   6.383   4.548   6.767
  121SOPE   O3112814   6.281   4.364   6.714
  121SOPE   C3112815   6.383   4.332   6.631
  121SOPE   O3212816   6.487   4.396   6.619
  121SOPE   C3212817   6.353   4.208   6.555
  121SOPE   H2X12818   6.411   4.125   6.601
  121SOPE   H2Y12819   6.407   4.226   6.459
  121SOPE   C2312820   6.197   4.582   6.359
  121SOPE   H3R12821   6.187   4.481   6.405
  121SOPE   H3S12822   6.303   4.614   6.346
  121SOPE   C2412823   6.153   4.573   6.206
  121SOPE   H4R12824   6.197   4.484   6.157
  121SOPE   H4S12825   6.045   4.549   6.217
  121SOPE   C2512826   6.165   4.702   6.122
  121SOPE   H5R12827   6.126   4.791   6.175
  121SOPE   H5S12828   6.269   4.725   6.091
  121SOPE   C2612829   6.062   4.697   6.000
  121SOPE   H6R12830   6.009   4.599   6.006
  121SOPE   H6S12831   5.990   4.781   6.012
  121SOPE   C2712832   6.118   4.704   5.864
  121SOPE   H7R12833   6.205   4.639   5.842
  121SOPE   H7S12834   6.034   4.684   5.793
  121SOPE   C2812835   6.162   4.855   5.839
  121SOPE   H8R12836   6.071   4.915   5.861
  121SOPE   H8S12837   6.241   4.890   5.910
  121SOPE   C2912838   6.213   4.857   5.694
  121SOPE   H9112839   6.307   4.802   5.684
  121SOPE  C21012840   6.142   4.902   5.587
  121SOPE  H10112841   6.192   4.891   5.490
  121SOPE  C21112842   6.010   4.972   5.595
  121SOPE  H11R12843   5.981   5.004   5.698
  121SOPE  H11S12844   5.926   4.903   5.570
  121SOPE  C21212845   5.990   5.099   5.509
  121SOPE  H12R12846   6.077   5.167   5.519
  121SOPE  H12S12847   5.903   5.154   5.552
  121SOPE  C21312848   5.974   5.065   5.356
  121SOPE  H13R12849   5.892   4.991   5.340
  121SOPE  H13S12850   6.064   5.014   5.317
  121SOPE  C21412851   5.963   5.180   5.263
  121SOPE  H14R12852   6.060   5.232   5.246
  121SOPE  H14S12853   5.888   5.254   5.298
  121SOPE  C21512854   5.905   5.133   5.127
  121SOPE  H15R12855   5.804   5.099   5.158
  121SOPE  H15S12856   5.957   5.039   5.098
  121SOPE  C21612857   5.906   5.233   5.014
  121SOPE  H16R12858   5.998   5.294   5.025
  121SOPE  H16S12859   5.814   5.294   5.021
  121SOPE  C21712860   5.917   5.172   4.873
  121SOPE  H17R12861   5.828   5.110   4.848
  121SOPE  H17S12862   5.996   5.095   4.863
  121SOPE  C21812863   5.947   5.278   4.768
  121SOPE  H18R12864   5.874   5.361   4.756
  121SOPE  H18S12865   5.950   5.226   4.669
  121SOPE  H18T12866   6.041   5.326   4.800
  121SOPE   C3312867   6.208   4.168   6.533
  121SOPE   H3X12868   6.152   4.262   6.516
  121SOPE   H3Y12869   6.169   4.119   6.625
  121SOPE   C3412870   6.203   4.070   6.412
  121SOPE   H4X12871   6.111   4.011   6.433
  121SOPE   H4Y12872   6.285   3.999   6.434
  121SOPE   C3512873   6.210   4.133   6.270
  121SOPE   H5X12874   6.317   4.162   6.255
  121SOPE   H5Y12875   6.150   4.224   6.291
  121SOPE   C3612876   6.153   4.056   6.152
  121SOPE   H6X12877   6.056   4.012   6.181
  121SOPE   H6Y12878   6.228   3.975   6.137
  121SOPE   C3712879   6.142   4.131   6.020
  121SOPE   H7X12880   6.105   4.234   6.033
  121SOPE   H7Y12881   6.076   4.068   5.956
  121SOPE   C3812882   6.284   4.158   5.963
  121SOPE   H8X12883   6.347   4.069   5.986
  121SOPE   H8Y12884   6.326   4.243   6.021
  121SOPE   C3912885   6.277   4.180   5.811
  121SOPE   H9X12886   6.226   4.090   5.771
  121SOPE   H9Y12887   6.376   4.208   5.771
  121SOPE  C31012888   6.197   4.309   5.767
  121SOPE  H10X12889   6.236   4.392   5.831
  121SOPE  H10Y12890   6.086   4.305   5.771
  121SOPE  C31112891   6.235   4.343   5.616
  121SOPE  H11X12892   6.198   4.256   5.558
  121SOPE  H11Y12893   6.345   4.348   5.606
  121SOPE  C31212894   6.162   4.467   5.550
  121SOPE  H12X12895   6.166   4.543   5.631
  121SOPE  H12Y12896   6.055   4.448   5.524
  121SOPE  C31312897   6.237   4.515   5.427
  121SOPE  H13X12898   6.345   4.488   5.425
  121SOPE  H13Y12899   6.229   4.625   5.419
  121SOPE  C31412900   6.168   4.456   5.296
  121SOPE  H14X12901   6.062   4.488   5.288
  121SOPE  H14Y12902   6.165   4.347   5.314
  121SOPE  C31512903   6.246   4.497   5.173
  121SOPE  H15X12904   6.355   4.480   5.190
  121SOPE  H15Y12905   6.230   4.607   5.164
  121SOPE  C31612906   6.189   4.439   5.049
  121SOPE  H16X12907   6.097   4.497   5.025
  121SOPE  H16Y12908   6.159   4.333   5.063
  121SOPE  C31712909   6.276   4.456   4.924
  121SOPE  H17X12910   6.368   4.395   4.919
  121SOPE  H17Y12911   6.307   4.563   4.926
  121SOPE  C31812912   6.196   4.413   4.803
  121SOPE  H18X12913   6.126   4.490   4.765
  121SOPE  H18Y12914   6.137   4.321   4.824
  121SOPE  H18Z12915   6.270   4.386   4.725
  122SOPE     N12916   5.900   5.626   7.275
  122SOPE   HN112917   5.883   5.587   7.370
  122SOPE   HN212918   5.925   5.727   7.284
  122SOPE   HN312919   5.806   5.639   7.232
  122SOPE   C1212920   5.995   5.552   7.188
  122SOPE  H12A12921   5.961   5.447   7.197
  122SOPE  H12B12922   6.097   5.563   7.229
  122SOPE   C1112923   5.997   5.614   7.045
  122SOPE  H11A12924   6.057   5.546   6.981
  122SOPE  H11B12925   6.053   5.709   7.057
  122SOPE     P12926   5.842   5.724   6.874
  122SOPE   O1312927   5.881   5.861   6.906
  122SOPE   O1412928   5.705   5.706   6.827
  122SOPE   O1212929   5.866   5.627   6.992
  122SOPE   O1112930   5.941   5.668   6.759
  122SOPE    C112931   5.940   5.532   6.721
  122SOPE    HA12932   5.865   5.467   6.771
  122SOPE    HB12933   6.039   5.493   6.752
  122SOPE    C212934   5.938   5.506   6.566
  122SOPE    HS12935   5.965   5.399   6.551
  122SOPE   O2112936   6.025   5.594   6.495
  122SOPE   C2112937   6.156   5.589   6.511
  122SOPE   O2212938   6.222   5.500   6.558
  122SOPE   C2212939   6.223   5.700   6.422
  122SOPE   H2R12940   6.285   5.755   6.496
  122SOPE   H2S12941   6.150   5.765   6.370
  122SOPE    C312942   5.800   5.517   6.511
  122SOPE    HX12943   5.755   5.616   6.534
  122SOPE    HY12944   5.742   5.433   6.555
  122SOPE   O3112945   5.801   5.490   6.374
  122SOPE   C3112946   5.760   5.590   6.292
  122SOPE   O3212947   5.694   5.683   6.329
  122SOPE   C3212948   5.812   5.549   6.158
  122SOPE   H2X12949   5.733   5.505   6.093
  122SOPE   H2Y12950   5.895   5.475   6.162
  122SOPE   C2312951   6.314   5.634   6.314
  122SOPE   H3R12952   6.241   5.579   6.251
  122SOPE   H3S12953   6.381   5.558   6.362
  122SOPE   C2412954   6.395   5.739   6.240
  122SOPE   H4R12955   6.330   5.820   6.202
  122SOPE   H4S12956   6.463   5.794   6.308
  122SOPE   C2512957   6.448   5.691   6.105
  122SOPE   H5R12958   6.469   5.582   6.113
  122SOPE   H5S12959   6.366   5.715   6.035
  122SOPE   C2612960   6.585   5.752   6.081
  122SOPE   H6R12961   6.651   5.745   6.170
  122SOPE   H6S12962   6.625   5.688   5.998
  122SOPE   C2712963   6.579   5.901   6.039
  122SOPE   H7R12964   6.501   5.913   5.960
  122SOPE   H7S12965   6.543   5.957   6.127
  122SOPE   C2812966   6.710   5.954   5.990
  122SOPE   H8R12967   6.791   5.937   6.064
  122SOPE   H8S12968   6.737   5.902   5.895
  122SOPE   C2912969   6.686   6.104   5.959
  122SOPE   H9112970   6.666   6.157   6.054
  122SOPE  C21012971   6.679   6.164   5.837
  122SOPE  H10112972   6.668   6.272   5.824
  122SOPE  C21112973   6.702   6.102   5.703
  122SOPE  H11R12974   6.607   6.077   5.652
  122SOPE  H11S12975   6.750   6.003   5.716
  122SOPE  C21212976   6.795   6.180   5.612
  122SOPE  H12R12977   6.895   6.181   5.659
  122SOPE  H12S12978   6.765   6.287   5.604
  122SOPE  C21312979   6.816   6.122   5.466
  122SOPE  H13R12980   6.804   6.013   5.482
  122SOPE  H13S12981   6.917   6.146   5.426
  122SOPE  C21412982   6.702   6.170   5.369
  122SOPE  H14R12983   6.712   6.279   5.349
  122SOPE  H14S12984   6.600   6.160   5.412
  122SOPE  C21512985   6.704   6.108   5.228
  122SOPE  H15R12986   6.680   6.000   5.232
  122SOPE  H15S12987   6.803   6.125   5.181
  122SOPE  C21612988   6.602   6.173   5.131
  122SOPE  H16R12989   6.653   6.260   5.083
  122SOPE  H16S12990   6.517   6.205   5.195
  122SOPE  C21712991   6.569   6.086   5.013
  122SOPE  H17R12992   6.496   6.137   4.946
  122SOPE  H17S12993   6.516   5.997   5.051
  122SOPE  C21812994   6.687   6.030   4.935
  122SOPE  H18R12995   6.747   5.963   5.000
  122SOPE  H18S12996   6.748   6.117   4.902
  122SOPE  H18T12997   6.654   5.988   4.837
  122SOPE   C3312998   5.858   5.672   6.087
  122SOPE   H3X12999   5.774   5.744   6.093
  122SOPE   H3Y13000   5.873   5.643   5.981
  122SOPE   C3413001   5.978   5.751   6.153
  122SOPE   H4X13002   6.064   5.682   6.170
  122SOPE   H4Y13003   5.936   5.783   6.250
  122SOPE   C3513004   6.038   5.875   6.075
  122SOPE   H5X13005   6.130   5.914   6.123
  122SOPE   H5Y13006   5.966   5.959   6.081
  122SOPE   C3613007   6.085   5.844   5.933
  122SOPE   H6X13008   6.008   5.782   5.881
  122SOPE   H6Y13009   6.174   5.780   5.947
  122SOPE   C3713010   6.123   5.957   5.838
  122SOPE   H7X13011   6.213   6.007   5.881
  122SOPE   H7Y13012   6.034   6.023   5.831
  122SOPE   C3813013   6.153   5.914   5.684
  122SOPE   H8X13014   6.053   5.897   5.638
  122SOPE   H8Y13015   6.203   5.815   5.676
  122SOPE   C3913016   6.220   6.027   5.606
  122SOPE   H9X13017   6.324   6.041   5.640
  122SOPE   H9Y13018   6.164   6.122   5.619
  122SOPE  C31013019   6.206   6.006   5.457
  122SOPE  H10X13020   6.105   5.962   5.443
  122SOPE  H10Y13021   6.283   5.931   5.428
  122SOPE  C31113022   6.206   6.135   5.374
  122SOPE  H11X13023   6.301   6.188   5.399
  122SOPE  H11Y13024   6.127   6.207   5.403
  122SOPE  C31213025   6.196   6.122   5.227
  122SOPE  H12X13026   6.108   6.057   5.206
  122SOPE  H12Y13027   6.281   6.066   5.182
  122SOPE  C31313028   6.183   6.256   5.148
  122SOPE  H13X13029   6.261   6.333   5.168
  122SOPE  H13Y13030   6.093   6.302   5.196
  122SOPE  C31413031   6.168   6.237   4.994
  122SOPE  H14X13032   6.073   6.185   4.969
  122SOPE  H14Y13033   6.262   6.183   4.967
  122SOPE  C31513034   6.154   6.366   4.913
  122SOPE  H15X13035   6.252   6.417   4.925
  122SOPE  H15Y13036   6.083   6.432   4.966
  122SOPE  C31613037   6.118   6.345   4.767
  122SOPE  H16X13038   6.015   6.304   4.769
  122SOPE  H16Y13039   6.183   6.268   4.719
  122SOPE  C31713040   6.111   6.468   4.676
  122SOPE  H17X13041   6.022   6.526   4.706
  122SOPE  H17Y13042   6.078   6.424   4.579
  122SOPE  C31813043   6.237   6.547   4.658
  122SOPE  H18X13044   6.317   6.473   4.635
  122SOPE  H18Y13045   6.270   6.593   4.754
  122SOPE  H18Z13046   6.229   6.626   4.580
  123SOPE     N13047   2.338   1.735   1.583
  123SOPE   HN113048   2.284   1.647   1.577
  123SOPE   HN213049   2.333   1.791   1.496
  123SOPE   HN313050   2.438   1.715   1.605
  123SOPE   C1213051   2.297   1.821   1.698
  123SOPE  H12A13052   2.290   1.760   1.791
  123SOPE  H12B13053   2.190   1.847   1.678
  123SOPE   C1113054   2.393   1.932   1.717
  123SOPE  H11A13055   2.346   2.004   1.788
  123SOPE  H11B13056   2.403   1.988   1.621
  123SOPE     P13057   2.595   1.985   1.879
  123SOPE   O1313058   2.578   2.132   1.866
  123SOPE   O1413059   2.733   1.935   1.887
  123SOPE   O1213060   2.521   1.896   1.764
  123SOPE   O1113061   2.497   1.939   1.996
  123SOPE    C113062   2.556   1.898   2.117
  123SOPE    HA13063   2.639   1.824   2.116
  123SOPE    HB13064   2.478   1.836   2.168
  123SOPE    C213065   2.592   2.017   2.214
  123SOPE    HS13066   2.649   2.087   2.150
  123SOPE   O2113067   2.675   1.957   2.317
  123SOPE   C2113068   2.748   2.051   2.385
  123SOPE   O2213069   2.750   2.169   2.351
  123SOPE   C2213070   2.825   1.991   2.502
  123SOPE   H2R13071   2.928   1.975   2.464
  123SOPE   H2S13072   2.770   1.902   2.540
  123SOPE    C313073   2.469   2.092   2.273
  123SOPE    HX13074   2.427   2.143   2.183
  123SOPE    HY13075   2.493   2.175   2.343
  123SOPE   O3113076   2.365   2.000   2.327
  123SOPE   C3113077   2.394   1.959   2.451
  123SOPE   O3213078   2.476   2.014   2.525
  123SOPE   C3213079   2.317   1.838   2.484
  123SOPE   H2X13080   2.366   1.785   2.568
  123SOPE   H2Y13081   2.314   1.759   2.406
  123SOPE   C2313082   2.830   2.100   2.611
  123SOPE   H3R13083   2.735   2.131   2.660
  123SOPE   H3S13084   2.864   2.191   2.558
  123SOPE   C2413085   2.945   2.077   2.712
  123SOPE   H4R13086   2.924   1.981   2.766
  123SOPE   H4S13087   3.041   2.077   2.657
  123SOPE   C2513088   2.958   2.181   2.826
  123SOPE   H5R13089   2.961   2.275   2.768
  123SOPE   H5S13090   2.879   2.178   2.904
  123SOPE   C2613091   3.092   2.177   2.897
  123SOPE   H6R13092   3.108   2.085   2.958
  123SOPE   H6S13093   3.173   2.174   2.821
  123SOPE   C2713094   3.123   2.296   2.988
  123SOPE   H7R13095   3.227   2.280   3.023
  123SOPE   H7S13096   3.108   2.389   2.929
  123SOPE   C2813097   3.026   2.294   3.116
  123SOPE   H8R13098   2.926   2.306   3.070
  123SOPE   H8S13099   3.028   2.191   3.159
  123SOPE   C2913100   3.055   2.386   3.233
  123SOPE   H9113101   3.003   2.482   3.223
  123SOPE  C21013102   3.116   2.344   3.348
  123SOPE  H10113103   3.106   2.404   3.440
  123SOPE  C21113104   3.185   2.208   3.374
  123SOPE  H11R13105   3.237   2.169   3.285
  123SOPE  H11S13106   3.107   2.139   3.412
  123SOPE  C21213107   3.299   2.219   3.476
  123SOPE  H12R13108   3.275   2.254   3.579
  123SOPE  H12S13109   3.375   2.294   3.448
  123SOPE  C21313110   3.368   2.082   3.493
  123SOPE  H13R13111   3.386   2.022   3.401
  123SOPE  H13S13112   3.295   2.022   3.552
  123SOPE  C21413113   3.507   2.082   3.558
  123SOPE  H14R13114   3.565   2.155   3.497
  123SOPE  H14S13115   3.551   1.982   3.539
  123SOPE  C21513116   3.503   2.124   3.703
  123SOPE  H15R13117   3.438   2.061   3.766
  123SOPE  H15S13118   3.450   2.222   3.704
  123SOPE  C21613119   3.637   2.140   3.786
  123SOPE  H16R13120   3.674   2.230   3.732
  123SOPE  H16S13121   3.705   2.054   3.766
  123SOPE  C21713122   3.610   2.183   3.931
  123SOPE  H17R13123   3.536   2.115   3.979
  123SOPE  H17S13124   3.580   2.289   3.935
  123SOPE  C21813125   3.735   2.185   4.017
  123SOPE  H18R13126   3.782   2.085   4.024
  123SOPE  H18S13127   3.708   2.226   4.117
  123SOPE  H18T13128   3.823   2.246   3.987
  123SOPE   C3313129   2.174   1.882   2.522
  123SOPE   H3X13130   2.115   1.792   2.550
  123SOPE   H3Y13131   2.120   1.914   2.431
  123SOPE   C3413132   2.164   1.993   2.630
  123SOPE   H4X13133   2.058   2.022   2.650
  123SOPE   H4Y13134   2.207   2.089   2.594
  123SOPE   C3513135   2.231   1.963   2.765
  123SOPE   H5X13136   2.217   2.048   2.835
  123SOPE   H5Y13137   2.341   1.945   2.760
  123SOPE   C3613138   2.171   1.846   2.836
  123SOPE   H6X13139   2.197   1.754   2.780
  123SOPE   H6Y13140   2.062   1.865   2.842
  123SOPE   C3713141   2.215   1.821   2.986
  123SOPE   H7X13142   2.323   1.849   2.993
  123SOPE   H7Y13143   2.199   1.721   3.031
  123SOPE   C3813144   2.139   1.919   3.082
  123SOPE   H8X13145   2.028   1.913   3.076
  123SOPE   H8Y13146   2.161   2.022   3.044
  123SOPE   C3913147   2.199   1.911   3.226
  123SOPE   H9X13148   2.306   1.938   3.212
  123SOPE   H9Y13149   2.186   1.809   3.267
  123SOPE  C31013150   2.135   2.013   3.316
  123SOPE  H10X13151   2.025   2.000   3.308
  123SOPE  H10Y13152   2.148   2.116   3.278
  123SOPE  C31113153   2.171   2.002   3.462
  123SOPE  H11X13154   2.280   1.994   3.445
  123SOPE  H11Y13155   2.129   1.907   3.501
  123SOPE  C31213156   2.114   2.123   3.544
  123SOPE  H12X13157   2.013   2.149   3.506
  123SOPE  H12Y13158   2.187   2.199   3.511
  123SOPE  C31313159   2.122   2.102   3.694
  123SOPE  H13X13160   2.219   2.051   3.708
  123SOPE  H13Y13161   2.042   2.036   3.734
  123SOPE  C31413162   2.117   2.232   3.778
  123SOPE  H14X13163   2.013   2.267   3.793
  123SOPE  H14Y13164   2.177   2.312   3.731
  123SOPE  C31513165   2.165   2.220   3.928
  123SOPE  H15X13166   2.098   2.151   3.984
  123SOPE  H15Y13167   2.150   2.321   3.973
  123SOPE  C31613168   2.314   2.178   3.959
  123SOPE  H16X13169   2.371   2.244   3.890
  123SOPE  H16Y13170   2.347   2.078   3.924
  123SOPE  C31713171   2.364   2.212   4.105
  123SOPE  H17X13172   2.308   2.148   4.176
  123SOPE  H17Y13173   2.331   2.317   4.118
  123SOPE  C31813174   2.517   2.196   4.122
  123SOPE  H18X13175   2.550   2.120   4.048
  123SOPE  H18Y13176   2.547   2.152   4.220
  123SOPE  H18Z13177   2.565   2.292   4.092
  124SOPE     N13178   5.825   5.020   2.398
  124SOPE   HN113179   5.843   4.919   2.383
  124SOPE   HN213180   5.765   5.047   2.317
  124SOPE   HN313181   5.911   5.077   2.392
  124SOPE   C1213182   5.768   5.061   2.524
  124SOPE  H12A13183   5.854   5.103   2.580
  124SOPE  H12B13184   5.728   4.969   2.573
  124SOPE   C1113185   5.652   5.151   2.499
  124SOPE  H11A13186   5.688   5.250   2.463
  124SOPE  H11B13187   5.605   5.144   2.599
  124SOPE     P13188   5.412   5.122   2.400
  124SOPE   O1313189   5.370   5.130   2.260
  124SOPE   O1413190   5.392   5.244   2.476
  124SOPE   O1213191   5.568   5.089   2.408
  124SOPE   O1113192   5.342   5.003   2.475
  124SOPE    C113193   5.412   4.881   2.505
  124SOPE    HA13194   5.514   4.875   2.460
  124SOPE    HB13195   5.354   4.796   2.463
  124SOPE    C213196   5.424   4.856   2.657
  124SOPE    HS13197   5.325   4.820   2.693
  124SOPE   O2113198   5.471   4.972   2.723
  124SOPE   C2113199   5.371   5.046   2.762
  124SOPE   O2213200   5.254   5.026   2.739
  124SOPE   C2213201   5.424   5.167   2.841
  124SOPE   H2R13202   5.335   5.221   2.879
  124SOPE   H2S13203   5.478   5.223   2.762
  124SOPE    C313204   5.526   4.742   2.673
  124SOPE    HX13205   5.626   4.785   2.651
  124SOPE    HY13206   5.512   4.668   2.591
  124SOPE   O3113207   5.524   4.682   2.807
  124SOPE   C3113208   5.422   4.595   2.826
  124SOPE   O3213209   5.344   4.559   2.737
  124SOPE   C3213210   5.430   4.549   2.972
  124SOPE   H2X13211   5.535   4.514   2.988
  124SOPE   H2Y13212   5.373   4.454   2.981
  124SOPE   C2313213   5.509   5.139   2.970
  124SOPE   H3R13214   5.619   5.137   2.959
  124SOPE   H3S13215   5.486   5.033   2.992
  124SOPE   C2413216   5.466   5.228   3.093
  124SOPE   H4R13217   5.426   5.324   3.055
  124SOPE   H4S13218   5.373   5.194   3.142
  124SOPE   C2513219   5.570   5.252   3.212
  124SOPE   H5R13220   5.608   5.149   3.231
  124SOPE   H5S13221   5.655   5.312   3.172
  124SOPE   C2613222   5.510   5.327   3.335
  124SOPE   H6R13223   5.587   5.338   3.415
  124SOPE   H6S13224   5.496   5.427   3.287
  124SOPE   C2713225   5.379   5.273   3.397
  124SOPE   H7R13226   5.307   5.231   3.324
  124SOPE   H7S13227   5.406   5.192   3.468
  124SOPE   C2813228   5.308   5.379   3.479
  124SOPE   H8R13229   5.386   5.423   3.545
  124SOPE   H8S13230   5.278   5.455   3.404
  124SOPE   C2913231   5.189   5.318   3.554
  124SOPE   H9113232   5.135   5.236   3.506
  124SOPE  C21013233   5.149   5.352   3.675
  124SOPE  H10113234   5.068   5.296   3.725
  124SOPE  C21113235   5.204   5.469   3.760
  124SOPE  H11R13236   5.149   5.565   3.745
  124SOPE  H11S13237   5.312   5.484   3.742
  124SOPE  C21213238   5.194   5.434   3.909
  124SOPE  H12R13239   5.092   5.401   3.933
  124SOPE  H12S13240   5.221   5.526   3.966
  124SOPE  C21313241   5.306   5.335   3.956
  124SOPE  H13R13242   5.407   5.381   3.963
  124SOPE  H13S13243   5.319   5.256   3.879
  124SOPE  C21413244   5.275   5.272   4.089
  124SOPE  H14R13245   5.188   5.203   4.092
  124SOPE  H14S13246   5.243   5.350   4.162
  124SOPE  C21513247   5.393   5.195   4.158
  124SOPE  H15R13248   5.477   5.267   4.168
  124SOPE  H15S13249   5.435   5.104   4.110
  124SOPE  C21613250   5.367   5.145   4.300
  124SOPE  H16R13251   5.455   5.094   4.342
  124SOPE  H16S13252   5.284   5.071   4.296
  124SOPE  C21713253   5.318   5.248   4.401
  124SOPE  H17R13254   5.294   5.190   4.493
  124SOPE  H17S13255   5.224   5.301   4.374
  124SOPE  C21813256   5.435   5.347   4.427
  124SOPE  H18R13257   5.415   5.430   4.499
  124SOPE  H18S13258   5.456   5.388   4.326
  124SOPE  H18T13259   5.522   5.296   4.472
  124SOPE   C3313260   5.389   4.656   3.070
  124SOPE   H3X13261   5.414   4.760   3.040
  124SOPE   H3Y13262   5.448   4.638   3.163
  124SOPE   C3413263   5.241   4.665   3.114
  124SOPE   H4X13264   5.168   4.672   3.031
  124SOPE   H4Y13265   5.231   4.757   3.175
  124SOPE   C3513266   5.203   4.541   3.202
  124SOPE   H5X13267   5.218   4.445   3.149
  124SOPE   H5Y13268   5.094   4.556   3.217
  124SOPE   C3613269   5.269   4.531   3.338
  124SOPE   H6X13270   5.308   4.632   3.365
  124SOPE   H6Y13271   5.365   4.476   3.337
  124SOPE   C3713272   5.178   4.471   3.454
  124SOPE   H7X13273   5.159   4.366   3.423
  124SOPE   H7Y13274   5.081   4.524   3.467
  124SOPE   C3813275   5.246   4.487   3.587
  124SOPE   H8X13276   5.171   4.472   3.667
  124SOPE   H8Y13277   5.281   4.592   3.584
  124SOPE   C3913278   5.363   4.393   3.609
  124SOPE   H9X13279   5.436   4.418   3.529
  124SOPE   H9Y13280   5.324   4.289   3.598
  124SOPE  C31013281   5.442   4.401   3.738
  124SOPE  H10X13282   5.374   4.397   3.826
  124SOPE  H10Y13283   5.491   4.500   3.739
  124SOPE  C31113284   5.550   4.292   3.739
  124SOPE  H11X13285   5.616   4.321   3.654
  124SOPE  H11Y13286   5.498   4.196   3.719
  124SOPE  C31213287   5.614   4.296   3.878
  124SOPE  H12X13288   5.618   4.403   3.905
  124SOPE  H12Y13289   5.718   4.263   3.857
  124SOPE  C31313290   5.533   4.207   3.978
  124SOPE  H13X13291   5.531   4.101   3.944
  124SOPE  H13Y13292   5.430   4.249   3.976
  124SOPE  C31413293   5.598   4.216   4.115
  124SOPE  H14X13294   5.607   4.325   4.135
  124SOPE  H14Y13295   5.703   4.181   4.114
  124SOPE  C31513296   5.510   4.141   4.211
  124SOPE  H15X13297   5.495   4.040   4.166
  124SOPE  H15Y13298   5.409   4.183   4.231
  124SOPE  C31613299   5.581   4.106   4.347
  124SOPE  H16X13300   5.604   4.199   4.403
  124SOPE  H16Y13301   5.672   4.046   4.325
  124SOPE  C31713302   5.483   4.033   4.448
  124SOPE  H17X13303   5.464   3.941   4.388
  124SOPE  H17Y13304   5.384   4.084   4.448
  124SOPE  C31813305   5.531   4.007   4.595
  124SOPE  H18X13306   5.639   3.989   4.582
  124SOPE  H18Y13307   5.482   3.918   4.640
  124SOPE  H18Z13308   5.527   4.093   4.665
  125SOPE     N13309   0.602   5.332   2.377
  125SOPE   HN113310   0.636   5.235   2.390
  125SOPE   HN213311   0.501   5.334   2.355
  125SOPE   HN313312   0.650   5.368   2.292
  125SOPE   C1213313   0.617   5.419   2.493
  125SOPE  H12A13314   0.551   5.507   2.477
  125SOPE  H12B13315   0.722   5.455   2.502
  125SOPE   C1113316   0.564   5.356   2.622
  125SOPE  H11A13317   0.571   5.430   2.704
  125SOPE  H11B13318   0.626   5.270   2.653
  125SOPE     P13319   0.305   5.400   2.636
  125SOPE   O1313320   0.194   5.366   2.544
  125SOPE   O1413321   0.338   5.546   2.648
  125SOPE   O1213322   0.431   5.314   2.592
  125SOPE   O1113323   0.270   5.356   2.785
  125SOPE    C113324   0.352   5.264   2.860
  125SOPE    HA13325   0.459   5.292   2.856
  125SOPE    HB13326   0.331   5.168   2.808
  125SOPE    C213327   0.301   5.262   3.002
  125SOPE    HS13328   0.372   5.198   3.059
  125SOPE   O2113329   0.164   5.220   3.009
  125SOPE   C2113330   0.142   5.092   2.972
  125SOPE   O2213331   0.227   5.008   2.958
  125SOPE   C2213332  -0.008   5.063   2.972
  125SOPE   H2R13333  -0.018   4.956   2.945
  125SOPE   H2S13334  -0.073   5.122   2.904
  125SOPE    C313335   0.315   5.401   3.060
  125SOPE    HX13336   0.239   5.464   3.009
  125SOPE    HY13337   0.417   5.430   3.025
  125SOPE   O3113338   0.287   5.413   3.204
  125SOPE   C3113339   0.404   5.434   3.272
  125SOPE   O3213340   0.513   5.467   3.221
  125SOPE   C3213341   0.372   5.399   3.414
  125SOPE   H2X13342   0.364   5.289   3.424
  125SOPE   H2Y13343   0.277   5.440   3.455
  125SOPE   C2313344  -0.087   5.077   3.114
  125SOPE   H3R13345  -0.185   5.027   3.108
  125SOPE   H3S13346  -0.111   5.185   3.125
  125SOPE   C2413347  -0.006   5.018   3.226
  125SOPE   H4R13348  -0.004   4.907   3.222
  125SOPE   H4S13349   0.100   5.049   3.236
  125SOPE   C2513350  -0.065   5.055   3.367
  125SOPE   H5R13351  -0.063   5.166   3.372
  125SOPE   H5S13352  -0.171   5.022   3.381
  125SOPE   C2613353   0.011   5.003   3.484
  125SOPE   H6R13354  -0.026   5.045   3.580
  125SOPE   H6S13355   0.014   4.892   3.488
  125SOPE   C2713356   0.164   5.024   3.484
  125SOPE   H7R13357   0.211   4.952   3.414
  125SOPE   H7S13358   0.200   5.120   3.441
  125SOPE   C2813359   0.241   5.014   3.622
  125SOPE   H8R13360   0.242   4.909   3.660
  125SOPE   H8S13361   0.350   5.036   3.617
  125SOPE   C2913362   0.186   5.108   3.726
  125SOPE   H9113363   0.140   5.200   3.688
  125SOPE  C21013364   0.157   5.074   3.855
  125SOPE  H10113365   0.089   5.140   3.911
  125SOPE  C21113366   0.179   4.938   3.918
  125SOPE  H11R13367   0.220   4.862   3.847
  125SOPE  H11S13368   0.078   4.898   3.944
  125SOPE  C21213369   0.253   4.941   4.052
  125SOPE  H12R13370   0.339   5.011   4.047
  125SOPE  H12S13371   0.304   4.845   4.080
  125SOPE  C21313372   0.173   4.987   4.175
  125SOPE  H13R13373   0.093   4.911   4.189
  125SOPE  H13S13374   0.132   5.086   4.145
  125SOPE  C21413375   0.264   4.981   4.302
  125SOPE  H14R13376   0.341   5.060   4.288
  125SOPE  H14S13377   0.312   4.881   4.310
  125SOPE  C21513378   0.198   5.036   4.419
  125SOPE  H15R13379   0.101   4.987   4.443
  125SOPE  H15S13380   0.178   5.141   4.391
  125SOPE  C21613381   0.281   5.033   4.549
  125SOPE  H16R13382   0.375   5.078   4.509
  125SOPE  H16S13383   0.304   4.926   4.569
  125SOPE  C21713384   0.221   5.116   4.673
  125SOPE  H17R13385   0.177   5.214   4.645
  125SOPE  H17S13386   0.305   5.154   4.735
  125SOPE  C21813387   0.106   5.044   4.754
  125SOPE  H18R13388   0.018   5.052   4.687
  125SOPE  H18S13389   0.076   5.095   4.848
  125SOPE  H18T13390   0.122   4.935   4.762
  125SOPE   C3313391   0.483   5.453   3.506
  125SOPE   H3X13392   0.496   5.563   3.501
  125SOPE   H3Y13393   0.580   5.412   3.469
  125SOPE   C3413394   0.470   5.390   3.653
  125SOPE   H4X13395   0.565   5.386   3.711
  125SOPE   H4Y13396   0.448   5.282   3.641
  125SOPE   C3513397   0.363   5.468   3.730
  125SOPE   H5X13398   0.258   5.449   3.699
  125SOPE   H5Y13399   0.403   5.571   3.736
  125SOPE   C3613400   0.375   5.431   3.881
  125SOPE   H6X13401   0.466   5.481   3.921
  125SOPE   H6Y13402   0.383   5.320   3.888
  125SOPE   C3713403   0.257   5.475   3.973
  125SOPE   H7X13404   0.165   5.427   3.933
  125SOPE   H7Y13405   0.236   5.583   3.964
  125SOPE   C3813406   0.280   5.440   4.121
  125SOPE   H8X13407   0.387   5.455   4.146
  125SOPE   H8Y13408   0.258   5.331   4.129
  125SOPE   C3913409   0.190   5.531   4.204
  125SOPE   H9X13410   0.086   5.516   4.168
  125SOPE   H9Y13411   0.226   5.635   4.195
  125SOPE  C31013412   0.207   5.510   4.355
  125SOPE  H10X13413   0.308   5.546   4.383
  125SOPE  H10Y13414   0.191   5.402   4.377
  125SOPE  C31113415   0.101   5.581   4.436
  125SOPE  H11X13416   0.116   5.571   4.546
  125SOPE  H11Y13417   0.003   5.538   4.407
  125SOPE  C31213418   0.094   5.733   4.417
  125SOPE  H12X13419  -0.002   5.776   4.456
  125SOPE  H12Y13420   0.107   5.755   4.309
  125SOPE  C31313421   0.212   5.801   4.495
  125SOPE  H13X13422   0.307   5.748   4.472
  125SOPE  H13Y13423   0.187   5.787   4.602
  125SOPE  C31413424   0.217   5.953   4.460
  125SOPE  H14X13425   0.195   5.956   4.351
  125SOPE  H14Y13426   0.322   5.982   4.480
  125SOPE  C31513427   0.122   6.030   4.547
  125SOPE  H15X13428   0.157   6.027   4.653
  125SOPE  H15Y13429   0.021   5.982   4.542
  125SOPE  C31613430   0.110   6.182   4.511
  125SOPE  H16X13431   0.071   6.187   4.407
  125SOPE  H16Y13432   0.213   6.222   4.504
  125SOPE  C31713433   0.030   6.272   4.609
  125SOPE  H17X13434   0.076   6.261   4.709
  125SOPE  H17Y13435  -0.074   6.236   4.614
  125SOPE  C31813436   0.027   6.429   4.579
  125SOPE  H18X13437  -0.020   6.484   4.663
  125SOPE  H18Y13438  -0.032   6.448   4.486
  125SOPE  H18Z13439   0.128   6.470   4.557
  126SOPE     N13440   1.488   2.982   2.076
  126SOPE   HN113441   1.397   3.002   2.123
  126SOPE   HN213442   1.572   3.014   2.128
  126SOPE   HN313443   1.490   3.033   1.986
  126SOPE   C1213444   1.503   2.832   2.050
  126SOPE  H12A13445   1.403   2.808   2.008
  126SOPE  H12B13446   1.517   2.800   2.156
  126SOPE   C1113447   1.605   2.806   1.950
  126SOPE  H11A13448   1.702   2.821   2.002
  126SOPE  H11B13449   1.583   2.874   1.864
  126SOPE     P13450   1.735   2.587   1.874
  126SOPE   O1313451   1.823   2.672   1.791
  126SOPE   O1413452   1.708   2.451   1.821
  126SOPE   O1213453   1.600   2.666   1.903
  126SOPE   O1113454   1.806   2.575   2.015
  126SOPE    C113455   1.747   2.486   2.112
  126SOPE    HA13456   1.764   2.383   2.073
  126SOPE    HB13457   1.638   2.504   2.121
  126SOPE    C213458   1.827   2.496   2.247
  126SOPE    HS13459   1.846   2.602   2.272
  126SOPE   O2113460   1.952   2.428   2.228
  126SOPE   C2113461   2.070   2.490   2.245
  126SOPE   O2213462   2.091   2.606   2.257
  126SOPE   C2213463   2.178   2.385   2.251
  126SOPE   H2R13464   2.197   2.353   2.146
  126SOPE   H2S13465   2.134   2.295   2.300
  126SOPE    C313466   1.759   2.422   2.371
  126SOPE    HX13467   1.760   2.318   2.333
  126SOPE    HY13468   1.651   2.447   2.382
  126SOPE   O3113469   1.839   2.435   2.492
  126SOPE   C3113470   1.792   2.532   2.580
  126SOPE   O3213471   1.686   2.596   2.577
  126SOPE   C3213472   1.881   2.529   2.704
  126SOPE   H2X13473   1.987   2.509   2.675
  126SOPE   H2Y13474   1.839   2.459   2.780
  126SOPE   C2313475   2.311   2.403   2.328
  126SOPE   H3R13476   2.349   2.501   2.292
  126SOPE   H3S13477   2.381   2.323   2.296
  126SOPE   C2413478   2.299   2.400   2.481
  126SOPE   H4R13479   2.217   2.467   2.516
  126SOPE   H4S13480   2.269   2.294   2.499
  126SOPE   C2513481   2.433   2.422   2.557
  126SOPE   H5R13482   2.501   2.375   2.483
  126SOPE   H5S13483   2.464   2.529   2.565
  126SOPE   C2613484   2.429   2.355   2.696
  126SOPE   H6R13485   2.401   2.248   2.684
  126SOPE   H6S13486   2.528   2.375   2.741
  126SOPE   C2713487   2.310   2.402   2.780
  126SOPE   H7R13488   2.315   2.512   2.768
  126SOPE   H7S13489   2.215   2.368   2.733
  126SOPE   C2813490   2.319   2.364   2.929
  126SOPE   H8R13491   2.343   2.256   2.922
  126SOPE   H8S13492   2.400   2.419   2.982
  126SOPE   C2913493   2.186   2.363   2.997
  126SOPE   H9113494   2.099   2.321   2.944
  126SOPE  C21013495   2.160   2.419   3.115
  126SOPE  H10113496   2.063   2.400   3.162
  126SOPE  C21113497   2.257   2.498   3.200
  126SOPE  H11R13498   2.253   2.606   3.174
  126SOPE  H11S13499   2.360   2.467   3.173
  126SOPE  C21213500   2.245   2.464   3.353
  126SOPE  H12R13501   2.249   2.354   3.362
  126SOPE  H12S13502   2.145   2.493   3.392
  126SOPE  C21313503   2.343   2.546   3.444
  126SOPE  H13R13504   2.316   2.654   3.442
  126SOPE  H13S13505   2.448   2.545   3.408
  126SOPE  C21413506   2.333   2.487   3.589
  126SOPE  H14R13507   2.375   2.384   3.596
  126SOPE  H14S13508   2.226   2.487   3.617
  126SOPE  C21513509   2.400   2.572   3.695
  126SOPE  H15R13510   2.360   2.526   3.788
  126SOPE  H15S13511   2.363   2.676   3.685
  126SOPE  C21613512   2.554   2.560   3.696
  126SOPE  H16R13513   2.591   2.567   3.591
  126SOPE  H16S13514   2.585   2.459   3.730
  126SOPE  C21713515   2.610   2.667   3.787
  126SOPE  H17R13516   2.601   2.643   3.895
  126SOPE  H17S13517   2.560   2.765   3.771
  126SOPE  C21813518   2.763   2.694   3.767
  126SOPE  H18R13519   2.786   2.788   3.822
  126SOPE  H18S13520   2.772   2.720   3.660
  126SOPE  H18T13521   2.825   2.607   3.798
  126SOPE   C3313522   1.894   2.672   2.769
  126SOPE   H3X13523   1.931   2.749   2.698
  126SOPE   H3Y13524   1.974   2.665   2.847
  126SOPE   C3413525   1.767   2.734   2.838
  126SOPE   H4X13526   1.718   2.644   2.882
  126SOPE   H4Y13527   1.700   2.793   2.772
  126SOPE   C3513528   1.784   2.814   2.966
  126SOPE   H5X13529   1.678   2.829   2.996
  126SOPE   H5Y13530   1.829   2.912   2.938
  126SOPE   C3613531   1.855   2.743   3.080
  126SOPE   H6X13532   1.966   2.748   3.076
  126SOPE   H6Y13533   1.832   2.634   3.086
  126SOPE   C3713534   1.818   2.803   3.215
  126SOPE   H7X13535   1.709   2.820   3.230
  126SOPE   H7Y13536   1.866   2.903   3.225
  126SOPE   C3813537   1.864   2.713   3.338
  126SOPE   H8X13538   1.957   2.670   3.294
  126SOPE   H8Y13539   1.799   2.622   3.334
  126SOPE   C3913540   1.882   2.791   3.465
  126SOPE   H9X13541   1.790   2.844   3.498
  126SOPE   H9Y13542   1.953   2.873   3.443
  126SOPE  C31013543   1.946   2.718   3.581
  126SOPE  H10X13544   1.983   2.796   3.651
  126SOPE  H10Y13545   2.033   2.668   3.532
  126SOPE  C31113546   1.850   2.623   3.644
  126SOPE  H11X13547   1.812   2.551   3.569
  126SOPE  H11Y13548   1.758   2.678   3.671
  126SOPE  C31213549   1.909   2.559   3.772
  126SOPE  H12X13550   1.998   2.506   3.731
  126SOPE  H12Y13551   1.829   2.489   3.805
  126SOPE  C31313552   1.954   2.657   3.880
  126SOPE  H13X13553   1.854   2.701   3.902
  126SOPE  H13Y13554   2.031   2.730   3.847
  126SOPE  C31413555   2.011   2.583   4.000
  126SOPE  H14X13556   2.100   2.531   3.959
  126SOPE  H14Y13557   1.940   2.510   4.045
  126SOPE  C31513558   2.058   2.672   4.120
  126SOPE  H15X13559   1.965   2.705   4.170
  126SOPE  H15Y13560   2.115   2.754   4.070
  126SOPE  C31613561   2.140   2.593   4.228
  126SOPE  H16X13562   2.201   2.525   4.164
  126SOPE  H16Y13563   2.073   2.535   4.295
  126SOPE  C31713564   2.225   2.673   4.317
  126SOPE  H17X13565   2.167   2.751   4.371
  126SOPE  H17Y13566   2.297   2.724   4.249
  126SOPE  C31813567   2.305   2.589   4.422
  126SOPE  H18X13568   2.345   2.496   4.375
  126SOPE  H18Y13569   2.221   2.566   4.491
  126SOPE  H18Z13570   2.381   2.657   4.465
  127SOPE     N13571   2.765   3.308   2.064
  127SOPE   HN113572   2.835   3.232   2.050
  127SOPE   HN213573   2.814   3.382   2.119
  127SOPE   HN313574   2.685   3.270   2.119
  127SOPE   C1213575   2.713   3.358   1.932
  127SOPE  H12A13576   2.644   3.443   1.951
  127SOPE  H12B13577   2.663   3.279   1.872
  127SOPE   C1113578   2.821   3.424   1.841
  127SOPE  H11A13579   2.777   3.438   1.740
  127SOPE  H11B13580   2.905   3.352   1.828
  127SOPE     P13581   3.005   3.566   1.959
  127SOPE   O1313582   3.025   3.711   1.993
  127SOPE   O1413583   3.095   3.494   1.871
  127SOPE   O1213584   2.857   3.553   1.898
  127SOPE   O1113585   2.976   3.488   2.089
  127SOPE    C113586   3.088   3.419   2.148
  127SOPE    HA13587   3.183   3.473   2.128
  127SOPE    HB13588   3.106   3.320   2.100
  127SOPE    C213589   3.057   3.384   2.298
  127SOPE    HS13590   2.982   3.304   2.310
  127SOPE   O2113591   3.017   3.497   2.376
  127SOPE   C2113592   2.897   3.533   2.361
  127SOPE   O2213593   2.806   3.479   2.302
  127SOPE   C2213594   2.870   3.663   2.433
  127SOPE   H2R13595   2.771   3.707   2.409
  127SOPE   H2S13596   2.944   3.741   2.407
  127SOPE    C313597   3.194   3.344   2.367
  127SOPE    HX13598   3.264   3.423   2.332
  127SOPE    HY13599   3.231   3.243   2.336
  127SOPE   O3113600   3.187   3.357   2.513
  127SOPE   C3113601   3.136   3.250   2.578
  127SOPE   O3213602   3.092   3.149   2.530
  127SOPE   C3213603   3.149   3.273   2.732
  127SOPE   H2X13604   3.063   3.343   2.744
  127SOPE   H2Y13605   3.248   3.324   2.735
  127SOPE   C2313606   2.882   3.639   2.585
  127SOPE   H3R13607   2.897   3.739   2.631
  127SOPE   H3S13608   2.979   3.589   2.607
  127SOPE   C2413609   2.771   3.554   2.651
  127SOPE   H4R13610   2.671   3.594   2.624
  127SOPE   H4S13611   2.772   3.451   2.609
  127SOPE   C2513612   2.802   3.527   2.797
  127SOPE   H5R13613   2.746   3.438   2.833
  127SOPE   H5S13614   2.908   3.498   2.812
  127SOPE   C2613615   2.774   3.641   2.896
  127SOPE   H6R13616   2.818   3.734   2.854
  127SOPE   H6S13617   2.666   3.653   2.920
  127SOPE   C2713618   2.846   3.622   3.021
  127SOPE   H7R13619   2.792   3.551   3.087
  127SOPE   H7S13620   2.943   3.574   2.995
  127SOPE   C2813621   2.849   3.756   3.098
  127SOPE   H8R13622   2.891   3.841   3.040
  127SOPE   H8S13623   2.742   3.784   3.116
  127SOPE   C2913624   2.924   3.747   3.226
  127SOPE   H9113625   3.031   3.726   3.219
  127SOPE  C21013626   2.872   3.746   3.350
  127SOPE  H10113627   2.934   3.746   3.441
  127SOPE  C21113628   2.723   3.768   3.391
  127SOPE  H11R13629   2.661   3.688   3.346
  127SOPE  H11S13630   2.692   3.864   3.345
  127SOPE  C21213631   2.699   3.767   3.546
  127SOPE  H12R13632   2.695   3.664   3.587
  127SOPE  H12S13633   2.597   3.804   3.570
  127SOPE  C21313634   2.792   3.867   3.622
  127SOPE  H13R13635   2.822   3.944   3.548
  127SOPE  H13S13636   2.892   3.825   3.643
  127SOPE  C21413637   2.730   3.930   3.753
  127SOPE  H14R13638   2.667   4.017   3.724
  127SOPE  H14S13639   2.814   3.986   3.799
  127SOPE  C21513640   2.666   3.836   3.852
  127SOPE  H15R13641   2.738   3.753   3.868
  127SOPE  H15S13642   2.578   3.787   3.806
  127SOPE  C21613643   2.641   3.908   3.982
  127SOPE  H16R13644   2.577   3.998   3.967
  127SOPE  H16S13645   2.735   3.945   4.027
  127SOPE  C21713646   2.588   3.807   4.093
  127SOPE  H17R13647   2.672   3.741   4.123
  127SOPE  H17S13648   2.508   3.746   4.047
  127SOPE  C21813649   2.541   3.867   4.230
  127SOPE  H18R13650   2.611   3.939   4.277
  127SOPE  H18S13651   2.536   3.777   4.295
  127SOPE  H18T13652   2.438   3.909   4.224
  127SOPE   C3313653   3.128   3.151   2.822
  127SOPE   H3X13654   3.165   3.061   2.767
  127SOPE   H3Y13655   3.025   3.143   2.862
  127SOPE   C3413656   3.220   3.161   2.945
  127SOPE   H4X13657   3.206   3.267   2.974
  127SOPE   H4Y13658   3.325   3.176   2.912
  127SOPE   C3513659   3.176   3.062   3.052
  127SOPE   H5X13660   3.211   2.959   3.026
  127SOPE   H5Y13661   3.066   3.053   3.045
  127SOPE   C3613662   3.211   3.098   3.198
  127SOPE   H6X13663   3.172   3.014   3.259
  127SOPE   H6Y13664   3.148   3.176   3.246
  127SOPE   C3713665   3.359   3.123   3.212
  127SOPE   H7X13666   3.395   3.201   3.142
  127SOPE   H7Y13667   3.415   3.031   3.185
  127SOPE   C3813668   3.401   3.158   3.345
  127SOPE   H8X13669   3.354   3.084   3.414
  127SOPE   H8Y13670   3.366   3.256   3.383
  127SOPE   C3913671   3.556   3.150   3.364
  127SOPE   H9X13672   3.599   3.223   3.291
  127SOPE   H9Y13673   3.597   3.050   3.337
  127SOPE  C31013674   3.617   3.184   3.506
  127SOPE  H10X13675   3.588   3.285   3.542
  127SOPE  H10Y13676   3.728   3.181   3.508
  127SOPE  C31113677   3.566   3.092   3.611
  127SOPE  H11X13678   3.547   2.994   3.562
  127SOPE  H11Y13679   3.464   3.125   3.639
  127SOPE  C31213680   3.666   3.071   3.722
  127SOPE  H12X13681   3.760   3.021   3.688
  127SOPE  H12Y13682   3.612   3.005   3.793
  127SOPE  C31313683   3.692   3.209   3.786
  127SOPE  H13X13684   3.595   3.265   3.785
  127SOPE  H13Y13685   3.766   3.267   3.727
  127SOPE  C31413686   3.751   3.190   3.928
  127SOPE  H14X13687   3.842   3.126   3.919
  127SOPE  H14Y13688   3.678   3.133   3.990
  127SOPE  C31513689   3.801   3.322   3.991
  127SOPE  H15X13690   3.871   3.370   3.920
  127SOPE  H15Y13691   3.868   3.307   4.078
  127SOPE  C31613692   3.687   3.411   4.019
  127SOPE  H16X13693   3.613   3.357   4.082
  127SOPE  H16Y13694   3.632   3.431   3.925
  127SOPE  C31713695   3.716   3.544   4.093
  127SOPE  H17X13696   3.744   3.522   4.198
  127SOPE  H17Y13697   3.632   3.616   4.084
  127SOPE  C31813698   3.841   3.614   4.035
  127SOPE  H18X13699   3.818   3.663   3.938
  127SOPE  H18Y13700   3.926   3.542   4.030
  127SOPE  H18Z13701   3.867   3.706   4.091
  128SOPE     N13702   0.591   2.360   1.886
  128SOPE   HN113703   0.567   2.263   1.857
  128SOPE   HN213704   0.608   2.418   1.802
  128SOPE   HN313705   0.677   2.363   1.945
  128SOPE   C1213706   0.472   2.419   1.968
  128SOPE  H12A13707   0.400   2.460   1.895
  128SOPE  H12B13708   0.510   2.492   2.043
  128SOPE   C1113709   0.392   2.301   2.040
  128SOPE  H11A13710   0.309   2.345   2.099
  128SOPE  H11B13711   0.459   2.270   2.123
  128SOPE     P13712   0.439   2.057   1.951
  128SOPE   O1313713   0.582   2.095   1.929
  128SOPE   O1413714   0.381   1.966   1.847
  128SOPE   O1213715   0.353   2.193   1.965
  128SOPE   O1113716   0.428   1.984   2.091
  128SOPE    C113717   0.341   2.037   2.196
  128SOPE    HA13718   0.247   2.083   2.160
  128SOPE    HB13719   0.396   2.111   2.258
  128SOPE    C213720   0.296   1.925   2.284
  128SOPE    HS13721   0.257   1.841   2.223
  128SOPE   O2113722   0.203   1.985   2.372
  128SOPE   C2113723   0.110   1.905   2.421
  128SOPE   O2213724   0.106   1.784   2.414
  128SOPE   C2213725   0.003   1.992   2.479
  128SOPE   H2R13726  -0.094   1.959   2.436
  128SOPE   H2S13727   0.021   2.097   2.448
  128SOPE    C313728   0.415   1.874   2.365
  128SOPE    HX13729   0.445   1.964   2.422
  128SOPE    HY13730   0.498   1.845   2.298
  128SOPE   O3113731   0.381   1.772   2.458
  128SOPE   C3113732   0.412   1.643   2.418
  128SOPE   O3213733   0.481   1.617   2.320
  128SOPE   C3213734   0.369   1.534   2.518
  128SOPE   H2X13735   0.428   1.449   2.477
  128SOPE   H2Y13736   0.260   1.512   2.519
  128SOPE   C2313737   0.000   1.965   2.627
  128SOPE   H3R13738   0.091   2.012   2.671
  128SOPE   H3S13739  -0.008   1.857   2.653
  128SOPE   C2413740  -0.114   2.033   2.704
  128SOPE   H4R13741  -0.125   2.140   2.676
  128SOPE   H4S13742  -0.210   1.984   2.679
  128SOPE   C2513743  -0.095   2.027   2.858
  128SOPE   H5R13744  -0.095   1.919   2.884
  128SOPE   H5S13745   0.005   2.064   2.886
  128SOPE   C2613746  -0.200   2.111   2.923
  128SOPE   H6R13747  -0.187   2.217   2.893
  128SOPE   H6S13748  -0.301   2.086   2.884
  128SOPE   C2713749  -0.189   2.112   3.079
  128SOPE   H7R13750  -0.210   2.009   3.115
  128SOPE   H7S13751  -0.083   2.135   3.100
  128SOPE   C2813752  -0.269   2.221   3.153
  128SOPE   H8R13753  -0.225   2.221   3.255
  128SOPE   H8S13754  -0.259   2.313   3.092
  128SOPE   C2913755  -0.412   2.172   3.165
  128SOPE   H9113756  -0.461   2.186   3.067
  128SOPE  C21013757  -0.481   2.096   3.252
  128SOPE  H10113758  -0.583   2.070   3.222
  128SOPE  C21113759  -0.444   2.053   3.391
  128SOPE  H11R13760  -0.333   2.060   3.398
  128SOPE  H11S13761  -0.475   1.946   3.397
  128SOPE  C21213762  -0.512   2.132   3.501
  128SOPE  H12R13763  -0.618   2.160   3.482
  128SOPE  H12S13764  -0.464   2.231   3.513
  128SOPE  C21313765  -0.491   2.059   3.639
  128SOPE  H13R13766  -0.425   1.970   3.647
  128SOPE  H13S13767  -0.589   2.028   3.679
  128SOPE  C21413768  -0.435   2.160   3.744
  128SOPE  H14R13769  -0.518   2.225   3.776
  128SOPE  H14S13770  -0.342   2.214   3.716
  128SOPE  C21513771  -0.410   2.081   3.880
  128SOPE  H15R13772  -0.334   2.001   3.865
  128SOPE  H15S13773  -0.507   2.032   3.901
  128SOPE  C21613774  -0.349   2.163   3.998
  128SOPE  H16R13775  -0.429   2.218   4.052
  128SOPE  H16S13776  -0.287   2.239   3.947
  128SOPE  C21713777  -0.280   2.081   4.107
  128SOPE  H17R13778  -0.189   2.033   4.064
  128SOPE  H17S13779  -0.343   1.995   4.137
  128SOPE  C21813780  -0.237   2.156   4.226
  128SOPE  H18R13781  -0.315   2.230   4.256
  128SOPE  H18S13782  -0.154   2.224   4.194
  128SOPE  H18T13783  -0.201   2.098   4.313
  128SOPE   C3313784   0.405   1.571   2.665
  128SOPE   H3X13785   0.313   1.613   2.711
  128SOPE   H3Y13786   0.489   1.643   2.667
  128SOPE   C3413787   0.456   1.448   2.741
  128SOPE   H4X13788   0.566   1.434   2.738
  128SOPE   H4Y13789   0.400   1.359   2.703
  128SOPE   C3513790   0.421   1.460   2.894
  128SOPE   H5X13791   0.477   1.374   2.935
  128SOPE   H5Y13792   0.311   1.441   2.897
  128SOPE   C3613793   0.483   1.595   2.954
  128SOPE   H6X13794   0.428   1.672   2.896
  128SOPE   H6Y13795   0.590   1.605   2.928
  128SOPE   C3713796   0.446   1.619   3.097
  128SOPE   H7X13797   0.336   1.631   3.105
  128SOPE   H7Y13798   0.487   1.721   3.117
  128SOPE   C3813799   0.494   1.525   3.204
  128SOPE   H8X13800   0.604   1.530   3.188
  128SOPE   H8Y13801   0.463   1.421   3.180
  128SOPE   C3913802   0.454   1.573   3.347
  128SOPE   H9X13803   0.451   1.684   3.360
  128SOPE   H9Y13804   0.529   1.529   3.416
  128SOPE  C31013805   0.321   1.521   3.392
  128SOPE  H10X13806   0.326   1.411   3.376
  128SOPE  H10Y13807   0.243   1.573   3.333
  128SOPE  C31113808   0.293   1.537   3.544
  128SOPE  H11X13809   0.196   1.487   3.565
  128SOPE  H11Y13810   0.302   1.645   3.566
  128SOPE  C31213811   0.386   1.461   3.633
  128SOPE  H12X13812   0.489   1.503   3.634
  128SOPE  H12Y13813   0.405   1.362   3.586
  128SOPE  C31313814   0.328   1.446   3.780
  128SOPE  H13X13815   0.233   1.389   3.779
  128SOPE  H13Y13816   0.312   1.549   3.818
  128SOPE  C31413817   0.428   1.372   3.874
  128SOPE  H14X13818   0.526   1.422   3.863
  128SOPE  H14Y13819   0.431   1.270   3.830
  128SOPE  C31513820   0.382   1.367   4.014
  128SOPE  H15X13821   0.294   1.300   4.013
  128SOPE  H15Y13822   0.361   1.467   4.058
  128SOPE  C31613823   0.487   1.305   4.099
  128SOPE  H16X13824   0.502   1.203   4.057
  128SOPE  H16Y13825   0.446   1.303   4.203
  128SOPE  C31713826   0.622   1.379   4.117
  128SOPE  H17X13827   0.593   1.484   4.138
  128SOPE  H17Y13828   0.677   1.384   4.021
  128SOPE  C31813829   0.709   1.322   4.228
  128SOPE  H18X13830   0.792   1.393   4.250
  128SOPE  H18Y13831   0.752   1.223   4.202
  128SOPE  H18Z13832   0.658   1.312   4.327
  129OSM      N13833   4.227   3.762   6.636
  129OSM    C1513834   4.256   3.897   6.687
  129OSM   H15A13835   4.289   3.967   6.611
  129OSM   H15B13836   4.323   3.896   6.772
  129OSM   H15C13837   4.168   3.951   6.717
  129OSM    C1413838   4.114   3.774   6.537
  129OSM   H14A13839   4.122   3.704   6.455
  129OSM   H14B13840   4.123   3.870   6.488
  129OSM   H14C13841   4.017   3.764   6.582
  129OSM    C1313842   4.353   3.723   6.561
  129OSM   H13A13843   4.378   3.796   6.486
  129OSM   H13B13844   4.344   3.626   6.515
  129OSM   H13C13845   4.441   3.713   6.622
  129OSM    C1213846   4.205   3.662   6.756
  129OSM   H12A13847   4.284   3.667   6.829
  129OSM   H12B13848   4.218   3.563   6.715
  129OSM    C1113849   4.066   3.666   6.825
  129OSM   H11A13850   4.022   3.768   6.821
  129OSM   H11B13851   4.075   3.656   6.935
  129OSM      P13852   3.988   3.426   6.799
  129OSM    O1313853   4.130   3.384   6.781
  129OSM    O1413854   3.925   3.408   6.932
  129OSM    O1113855   3.900   3.355   6.686
  129OSM    O1213856   3.968   3.579   6.758
  129OSM    C1S13857   3.916   3.393   6.554
  129OSM    H1S13858   3.959   3.494   6.537
  129OSM    H1T13859   3.816   3.420   6.515
  129OSM     NF13860   4.011   3.346   6.327
  129OSM    HNF13861   3.965   3.320   6.243
  129OSM    C2S13862   3.978   3.285   6.456
  129OSM    H2S13863   4.074   3.251   6.501
  129OSM    C3S13864   3.897   3.145   6.464
  129OSM    H3S13865   3.793   3.158   6.427
  129OSM     O313866   3.865   3.105   6.594
  129OSM    HO313867   3.882   3.183   6.646
  129OSM    C4S13868   3.967   3.043   6.386
  129OSM    H4S13869   3.937   3.054   6.281
  129OSM    C5S13870   4.060   2.950   6.420
  129OSM    H5S13871   4.110   2.962   6.517
  129OSM    C6S13872   4.122   2.843   6.327
  129OSM    H6S13873   4.089   2.740   6.352
  129OSM    H6T13874   4.233   2.845   6.324
  129OSM    C7S13875   4.094   2.866   6.180
  129OSM    H7S13876   4.125   2.968   6.149
  129OSM    H7T13877   3.984   2.854   6.170
  129OSM    C8S13878   4.170   2.772   6.087
  129OSM    H8S13879   4.138   2.669   6.112
  129OSM    H8T13880   4.279   2.773   6.110
  129OSM    C9S13881   4.128   2.791   5.939
  129OSM    H9S13882   4.141   2.902   5.936
  129OSM    H9T13883   4.021   2.760   5.934
  129OSM   C10S13884   4.218   2.719   5.840
  129OSM   H10S13885   4.213   2.609   5.847
  129OSM   H10T13886   4.322   2.757   5.856
  129OSM   C11S13887   4.188   2.751   5.691
  129OSM   H11S13888   4.197   2.860   5.672
  129OSM   H11T13889   4.085   2.719   5.667
  129OSM   C12S13890   4.273   2.685   5.587
  129OSM   H12S13891   4.253   2.575   5.583
  129OSM   H12T13892   4.383   2.691   5.604
  129OSM   C13S13893   4.244   2.749   5.451
  129OSM   H13S13894   4.296   2.846   5.464
  129OSM   H13T13895   4.137   2.778   5.437
  129OSM   C14S13896   4.302   2.671   5.329
  129OSM   H14S13897   4.245   2.577   5.316
  129OSM   H14T13898   4.409   2.644   5.343
  129OSM   C15S13899   4.286   2.745   5.200
  129OSM   H15S13900   4.311   2.849   5.228
  129OSM   H15T13901   4.181   2.753   5.165
  129OSM   C16S13902   4.388   2.694   5.091
  129OSM   H16S13903   4.486   2.664   5.134
  129OSM   H16T13904   4.390   2.766   5.006
  129OSM   C17S13905   4.333   2.569   5.021
  129OSM   H17S13906   4.234   2.603   4.983
  129OSM   H17T13907   4.333   2.490   5.100
  129OSM   C18S13908   4.417   2.529   4.897
  129OSM   H18S13909   4.382   2.429   4.862
  129OSM   H18T13910   4.526   2.528   4.917
  129OSM   H18U13911   4.394   2.606   4.821
  129OSM    C1F13912   4.092   3.460   6.321
  129OSM     OF13913   4.180   3.481   6.394
  129OSM    C2F13914   4.071   3.548   6.197
  129OSM    H2F13915   4.169   3.591   6.168
  129OSM    H2G13916   4.021   3.634   6.248
  129OSM    C3F13917   3.973   3.497   6.085
  129OSM    H3F13918   3.960   3.576   6.008
  129OSM    H3G13919   3.873   3.473   6.126
  129OSM    C4F13920   4.017   3.381   5.990
  129OSM    H4F13921   3.930   3.386   5.921
  129OSM    H4G13922   4.007   3.279   6.033
  129OSM    C5F13923   4.152   3.403   5.922
  129OSM    H5F13924   4.236   3.380   5.991
  129OSM    H5G13925   4.159   3.510   5.891
  129OSM    C6F13926   4.178   3.307   5.804
  129OSM    H6F13927   4.109   3.336   5.722
  129OSM    H6G13928   4.151   3.206   5.839
  129OSM    C7F13929   4.326   3.287   5.764
  129OSM    H7F13930   4.371   3.256   5.860
  129OSM    H7G13931   4.361   3.389   5.737
  129OSM    C8F13932   4.344   3.182   5.651
  129OSM    H8F13933   4.295   3.223   5.560
  129OSM    H8G13934   4.310   3.079   5.676
  129OSM    C9F13935   4.489   3.162   5.631
  129OSM    H9F13936   4.560   3.156   5.715
  129OSM   C10F13937   4.540   3.132   5.512
  129OSM   H10F13938   4.645   3.101   5.500
  129OSM   C11F13939   4.458   3.143   5.387
  129OSM   H11F13940   4.410   3.243   5.388
  129OSM   H11G13941   4.381   3.062   5.386
  129OSM   C12F13942   4.539   3.123   5.260
  129OSM   H12F13943   4.578   3.022   5.234
  129OSM   H12G13944   4.636   3.175   5.276
  129OSM   C13F13945   4.462   3.161   5.132
  129OSM   H13F13946   4.469   3.271   5.120
  129OSM   H13G13947   4.357   3.134   5.155
  129OSM   C14F13948   4.519   3.084   5.012
  129OSM   H14F13949   4.516   2.975   5.032
  129OSM   H14G13950   4.625   3.110   4.994
  129OSM   C15F13951   4.435   3.115   4.885
  129OSM   H15F13952   4.402   3.221   4.890
  129OSM   H15G13953   4.335   3.067   4.893
  129OSM   C16F13954   4.506   3.090   4.753
  129OSM   H16F13955   4.530   2.982   4.754
  129OSM   H16G13956   4.610   3.129   4.752
  129OSM   C17F13957   4.427   3.128   4.634
  129OSM   H17F13958   4.483   3.130   4.538
  129OSM   H17G13959   4.389   3.231   4.651
  129OSM   C18F13960   4.307   3.039   4.608
  129OSM   H18F13961   4.232   3.087   4.542
  129OSM   H18G13962   4.253   2.993   4.694
  129OSM   H18H13963   4.354   2.955   4.553
  130OSM      N13964   4.604   5.329   6.920
  130OSM    C1513965   4.588   5.285   7.067
  130OSM   H15A13966   4.538   5.191   7.084
  130OSM   H15B13967   4.528   5.356   7.121
  130OSM   H15C13968   4.682   5.278   7.120
  130OSM    C1413969   4.472   5.375   6.866
  130OSM   H14A13970   4.435   5.465   6.912
  130OSM   H14B13971   4.394   5.303   6.890
  130OSM   H14C13972   4.479   5.380   6.758
  130OSM    C1313973   4.690   5.452   6.914
  130OSM   H13A13974   4.636   5.536   6.954
  130OSM   H13B13975   4.719   5.477   6.813
  130OSM   H13C13976   4.778   5.438   6.975
  130OSM    C1213977   4.649   5.210   6.841
  130OSM   H12A13978   4.754   5.192   6.854
  130OSM   H12B13979   4.637   5.236   6.737
  130OSM    C1113980   4.577   5.070   6.869
  130OSM   H11A13981   4.582   5.026   6.971
  130OSM   H11B13982   4.619   4.991   6.803
  130OSM      P13983   4.361   5.056   6.707
  130OSM    O1313984   4.321   4.914   6.716
  130OSM    O1413985   4.261   5.162   6.683
  130OSM    O1113986   4.475   5.079   6.598
  130OSM    O1213987   4.436   5.084   6.844
  130OSM    C1S13988   4.557   4.984   6.534
  130OSM    H1S13989   4.538   4.882   6.575
  130OSM    H1T13990   4.664   5.007   6.557
  130OSM     NF13991   4.643   4.885   6.322
  130OSM    HNF13992   4.732   4.911   6.287
  130OSM    C2S13993   4.551   4.990   6.378
  130OSM    H2S13994   4.452   4.948   6.349
  130OSM    C3S13995   4.572   5.139   6.329
  130OSM    H3S13996   4.672   5.171   6.365
  130OSM     O313997   4.479   5.231   6.392
  130OSM    HO313998   4.474   5.189   6.478
  130OSM    C4S13999   4.579   5.142   6.175
  130OSM    H4S14000   4.677   5.115   6.134
  130OSM    C5S14001   4.476   5.166   6.097
  130OSM    H5S14002   4.387   5.210   6.142
  130OSM    C6S14003   4.470   5.173   5.945
  130OSM    H6S14004   4.466   5.276   5.903
  130OSM    H6T14005   4.385   5.116   5.901
  130OSM    C7S14006   4.599   5.119   5.875
  130OSM    H7S14007   4.610   5.009   5.889
  130OSM    H7T14008   4.684   5.169   5.926
  130OSM    C8S14009   4.601   5.147   5.724
  130OSM    H8S14010   4.586   5.252   5.694
  130OSM    H8T14011   4.515   5.098   5.673
  130OSM    C9S14012   4.723   5.093   5.662
  130OSM    H9S14013   4.734   4.984   5.680
  130OSM    H9T14014   4.809   5.156   5.694
  130OSM   C10S14015   4.718   5.127   5.514
  130OSM   H10S14016   4.820   5.103   5.479
  130OSM   H10T14017   4.692   5.234   5.498
  130OSM   C11S14018   4.617   5.046   5.430
  130OSM   H11S14019   4.513   5.082   5.449
  130OSM   H11T14020   4.620   4.936   5.447
  130OSM   C12S14021   4.640   5.081   5.284
  130OSM   H12S14022   4.746   5.060   5.262
  130OSM   H12T14023   4.616   5.189   5.276
  130OSM   C13S14024   4.554   4.998   5.195
  130OSM   H13S14025   4.451   5.024   5.228
  130OSM   H13T14026   4.571   4.888   5.205
  130OSM   C14S14027   4.578   5.050   5.055
  130OSM   H14S14028   4.684   5.031   5.027
  130OSM   H14T14029   4.546   5.156   5.046
  130OSM   C15S14030   4.476   4.984   4.961
  130OSM   H15S14031   4.385   5.039   4.992
  130OSM   H15T14032   4.472   4.874   4.976
  130OSM   C16S14033   4.525   5.009   4.816
  130OSM   H16S14034   4.632   4.983   4.797
  130OSM   H16T14035   4.505   5.115   4.790
  130OSM   C17S14036   4.452   4.935   4.703
  130OSM   H17S14037   4.432   4.828   4.725
  130OSM   H17T14038   4.513   4.933   4.610
  130OSM   C18S14039   4.314   5.000   4.678
  130OSM   H18S14040   4.307   5.100   4.725
  130OSM   H18T14041   4.229   4.941   4.718
  130OSM   H18U14042   4.305   4.991   4.568
  130OSM    C1F14043   4.617   4.757   6.348
  130OSM     OF14044   4.515   4.720   6.405
  130OSM    C2F14045   4.732   4.668   6.328
  130OSM    H2F14046   4.775   4.653   6.430
  130OSM    H2G14047   4.806   4.720   6.264
  130OSM    C3F14048   4.696   4.532   6.271
  130OSM    H3F14049   4.614   4.479   6.324
  130OSM    H3G14050   4.788   4.472   6.285
  130OSM    C4F14051   4.661   4.528   6.119
  130OSM    H4F14052   4.574   4.598   6.111
  130OSM    H4G14053   4.607   4.434   6.094
  130OSM    C5F14054   4.766   4.563   6.013
  130OSM    H5F14055   4.866   4.546   6.059
  130OSM    H5G14056   4.758   4.670   5.982
  130OSM    C6F14057   4.758   4.475   5.893
  130OSM    H6F14058   4.649   4.463   5.875
  130OSM    H6G14059   4.799   4.376   5.922
  130OSM    C7F14060   4.826   4.526   5.767
  130OSM    H7F14061   4.827   4.452   5.684
  130OSM    H7G14062   4.924   4.569   5.794
  130OSM    C8F14063   4.738   4.644   5.713
  130OSM    H8F14064   4.809   4.696   5.645
  130OSM    H8G14065   4.729   4.725   5.789
  130OSM    C9F14066   4.616   4.622   5.630
  130OSM    H9F14067   4.521   4.649   5.678
  130OSM   C10F14068   4.612   4.569   5.505
  130OSM   H10F14069   4.512   4.560   5.460
  130OSM   C11F14070   4.735   4.537   5.424
  130OSM   H11F14071   4.810   4.487   5.488
  130OSM   H11G14072   4.783   4.633   5.393
  130OSM   C12F14073   4.710   4.473   5.293
  130OSM   H12F14074   4.673   4.369   5.310
  130OSM   H12G14075   4.810   4.453   5.248
  130OSM   C13F14076   4.613   4.544   5.196
  130OSM   H13F14077   4.657   4.646   5.188
  130OSM   H13G14078   4.508   4.550   5.231
  130OSM   C14F14079   4.592   4.474   5.059
  130OSM   H14F14080   4.544   4.375   5.073
  130OSM   H14G14081   4.684   4.449   5.002
  130OSM   C15F14082   4.510   4.551   4.956
  130OSM   H15F14083   4.562   4.646   4.931
  130OSM   H15G14084   4.409   4.574   4.996
  130OSM   C16F14085   4.485   4.470   4.828
  130OSM   H16F14086   4.585   4.453   4.783
  130OSM   H16G14087   4.419   4.525   4.757
  130OSM   C17F14088   4.424   4.325   4.849
  130OSM   H17F14089   4.345   4.335   4.926
  130OSM   H17G14090   4.504   4.259   4.889
  130OSM   C18F14091   4.360   4.260   4.724
  130OSM   H18F14092   4.442   4.247   4.651
  130OSM   H18G14093   4.274   4.317   4.684
  130OSM   H18H14094   4.333   4.154   4.746
  131OSM      N14095   4.979   0.749   6.780
  131OSM    C1514096   5.015   0.741   6.631
  131OSM   H15A14097   5.031   0.844   6.604
  131OSM   H15B14098   4.944   0.690   6.567
  131OSM   H15C14099   5.110   0.689   6.632
  131OSM    C1414100   4.832   0.772   6.781
  131OSM   H14A14101   4.790   0.788   6.879
  131OSM   H14B14102   4.795   0.681   6.737
  131OSM   H14C14103   4.804   0.863   6.730
  131OSM    C1314104   5.006   0.620   6.850
  131OSM   H13A14105   5.112   0.601   6.855
  131OSM   H13B14106   4.955   0.534   6.807
  131OSM   H13C14107   4.977   0.629   6.953
  131OSM    C1214108   5.073   0.854   6.836
  131OSM   H12A14109   5.174   0.823   6.813
  131OSM   H12B14110   5.077   0.855   6.944
  131OSM    C1114111   5.070   1.008   6.791
  131OSM   H11A14112   5.140   1.070   6.852
  131OSM   H11B14113   4.967   1.042   6.812
  131OSM      P14114   5.250   1.041   6.601
  131OSM    O1314115   5.262   1.171   6.531
  131OSM    O1414116   5.350   1.017   6.705
  131OSM    O1114117   5.260   0.926   6.491
  131OSM    O1214118   5.105   1.019   6.653
  131OSM    C1S14119   5.193   0.941   6.372
  131OSM    H1S14120   5.223   1.039   6.330
  131OSM    H1T14121   5.084   0.932   6.390
  131OSM     NF14122   5.136   0.844   6.163
  131OSM    HNF14123   5.046   0.803   6.175
  131OSM    C2S14124   5.235   0.828   6.267
  131OSM    H2S14125   5.335   0.850   6.225
  131OSM    C3S14126   5.233   0.685   6.332
  131OSM    H3S14127   5.129   0.675   6.371
  131OSM     O314128   5.320   0.663   6.439
  131OSM    HO314129   5.327   0.756   6.462
  131OSM    C4S14130   5.271   0.587   6.226
  131OSM    H4S14131   5.379   0.585   6.202
  131OSM    C5S14132   5.181   0.513   6.157
  131OSM    H5S14133   5.072   0.521   6.169
  131OSM    C6S14134   5.207   0.412   6.043
  131OSM    H6S14135   5.145   0.451   5.960
  131OSM    H6T14136   5.162   0.316   6.076
  131OSM    C7S14137   5.358   0.367   5.999
  131OSM    H7S14138   5.412   0.329   6.088
  131OSM    H7T14139   5.385   0.467   5.959
  131OSM    C8S14140   5.349   0.266   5.892
  131OSM    H8S14141   5.261   0.201   5.910
  131OSM    H8T14142   5.435   0.196   5.887
  131OSM    C9S14143   5.333   0.327   5.749
  131OSM    H9S14144   5.406   0.409   5.734
  131OSM    H9T14145   5.230   0.368   5.744
  131OSM   C10S14146   5.344   0.224   5.635
  131OSM   H10S14147   5.300   0.125   5.657
  131OSM   H10T14148   5.451   0.194   5.639
  131OSM   C11S14149   5.299   0.285   5.498
  131OSM   H11S14150   5.370   0.366   5.471
  131OSM   H11T14151   5.199   0.331   5.513
  131OSM   C12S14152   5.288   0.183   5.389
  131OSM   H12S14153   5.216   0.106   5.424
  131OSM   H12T14154   5.387   0.135   5.375
  131OSM   C13S14155   5.242   0.223   5.254
  131OSM   H13S14156   5.303   0.310   5.222
  131OSM   H13T14157   5.139   0.264   5.260
  131OSM   C14S14158   5.242   0.109   5.157
  131OSM   H14S14159   5.335   0.049   5.169
  131OSM   H14T14160   5.241   0.150   5.053
  131OSM   C15S14161   5.134   0.002   5.171
  131OSM   H15S14162   5.033   0.049   5.165
  131OSM   H15T14163   5.122  -0.034   5.276
  131OSM   C16S14164   5.161  -0.126   5.084
  131OSM   H16S14165   5.260  -0.167   5.112
  131OSM   H16T14166   5.167  -0.106   4.975
  131OSM   C17S14167   5.065  -0.237   5.124
  131OSM   H17S14168   4.967  -0.188   5.142
  131OSM   H17T14169   5.088  -0.281   5.223
  131OSM   C18S14170   5.051  -0.360   5.030
  131OSM   H18S14171   4.986  -0.442   5.068
  131OSM   H18T14172   5.146  -0.404   4.993
  131OSM   H18U14173   4.984  -0.334   4.945
  131OSM    C1F14174   5.138   0.947   6.078
  131OSM     OF14175   5.216   1.040   6.089
  131OSM    C2F14176   5.028   0.945   5.984
  131OSM    H2F14177   4.939   0.981   6.039
  131OSM    H2G14178   5.015   0.837   5.962
  131OSM    C3F14179   5.054   1.030   5.858
  131OSM    H3F14180   5.136   0.997   5.790
  131OSM    H3G14181   5.072   1.136   5.883
  131OSM    C4F14182   4.933   1.015   5.767
  131OSM    H4F14183   4.852   1.071   5.817
  131OSM    H4G14184   4.904   0.908   5.757
  131OSM    C5F14185   4.963   1.072   5.629
  131OSM    H5F14186   5.051   1.017   5.590
  131OSM    H5G14187   4.981   1.181   5.628
  131OSM    C6F14188   4.848   1.049   5.528
  131OSM    H6F14189   4.753   1.090   5.569
  131OSM    H6G14190   4.833   0.939   5.521
  131OSM    C7F14191   4.877   1.106   5.387
  131OSM    H7F14192   4.960   1.056   5.332
  131OSM    H7G14193   4.907   1.213   5.398
  131OSM    C8F14194   4.757   1.099   5.293
  131OSM    H8F14195   4.664   1.125   5.347
  131OSM    H8G14196   4.746   0.992   5.264
  131OSM    C9F14197   4.754   1.193   5.172
  131OSM    H9F14198   4.721   1.297   5.187
  131OSM   C10F14199   4.801   1.168   5.054
  131OSM   H10F14200   4.771   1.234   4.972
  131OSM   C11F14201   4.867   1.048   5.006
  131OSM   H11F14202   4.782   0.978   4.989
  131OSM   H11G14203   4.929   1.000   5.085
  131OSM   C12F14204   4.943   1.066   4.874
  131OSM   H12F14205   4.958   0.965   4.830
  131OSM   H12G14206   5.043   1.109   4.897
  131OSM   C13F14207   4.870   1.146   4.765
  131OSM   H13F14208   4.936   1.144   4.676
  131OSM   H13G14209   4.856   1.252   4.794
  131OSM   C14F14210   4.728   1.084   4.732
  131OSM   H14F14211   4.666   1.154   4.671
  131OSM   H14G14212   4.680   1.060   4.829
  131OSM   C15F14213   4.729   0.942   4.677
  131OSM   H15F14214   4.781   0.872   4.745
  131OSM   H15G14215   4.780   0.940   4.578
  131OSM   C16F14216   4.584   0.897   4.661
  131OSM   H16F14217   4.526   0.955   4.586
  131OSM   H16G14218   4.530   0.908   4.758
  131OSM   C17F14219   4.570   0.750   4.620
  131OSM   H17F14220   4.624   0.682   4.690
  131OSM   H17G14221   4.613   0.738   4.518
  131OSM   C18F14222   4.420   0.704   4.610
  131OSM   H18F14223   4.361   0.740   4.696
  131OSM   H18G14224   4.410   0.593   4.618
  131OSM   H18H14225   4.380   0.740   4.513
  132OSM      N14226   5.241   2.802   7.043
  132OSM    C1514227   5.252   2.924   7.131
  132OSM   H15A14228   5.353   2.924   7.171
  132OSM   H15B14229   5.185   2.914   7.214
  132OSM   H15C14230   5.220   3.006   7.070
  132OSM    C1414231   5.263   2.678   7.121
  132OSM   H14A14232   5.369   2.659   7.132
  132OSM   H14B14233   5.218   2.594   7.071
  132OSM   H14C14234   5.215   2.683   7.218
  132OSM    C1314235   5.102   2.787   6.990
  132OSM   H13A14236   5.079   2.851   6.905
  132OSM   H13B14237   5.036   2.819   7.068
  132OSM   H13C14238   5.088   2.684   6.961
  132OSM    C1214239   5.336   2.817   6.927
  132OSM   H12A14240   5.356   2.724   6.876
  132OSM   H12B14241   5.432   2.846   6.966
  132OSM    C1114242   5.309   2.920   6.820
  132OSM   H11A14243   5.205   2.909   6.783
  132OSM   H11B14244   5.380   2.902   6.737
  132OSM      P14245   5.471   3.113   6.898
  132OSM    O1314246   5.458   3.242   6.972
  132OSM    O1414247   5.567   3.014   6.942
  132OSM    O1114248   5.506   3.171   6.755
  132OSM    O1214249   5.327   3.060   6.865
  132OSM    C1S14250   5.406   3.240   6.680
  132OSM    H1S14251   5.349   3.306   6.749
  132OSM    H1T14252   5.335   3.168   6.633
  132OSM     NF14253   5.398   3.434   6.515
  132OSM    HNF14254   5.381   3.435   6.417
  132OSM    C2S14255   5.470   3.324   6.560
  132OSM    H2S14256   5.561   3.365   6.609
  132OSM    C3S14257   5.511   3.228   6.444
  132OSM    H3S14258   5.422   3.190   6.390
  132OSM     O314259   5.579   3.105   6.486
  132OSM    HO314260   5.574   3.106   6.582
  132OSM    C4S14261   5.592   3.293   6.341
  132OSM    H4S14262   5.531   3.321   6.254
  132OSM    C5S14263   5.729   3.287   6.330
  132OSM    H5S14264   5.785   3.223   6.399
  132OSM    C6S14265   5.805   3.326   6.204
  132OSM    H6S14266   5.883   3.249   6.182
  132OSM    H6T14267   5.874   3.412   6.216
  132OSM    C7S14268   5.729   3.357   6.074
  132OSM    H7S14269   5.663   3.443   6.097
  132OSM    H7T14270   5.653   3.281   6.046
  132OSM    C8S14271   5.822   3.393   5.958
  132OSM    H8S14272   5.892   3.311   5.930
  132OSM    H8T14273   5.899   3.466   5.990
  132OSM    C9S14274   5.746   3.437   5.836
  132OSM    H9S14275   5.688   3.529   5.859
  132OSM    H9T14276   5.685   3.355   5.792
  132OSM   C10S14277   5.849   3.482   5.732
  132OSM   H10S14278   5.911   3.392   5.710
  132OSM   H10T14279   5.921   3.561   5.759
  132OSM   C11S14280   5.778   3.532   5.597
  132OSM   H11S14281   5.702   3.610   5.620
  132OSM   H11T14282   5.721   3.444   5.561
  132OSM   C12S14283   5.874   3.585   5.484
  132OSM   H12S14284   5.978   3.559   5.514
  132OSM   H12T14285   5.888   3.695   5.481
  132OSM   C13S14286   5.825   3.552   5.341
  132OSM   H13S14287   5.799   3.444   5.329
  132OSM   H13T14288   5.912   3.574   5.276
  132OSM   C14S14289   5.721   3.655   5.307
  132OSM   H14S14290   5.770   3.754   5.317
  132OSM   H14T14291   5.626   3.657   5.364
  132OSM   C15S14292   5.684   3.632   5.165
  132OSM   H15S14293   5.638   3.531   5.167
  132OSM   H15T14294   5.772   3.647   5.099
  132OSM   C16S14295   5.569   3.729   5.124
  132OSM   H16S14296   5.609   3.829   5.154
  132OSM   H16T14297   5.482   3.717   5.192
  132OSM   C17S14298   5.525   3.718   4.982
  132OSM   H17S14299   5.484   3.615   4.973
  132OSM   H17T14300   5.614   3.717   4.916
  132OSM   C18S14301   5.418   3.821   4.931
  132OSM   H18S14302   5.448   3.928   4.930
  132OSM   H18T14303   5.337   3.822   5.007
  132OSM   H18U14304   5.370   3.787   4.836
  132OSM    C1F14305   5.367   3.532   6.601
  132OSM     OF14306   5.425   3.539   6.702
  132OSM    C2F14307   5.277   3.642   6.546
  132OSM    H2F14308   5.217   3.690   6.626
  132OSM    H2G14309   5.200   3.595   6.481
  132OSM    C3F14310   5.350   3.768   6.483
  132OSM    H3F14311   5.437   3.797   6.545
  132OSM    H3G14312   5.277   3.851   6.490
  132OSM    C4F14313   5.400   3.744   6.339
  132OSM    H4F14314   5.317   3.701   6.279
  132OSM    H4G14315   5.487   3.676   6.334
  132OSM    C5F14316   5.447   3.873   6.266
  132OSM    H5F14317   5.514   3.928   6.336
  132OSM    H5G14318   5.354   3.931   6.250
  132OSM    C6F14319   5.511   3.847   6.132
  132OSM    H6F14320   5.435   3.802   6.064
  132OSM    H6G14321   5.594   3.772   6.129
  132OSM    C7F14322   5.562   3.982   6.083
  132OSM    H7F14323   5.635   4.023   6.156
  132OSM    H7G14324   5.472   4.047   6.084
  132OSM    C8F14325   5.627   3.977   5.943
  132OSM    H8F14326   5.704   3.898   5.956
  132OSM    H8G14327   5.676   4.077   5.933
  132OSM    C9F14328   5.532   3.950   5.825
  132OSM    H9F14329   5.430   3.911   5.840
  132OSM   C10F14330   5.580   3.986   5.701
  132OSM   H10F14331   5.516   3.990   5.612
  132OSM   C11F14332   5.722   4.030   5.659
  132OSM   H11F14333   5.794   3.948   5.678
  132OSM   H11G14334   5.759   4.116   5.717
  132OSM   C12F14335   5.727   4.055   5.504
  132OSM   H12F14336   5.670   3.972   5.457
  132OSM   H12G14337   5.834   4.046   5.477
  132OSM   C13F14338   5.684   4.194   5.469
  132OSM   H13F14339   5.731   4.270   5.535
  132OSM   H13G14340   5.573   4.198   5.467
  132OSM   C14F14341   5.739   4.230   5.328
  132OSM   H14F14342   5.849   4.223   5.340
  132OSM   H14G14343   5.729   4.339   5.306
  132OSM   C15F14344   5.680   4.145   5.216
  132OSM   H15F14345   5.571   4.165   5.203
  132OSM   H15G14346   5.688   4.035   5.233
  132OSM   C16F14347   5.745   4.185   5.085
  132OSM   H16F14348   5.853   4.208   5.102
  132OSM   H16G14349   5.692   4.277   5.054
  132OSM   C17F14350   5.730   4.079   4.983
  132OSM   H17F14351   5.621   4.062   4.971
  132OSM   H17G14352   5.787   3.990   5.018
  132OSM   C18F14353   5.778   4.119   4.843
  132OSM   H18F14354   5.888   4.107   4.838
  132OSM   H18G14355   5.757   4.226   4.820
  132OSM   H18H14356   5.733   4.056   4.763
  133OSM      N14357   3.081   3.865   6.613
  133OSM    C1514358   2.979   3.915   6.513
  133OSM   H15A14359   3.023   4.004   6.471
  133OSM   H15B14360   2.890   3.951   6.562
  133OSM   H15C14361   2.953   3.837   6.443
  133OSM    C1414362   3.117   3.986   6.691
  133OSM   H14A14363   3.157   3.960   6.788
  133OSM   H14B14364   3.019   4.024   6.717
  133OSM   H14C14365   3.187   4.052   6.642
  133OSM    C1314366   3.006   3.766   6.699
  133OSM   H13A14367   2.960   3.687   6.642
  133OSM   H13B14368   2.927   3.812   6.757
  133OSM   H13C14369   3.073   3.721   6.770
  133OSM    C1214370   3.196   3.796   6.547
  133OSM   H12A14371   3.163   3.702   6.505
  133OSM   H12B14372   3.275   3.771   6.617
  133OSM    C1114373   3.259   3.859   6.427
  133OSM   H11A14374   3.188   3.863   6.341
  133OSM   H11B14375   3.345   3.797   6.394
  133OSM      P14376   3.446   4.039   6.473
  133OSM    O1314377   3.442   4.189   6.471
  133OSM    O1414378   3.512   3.973   6.589
  133OSM    O1114379   3.514   3.992   6.337
  133OSM    O1214380   3.296   3.995   6.452
  133OSM    C1S14381   3.441   4.023   6.212
  133OSM    H1S14382   3.330   4.026   6.219
  133OSM    H1T14383   3.466   3.933   6.151
  133OSM     NF14384   3.436   4.151   6.005
  133OSM    HNF14385   3.483   4.095   5.938
  133OSM    C2S14386   3.505   4.146   6.132
  133OSM    H2S14387   3.481   4.239   6.187
  133OSM    C3S14388   3.656   4.121   6.114
  133OSM    H3S14389   3.663   4.019   6.071
  133OSM     O314390   3.738   4.104   6.233
  133OSM    HO314391   3.670   4.116   6.300
  133OSM    C4S14392   3.708   4.229   6.020
  133OSM    H4S14393   3.701   4.210   5.912
  133OSM    C5S14394   3.748   4.355   6.052
  133OSM    H5S14395   3.729   4.396   6.152
  133OSM    C6S14396   3.791   4.464   5.953
  133OSM    H6S14397   3.888   4.501   5.992
  133OSM    H6T14398   3.728   4.555   5.959
  133OSM    C7S14399   3.824   4.435   5.799
  133OSM    H7S14400   3.728   4.395   5.759
  133OSM    H7T14401   3.898   4.352   5.792
  133OSM    C8S14402   3.877   4.563   5.731
  133OSM    H8S14403   3.974   4.591   5.777
  133OSM    H8T14404   3.811   4.651   5.746
  133OSM    C9S14405   3.882   4.540   5.582
  133OSM    H9S14406   3.951   4.456   5.558
  133OSM    H9T14407   3.923   4.636   5.545
  133OSM   C10S14408   3.749   4.514   5.513
  133OSM   H10S14409   3.674   4.580   5.563
  133OSM   H10T14410   3.726   4.406   5.517
  133OSM   C11S14411   3.764   4.547   5.363
  133OSM   H11S14412   3.859   4.507   5.321
  133OSM   H11T14413   3.773   4.656   5.344
  133OSM   C12S14414   3.653   4.476   5.291
  133OSM   H12S14415   3.568   4.516   5.351
  133OSM   H12T14416   3.667   4.371   5.324
  133OSM   C13S14417   3.648   4.518   5.144
  133OSM   H13S14418   3.751   4.513   5.105
  133OSM   H13T14419   3.630   4.627   5.145
  133OSM   C14S14420   3.547   4.448   5.051
  133OSM   H14S14421   3.442   4.467   5.083
  133OSM   H14T14422   3.569   4.340   5.056
  133OSM   C15S14423   3.549   4.486   4.907
  133OSM   H15S14424   3.646   4.441   4.877
  133OSM   H15T14425   3.535   4.592   4.875
  133OSM   C16S14426   3.438   4.405   4.830
  133OSM   H16S14427   3.340   4.444   4.866
  133OSM   H16T14428   3.453   4.299   4.860
  133OSM   C17S14429   3.460   4.423   4.678
  133OSM   H17S14430   3.561   4.382   4.661
  133OSM   H17T14431   3.447   4.528   4.642
  133OSM   C18S14432   3.361   4.329   4.599
  133OSM   H18S14433   3.255   4.352   4.627
  133OSM   H18T14434   3.387   4.224   4.621
  133OSM   H18U14435   3.374   4.350   4.491
  133OSM    C1F14436   3.308   4.193   5.991
  133OSM     OF14437   3.248   4.246   6.086
  133OSM    C2F14438   3.246   4.181   5.852
  133OSM    H2F14439   3.247   4.073   5.824
  133OSM    H2G14440   3.313   4.242   5.788
  133OSM    C3F14441   3.096   4.217   5.853
  133OSM    H3F14442   3.084   4.326   5.872
  133OSM    H3G14443   3.038   4.177   5.939
  133OSM    C4F14444   3.019   4.175   5.719
  133OSM    H4F14445   2.918   4.221   5.723
  133OSM    H4G14446   3.003   4.066   5.729
  133OSM    C5F14447   3.093   4.201   5.590
  133OSM    H5F14448   3.189   4.147   5.607
  133OSM    H5G14449   3.124   4.307   5.581
  133OSM    C6F14450   3.027   4.149   5.462
  133OSM    H6F14451   2.932   4.204   5.444
  133OSM    H6G14452   3.016   4.038   5.459
  133OSM    C7F14453   3.110   4.188   5.330
  133OSM    H7F14454   3.218   4.174   5.351
  133OSM    H7G14455   3.092   4.297   5.317
  133OSM    C8F14456   3.083   4.108   5.198
  133OSM    H8F14457   2.976   4.111   5.168
  133OSM    H8G14458   3.112   4.001   5.204
  133OSM    C9F14459   3.164   4.176   5.091
  133OSM    H9F14460   3.268   4.142   5.092
  133OSM   C10F14461   3.126   4.259   4.995
  133OSM   H10F14462   3.208   4.294   4.930
  133OSM   C11F14463   2.985   4.308   4.966
  133OSM   H11F14464   2.987   4.400   4.903
  133OSM   H11G14465   2.921   4.338   5.051
  133OSM   C12F14466   2.904   4.197   4.897
  133OSM   H12F14467   2.797   4.224   4.895
  133OSM   H12G14468   2.908   4.106   4.961
  133OSM   C13F14469   2.960   4.166   4.757
  133OSM   H13F14470   2.922   4.067   4.724
  133OSM   H13G14471   3.070   4.164   4.765
  133OSM   C14F14472   2.925   4.266   4.642
  133OSM   H14F14473   2.976   4.242   4.546
  133OSM   H14G14474   2.980   4.359   4.666
  133OSM   C15F14475   2.778   4.285   4.603
  133OSM   H15F14476   2.735   4.367   4.665
  133OSM   H15G14477   2.723   4.191   4.621
  133OSM   C16F14478   2.752   4.334   4.462
  133OSM   H16F14479   2.790   4.266   4.384
  133OSM   H16G14480   2.820   4.422   4.456
  133OSM   C17F14481   2.609   4.382   4.433
  133OSM   H17F14482   2.606   4.438   4.336
  133OSM   H17G14483   2.580   4.467   4.498
  133OSM   C18F14484   2.510   4.266   4.425
  133OSM   H18F14485   2.538   4.189   4.501
  133OSM   H18G14486   2.513   4.213   4.328
  133OSM   H18H14487   2.405   4.293   4.445
  134OSM      N14488   2.302   2.157   6.977
  134OSM    C1514489   2.191   2.081   7.041
  134OSM   H15A14490   2.124   2.143   7.099
  134OSM   H15B14491   2.236   2.005   7.103
  134OSM   H15C14492   2.142   2.033   6.957
  134OSM    C1414493   2.397   2.200   7.077
  134OSM   H14A14494   2.362   2.254   7.164
  134OSM   H14B14495   2.466   2.269   7.030
  134OSM   H14C14496   2.451   2.116   7.119
  134OSM    C1314497   2.363   2.063   6.881
  134OSM   H13A14498   2.387   1.969   6.927
  134OSM   H13B14499   2.457   2.107   6.848
  134OSM   H13C14500   2.300   2.052   6.794
  134OSM    C1214501   2.245   2.279   6.903
  134OSM   H12A14502   2.221   2.343   6.986
  134OSM   H12B14503   2.157   2.252   6.846
  134OSM    C1114504   2.339   2.358   6.820
  134OSM   H11A14505   2.277   2.426   6.758
  134OSM   H11B14506   2.390   2.283   6.757
  134OSM      P14507   2.574   2.455   6.829
  134OSM    O1314508   2.601   2.599   6.843
  134OSM    O1414509   2.663   2.351   6.894
  134OSM    O1114510   2.560   2.430   6.671
  134OSM    O1214511   2.429   2.435   6.892
  134OSM    C1S14512   2.508   2.545   6.594
  134OSM    H1S14513   2.585   2.625   6.596
  134OSM    H1T14514   2.415   2.582   6.642
  134OSM     NF14515   2.496   2.633   6.360
  134OSM    HNF14516   2.401   2.648   6.333
  134OSM    C2S14517   2.501   2.514   6.439
  134OSM    H2S14518   2.597   2.470   6.406
  134OSM    C3S14519   2.400   2.401   6.411
  134OSM    H3S14520   2.299   2.448   6.411
  134OSM     O314521   2.406   2.301   6.507
  134OSM    HO314522   2.483   2.322   6.561
  134OSM    C4S14523   2.436   2.331   6.286
  134OSM    H4S14524   2.521   2.261   6.287
  134OSM    C5S14525   2.381   2.364   6.167
  134OSM    H5S14526   2.298   2.435   6.165
  134OSM    C6S14527   2.421   2.310   6.034
  134OSM    H6S14528   2.333   2.247   6.007
  134OSM    H6T14529   2.500   2.232   6.033
  134OSM    C7S14530   2.461   2.411   5.925
  134OSM    H7S14531   2.550   2.469   5.957
  134OSM    H7T14532   2.374   2.478   5.913
  134OSM    C8S14533   2.491   2.335   5.803
  134OSM    H8S14534   2.410   2.263   5.779
  134OSM    H8T14535   2.582   2.271   5.801
  134OSM    C9S14536   2.487   2.420   5.678
  134OSM    H9S14537   2.565   2.499   5.681
  134OSM    H9T14538   2.389   2.470   5.661
  134OSM   C10S14539   2.513   2.340   5.551
  134OSM   H10S14540   2.449   2.250   5.538
  134OSM   H10T14541   2.616   2.303   5.566
  134OSM   C11S14542   2.511   2.428   5.428
  134OSM   H11S14543   2.594   2.502   5.438
  134OSM   H11T14544   2.421   2.492   5.423
  134OSM   C12S14545   2.506   2.359   5.294
  134OSM   H12S14546   2.399   2.330   5.290
  134OSM   H12T14547   2.573   2.270   5.289
  134OSM   C13S14548   2.525   2.443   5.168
  134OSM   H13S14549   2.629   2.482   5.165
  134OSM   H13T14550   2.466   2.534   5.190
  134OSM   C14S14551   2.490   2.391   5.028
  134OSM   H14S14552   2.381   2.367   5.027
  134OSM   H14T14553   2.553   2.301   5.009
  134OSM   C15S14554   2.511   2.496   4.916
  134OSM   H15S14555   2.614   2.536   4.929
  134OSM   H15T14556   2.455   2.591   4.931
  134OSM   C16S14557   2.520   2.433   4.773
  134OSM   H16S14558   2.422   2.393   4.740
  134OSM   H16T14559   2.575   2.337   4.785
  134OSM   C17S14560   2.587   2.510   4.670
  134OSM   H17S14561   2.684   2.551   4.705
  134OSM   H17T14562   2.526   2.596   4.635
  134OSM   C18S14563   2.622   2.420   4.548
  134OSM   H18S14564   2.532   2.399   4.486
  134OSM   H18T14565   2.663   2.319   4.567
  134OSM   H18U14566   2.705   2.472   4.496
  134OSM    C1F14567   2.596   2.713   6.336
  134OSM     OF14568   2.702   2.709   6.393
  134OSM    C2F14569   2.560   2.820   6.238
  134OSM    H2F14570   2.532   2.917   6.284
  134OSM    H2G14571   2.473   2.771   6.190
  134OSM    C3F14572   2.670   2.845   6.129
  134OSM    H3F14573   2.709   2.747   6.094
  134OSM    H3G14574   2.763   2.880   6.178
  134OSM    C4F14575   2.626   2.937   6.019
  134OSM    H4F14576   2.719   2.978   5.973
  134OSM    H4G14577   2.571   3.027   6.054
  134OSM    C5F14578   2.542   2.867   5.909
  134OSM    H5F14579   2.440   2.885   5.950
  134OSM    H5G14580   2.561   2.758   5.908
  134OSM    C6F14581   2.556   2.927   5.773
  134OSM    H6F14582   2.656   2.960   5.738
  134OSM    H6G14583   2.495   3.019   5.768
  134OSM    C7F14584   2.520   2.839   5.659
  134OSM    H7F14585   2.413   2.813   5.667
  134OSM    H7G14586   2.576   2.743   5.656
  134OSM    C8F14587   2.535   2.905   5.513
  134OSM    H8F14588   2.637   2.942   5.489
  134OSM    H8G14589   2.472   2.995   5.525
  134OSM    C9F14590   2.460   2.828   5.406
  134OSM    H9F14591   2.380   2.763   5.444
  134OSM   C10F14592   2.499   2.817   5.277
  134OSM   H10F14593   2.437   2.750   5.215
  134OSM   C11F14594   2.616   2.882   5.212
  134OSM   H11F14595   2.681   2.809   5.160
  134OSM   H11G14596   2.687   2.936   5.279
  134OSM   C12F14597   2.575   2.971   5.089
  134OSM   H12F14598   2.639   3.061   5.087
  134OSM   H12G14599   2.474   3.014   5.106
  134OSM   C13F14600   2.586   2.897   4.951
  134OSM   H13F14601   2.523   2.805   4.947
  134OSM   H13G14602   2.693   2.873   4.939
  134OSM   C14F14603   2.562   2.996   4.832
  134OSM   H14F14604   2.619   3.091   4.834
  134OSM   H14G14605   2.459   3.040   4.828
  134OSM   C15F14606   2.598   2.929   4.699
  134OSM   H15F14607   2.555   2.826   4.705
  134OSM   H15G14608   2.708   2.923   4.693
  134OSM   C16F14609   2.526   2.990   4.575
  134OSM   H16F14610   2.421   3.002   4.610
  134OSM   H16G14611   2.521   2.917   4.492
  134OSM   C17F14612   2.579   3.132   4.534
  134OSM   H17F14613   2.687   3.115   4.519
  134OSM   H17G14614   2.563   3.205   4.617
  134OSM   C18F14615   2.508   3.191   4.409
  134OSM   H18F14616   2.495   3.105   4.341
  134OSM   H18G14617   2.568   3.271   4.361
  134OSM   H18H14618   2.405   3.225   4.434
  135OSM      N14619   2.470   1.437   6.654
  135OSM    C1514620   2.453   1.436   6.806
  135OSM   H15A14621   2.432   1.534   6.845
  135OSM   H15B14622   2.537   1.390   6.856
  135OSM   H15C14623   2.361   1.387   6.834
  135OSM    C1414624   2.453   1.300   6.603
  135OSM   H14A14625   2.361   1.259   6.642
  135OSM   H14B14626   2.533   1.231   6.625
  135OSM   H14C14627   2.436   1.296   6.496
  135OSM    C1314628   2.350   1.517   6.607
  135OSM   H13A14629   2.357   1.622   6.631
  135OSM   H13B14630   2.259   1.467   6.636
  135OSM   H13C14631   2.339   1.517   6.500
  135OSM    C1214632   2.598   1.503   6.613
  135OSM   H12A14633   2.591   1.597   6.666
  135OSM   H12B14634   2.604   1.535   6.510
  135OSM    C1114635   2.732   1.442   6.651
  135OSM   H11A14636   2.710   1.418   6.758
  135OSM   H11B14637   2.815   1.514   6.636
  135OSM      P14638   2.797   1.317   6.434
  135OSM    O1314639   2.886   1.435   6.414
  135OSM    O1414640   2.850   1.175   6.399
  135OSM    O1114641   2.658   1.334   6.356
  135OSM    O1214642   2.753   1.323   6.582
  135OSM    C1S14643   2.619   1.230   6.264
  135OSM    H1S14644   2.597   1.134   6.316
  135OSM    H1T14645   2.685   1.217   6.176
  135OSM     NF14646   2.450   1.144   6.100
  135OSM    HNF14647   2.467   1.167   6.004
  135OSM    C2S14648   2.480   1.258   6.189
  135OSM    H2S14649   2.408   1.265   6.273
  135OSM    C3S14650   2.483   1.396   6.116
  135OSM    H3S14651   2.570   1.392   6.048
  135OSM     O314652   2.528   1.507   6.195
  135OSM    HO314653   2.573   1.464   6.268
  135OSM    C4S14654   2.354   1.436   6.054
  135OSM    H4S14655   2.261   1.447   6.112
  135OSM    C5S14656   2.352   1.469   5.923
  135OSM    H5S14657   2.453   1.479   5.880
  135OSM    C6S14658   2.234   1.504   5.834
  135OSM    H6S14659   2.238   1.614   5.818
  135OSM    H6T14660   2.135   1.489   5.882
  135OSM    C7S14661   2.242   1.443   5.691
  135OSM    H7S14662   2.226   1.333   5.698
  135OSM    H7T14663   2.341   1.456   5.642
  135OSM    C8S14664   2.138   1.498   5.599
  135OSM    H8S14665   2.149   1.607   5.580
  135OSM    H8T14666   2.035   1.486   5.639
  135OSM    C9S14667   2.132   1.438   5.458
  135OSM    H9S14668   2.048   1.486   5.403
  135OSM    H9T14669   2.106   1.330   5.467
  135OSM   C10S14670   2.252   1.459   5.366
  135OSM   H10S14671   2.327   1.386   5.402
  135OSM   H10T14672   2.304   1.554   5.391
  135OSM   C11S14673   2.235   1.429   5.217
  135OSM   H11S14674   2.147   1.491   5.189
  135OSM   H11T14675   2.234   1.321   5.192
  135OSM   C12S14676   2.352   1.485   5.134
  135OSM   H12S14677   2.443   1.424   5.156
  135OSM   H12T14678   2.374   1.592   5.154
  135OSM   C13S14679   2.322   1.465   4.982
  135OSM   H13S14680   2.225   1.511   4.954
  135OSM   H13T14681   2.320   1.355   4.971
  135OSM   C14S14682   2.436   1.539   4.906
  135OSM   H14S14683   2.529   1.485   4.932
  135OSM   H14T14684   2.453   1.640   4.949
  135OSM   C15S14685   2.423   1.541   4.751
  135OSM   H15S14686   2.507   1.589   4.696
  135OSM   H15T14687   2.336   1.611   4.750
  135OSM   C16S14688   2.375   1.415   4.681
  135OSM   H16S14689   2.288   1.365   4.730
  135OSM   H16T14690   2.462   1.347   4.684
  135OSM   C17S14691   2.333   1.441   4.540
  135OSM   H17S14692   2.405   1.510   4.490
  135OSM   H17T14693   2.231   1.484   4.552
  135OSM   C18S14694   2.315   1.309   4.462
  135OSM   H18S14695   2.249   1.242   4.520
  135OSM   H18T14696   2.414   1.259   4.471
  135OSM   H18U14697   2.294   1.326   4.355
  135OSM    C1F14698   2.416   1.017   6.114
  135OSM     OF14699   2.380   0.978   6.221
  135OSM    C2F14700   2.423   0.925   5.995
  135OSM    H2F14701   2.514   0.863   6.011
  135OSM    H2G14702   2.416   0.981   5.900
  135OSM    C3F14703   2.298   0.833   5.997
  135OSM    H3F14704   2.204   0.891   6.000
  135OSM    H3G14705   2.298   0.765   6.085
  135OSM    C4F14706   2.291   0.750   5.866
  135OSM    H4F14707   2.191   0.703   5.853
  135OSM    H4G14708   2.277   0.829   5.790
  135OSM    C5F14709   2.405   0.657   5.843
  135OSM    H5F14710   2.396   0.581   5.923
  135OSM    H5G14711   2.502   0.711   5.852
  135OSM    C6F14712   2.411   0.586   5.701
  135OSM    H6F14713   2.325   0.518   5.686
  135OSM    H6G14714   2.504   0.527   5.710
  135OSM    C7F14715   2.430   0.680   5.586
  135OSM    H7F14716   2.530   0.727   5.602
  135OSM    H7G14717   2.358   0.764   5.594
  135OSM    C8F14718   2.421   0.611   5.449
  135OSM    H8F14719   2.489   0.523   5.449
  135OSM    H8G14720   2.467   0.665   5.363
  135OSM    C9F14721   2.276   0.583   5.408
  135OSM    H9F14722   2.228   0.502   5.465
  135OSM   C10F14723   2.214   0.623   5.299
  135OSM   H10F14724   2.115   0.584   5.273
  135OSM   C11F14725   2.246   0.727   5.196
  135OSM   H11F14726   2.338   0.782   5.228
  135OSM   H11G14727   2.165   0.802   5.194
  135OSM   C12F14728   2.287   0.680   5.059
  135OSM   H12F14729   2.289   0.759   4.981
  135OSM   H12G14730   2.213   0.600   5.036
  135OSM   C13F14731   2.431   0.624   5.065
  135OSM   H13F14732   2.433   0.541   5.139
  135OSM   H13G14733   2.502   0.703   5.100
  135OSM   C14F14734   2.482   0.555   4.938
  135OSM   H14F14735   2.415   0.474   4.902
  135OSM   H14G14736   2.579   0.506   4.960
  135OSM   C15F14737   2.495   0.647   4.815
  135OSM   H15F14738   2.567   0.730   4.837
  135OSM   H15G14739   2.400   0.697   4.789
  135OSM   C16F14740   2.538   0.579   4.685
  135OSM   H16F14741   2.457   0.513   4.647
  135OSM   H16G14742   2.633   0.524   4.701
  135OSM   C17F14743   2.563   0.681   4.573
  135OSM   H17F14744   2.626   0.645   4.488
  135OSM   H17G14745   2.638   0.752   4.615
  135OSM   C18F14746   2.455   0.749   4.510
  135OSM   H18F14747   2.491   0.848   4.473
  135OSM   H18G14748   2.370   0.773   4.577
  135OSM   H18H14749   2.411   0.701   4.420
  136OSM      N14750   5.132   2.253   6.763
  136OSM    C1514751   5.146   2.118   6.695
  136OSM   H15A14752   5.197   2.122   6.600
  136OSM   H15B14753   5.051   2.077   6.666
  136OSM   H15C14754   5.198   2.051   6.762
  136OSM    C1414755   5.082   2.350   6.661
  136OSM   H14A14756   4.981   2.322   6.633
  136OSM   H14B14757   5.142   2.346   6.571
  136OSM   H14C14758   5.086   2.451   6.698
  136OSM    C1314759   5.037   2.242   6.879
  136OSM   H13A14760   5.065   2.171   6.954
  136OSM   H13B14761   4.946   2.211   6.830
  136OSM   H13C14762   5.028   2.341   6.921
  136OSM    C1214763   5.273   2.302   6.812
  136OSM   H12A14764   5.340   2.293   6.728
  136OSM   H12B14765   5.316   2.233   6.883
  136OSM    C1114766   5.286   2.448   6.868
  136OSM   H11A14767   5.202   2.457   6.940
  136OSM   H11B14768   5.263   2.524   6.791
  136OSM      P14769   5.544   2.485   6.861
  136OSM    O1314770   5.555   2.628   6.834
  136OSM    O1414771   5.656   2.432   6.944
  136OSM    O1114772   5.528   2.403   6.728
  136OSM    O1214773   5.413   2.460   6.936
  136OSM    C1S14774   5.651   2.390   6.652
  136OSM    H1S14775   5.720   2.320   6.704
  136OSM    H1T14776   5.702   2.488   6.636
  136OSM     NF14777   5.753   2.305   6.445
  136OSM    HNF14778   5.808   2.354   6.377
  136OSM    C2S14779   5.624   2.340   6.500
  136OSM    H2S14780   5.571   2.242   6.504
  136OSM    C3S14781   5.519   2.424   6.431
  136OSM    H3S14782   5.560   2.525   6.451
  136OSM     O314783   5.383   2.420   6.486
  136OSM    HO314784   5.398   2.410   6.580
  136OSM    C4S14785   5.504   2.387   6.292
  136OSM    H4S14786   5.456   2.289   6.277
  136OSM    C5S14787   5.531   2.462   6.184
  136OSM    H5S14788   5.555   2.569   6.187
  136OSM    C6S14789   5.485   2.414   6.044
  136OSM    H6S14790   5.397   2.465   5.998
  136OSM    H6T14791   5.458   2.306   6.036
  136OSM    C7S14792   5.604   2.438   5.954
  136OSM    H7S14793   5.696   2.396   6.000
  136OSM    H7T14794   5.620   2.545   5.932
  136OSM    C8S14795   5.591   2.392   5.813
  136OSM    H8S14796   5.503   2.451   5.778
  136OSM    H8T14797   5.561   2.286   5.798
  136OSM    C9S14798   5.701   2.428   5.716
  136OSM    H9S14799   5.682   2.394   5.612
  136OSM    H9T14800   5.800   2.394   5.753
  136OSM   C10S14801   5.720   2.577   5.691
  136OSM   H10S14802   5.733   2.641   5.780
  136OSM   H10T14803   5.623   2.612   5.650
  136OSM   C11S14804   5.834   2.611   5.590
  136OSM   H11S14805   5.937   2.600   5.630
  136OSM   H11T14806   5.825   2.722   5.579
  136OSM   C12S14807   5.815   2.532   5.462
  136OSM   H12S14808   5.706   2.520   5.449
  136OSM   H12T14809   5.863   2.432   5.468
  136OSM   C13S14810   5.868   2.614   5.342
  136OSM   H13S14811   5.965   2.660   5.372
  136OSM   H13T14812   5.792   2.693   5.328
  136OSM   C14S14813   5.879   2.527   5.224
  136OSM   H14S14814   5.786   2.467   5.216
  136OSM   H14T14815   5.958   2.450   5.233
  136OSM   C15S14816   5.924   2.596   5.092
  136OSM   H15S14817   5.949   2.510   5.026
  136OSM   H15T14818   6.020   2.653   5.099
  136OSM   C16S14819   5.816   2.672   5.016
  136OSM   H16S14820   5.780   2.763   5.068
  136OSM   H16T14821   5.727   2.608   4.994
  136OSM   C17S14822   5.863   2.735   4.884
  136OSM   H17S14823   5.938   2.815   4.902
  136OSM   H17T14824   5.775   2.780   4.832
  136OSM   C18S14825   5.923   2.636   4.779
  136OSM   H18S14826   6.003   2.571   4.821
  136OSM   H18T14827   5.956   2.681   4.683
  136OSM   H18U14828   5.835   2.572   4.755
  136OSM    C1F14829   5.820   2.194   6.486
  136OSM     OF14830   5.782   2.121   6.571
  136OSM    C2F14831   5.945   2.168   6.403
  136OSM    H2F14832   6.034   2.223   6.440
  136OSM    H2G14833   5.928   2.202   6.299
  136OSM    C3F14834   5.995   2.023   6.405
  136OSM    H3F14835   5.931   1.950   6.351
  136OSM    H3G14836   6.014   1.987   6.509
  136OSM    C4F14837   6.135   2.008   6.332
  136OSM    H4F14838   6.176   1.910   6.363
  136OSM    H4G14839   6.208   2.086   6.362
  136OSM    C5F14840   6.126   2.000   6.183
  136OSM    H5F14841   6.077   2.091   6.143
  136OSM    H5G14842   6.058   1.919   6.148
  136OSM    C6F14843   6.259   1.980   6.113
  136OSM    H6F14844   6.313   1.899   6.165
  136OSM    H6G14845   6.317   2.075   6.119
  136OSM    C7F14846   6.240   1.949   5.966
  136OSM    H7F14847   6.160   2.021   5.936
  136OSM    H7G14848   6.197   1.848   5.950
  136OSM    C8F14849   6.366   1.963   5.872
  136OSM    H8F14850   6.406   2.063   5.898
  136OSM    H8G14851   6.328   1.967   5.767
  136OSM    C9F14852   6.477   1.865   5.901
  136OSM    H9F14853   6.566   1.893   5.958
  136OSM   C10F14854   6.495   1.750   5.830
  136OSM   H10F14855   6.576   1.680   5.858
  136OSM   C11F14856   6.401   1.699   5.723
  136OSM   H11F14857   6.294   1.728   5.735
  136OSM   H11G14858   6.394   1.588   5.723
  136OSM   C12F14859   6.440   1.749   5.583
  136OSM   H12F14860   6.550   1.750   5.567
  136OSM   H12G14861   6.408   1.855   5.575
  136OSM   C13F14862   6.359   1.671   5.469
  136OSM   H13F14863   6.255   1.712   5.472
  136OSM   H13G14864   6.360   1.562   5.486
  136OSM   C14F14865   6.409   1.696   5.324
  136OSM   H14F14866   6.498   1.630   5.314
  136OSM   H14G14867   6.434   1.802   5.301
  136OSM   C15F14868   6.318   1.652   5.204
  136OSM   H15F14869   6.300   1.543   5.215
  136OSM   H15G14870   6.369   1.666   5.107
  136OSM   C16F14871   6.183   1.721   5.205
  136OSM   H16F14872   6.171   1.828   5.234
  136OSM   H16G14873   6.119   1.678   5.286
  136OSM   C17F14874   6.111   1.706   5.072
  136OSM   H17F14875   6.120   1.607   5.021
  136OSM   H17G14876   6.161   1.775   5.002
  136OSM   C18F14877   5.969   1.763   5.074
  136OSM   H18F14878   5.909   1.711   5.151
  136OSM   H18G14879   5.907   1.738   4.985
  136OSM   H18H14880   5.966   1.873   5.090
  137OSM      N14881   1.140   0.715   6.762
  137OSM    C1514882   1.005   0.758   6.798
  137OSM   H15A14883   0.982   0.723   6.898
  137OSM   H15B14884   0.927   0.728   6.729
  137OSM   H15C14885   1.010   0.865   6.805
  137OSM    C1414886   1.237   0.771   6.866
  137OSM   H14A14887   1.340   0.740   6.855
  137OSM   H14B14888   1.211   0.740   6.966
  137OSM   H14C14889   1.243   0.879   6.864
  137OSM    C1314890   1.139   0.563   6.770
  137OSM   H13A14891   1.070   0.528   6.694
  137OSM   H13B14892   1.104   0.524   6.864
  137OSM   H13C14893   1.235   0.518   6.749
  137OSM    C1214894   1.189   0.754   6.620
  137OSM   H12A14895   1.125   0.703   6.550
  137OSM   H12B14896   1.290   0.725   6.597
  137OSM    C1114897   1.184   0.899   6.582
  137OSM   H11A14898   1.082   0.943   6.585
  137OSM   H11B14899   1.221   0.910   6.477
  137OSM      P14900   1.415   1.015   6.646
  137OSM    O1314901   1.450   1.148   6.707
  137OSM    O1414902   1.500   0.897   6.696
  137OSM    O1114903   1.428   1.036   6.488
  137OSM    O1214904   1.260   0.983   6.671
  137OSM    C1S14905   1.552   1.089   6.438
  137OSM    H1S14906   1.642   1.056   6.493
  137OSM    H1T14907   1.548   1.200   6.442
  137OSM     NF14908   1.688   1.128   6.220
  137OSM    HNF14909   1.676   1.201   6.152
  137OSM    C2S14910   1.569   1.061   6.278
  137OSM    H2S14911   1.588   0.951   6.279
  137OSM    C3S14912   1.435   1.093   6.203
  137OSM    H3S14913   1.434   1.203   6.186
  137OSM     O314914   1.316   1.051   6.265
  137OSM    HO314915   1.348   1.024   6.351
  137OSM    C4S14916   1.451   1.036   6.059
  137OSM    H4S14917   1.528   1.077   5.992
  137OSM    C5S14918   1.388   0.933   6.010
  137OSM    H5S14919   1.324   0.871   6.074
  137OSM    C6S14920   1.415   0.883   5.868
  137OSM    H6S14921   1.320   0.865   5.815
  137OSM    H6T14922   1.456   0.780   5.872
  137OSM    C7S14923   1.495   0.967   5.768
  137OSM    H7S14924   1.603   0.959   5.790
  137OSM    H7T14925   1.460   1.072   5.767
  137OSM    C8S14926   1.472   0.917   5.620
  137OSM    H8S14927   1.365   0.903   5.597
  137OSM    H8T14928   1.518   0.817   5.604
  137OSM    C9S14929   1.549   1.006   5.519
  137OSM    H9S14930   1.659   0.997   5.529
  137OSM    H9T14931   1.519   1.113   5.531
  137OSM   C10S14932   1.511   0.982   5.379
  137OSM   H10S14933   1.414   0.932   5.354
  137OSM   H10T14934   1.588   0.911   5.343
  137OSM   C11S14935   1.513   1.105   5.288
  137OSM   H11S14936   1.613   1.149   5.312
  137OSM   H11T14937   1.440   1.182   5.320
  137OSM   C12S14938   1.515   1.072   5.136
  137OSM   H12S14939   1.416   1.031   5.106
  137OSM   H12T14940   1.589   0.990   5.128
  137OSM   C13S14941   1.540   1.193   5.048
  137OSM   H13S14942   1.639   1.239   5.067
  137OSM   H13T14943   1.468   1.275   5.068
  137OSM   C14S14944   1.543   1.152   4.904
  137OSM   H14S14945   1.453   1.095   4.872
  137OSM   H14T14946   1.624   1.076   4.900
  137OSM   C15S14947   1.561   1.266   4.796
  137OSM   H15S14948   1.648   1.335   4.805
  137OSM   H15T14949   1.472   1.328   4.820
  137OSM   C16S14950   1.546   1.224   4.650
  137OSM   H16S14951   1.472   1.141   4.646
  137OSM   H16T14952   1.639   1.178   4.611
  137OSM   C17S14953   1.507   1.332   4.550
  137OSM   H17S14954   1.471   1.282   4.458
  137OSM   H17T14955   1.593   1.399   4.527
  137OSM   C18S14956   1.378   1.405   4.595
  137OSM   H18S14957   1.410   1.477   4.673
  137OSM   H18T14958   1.302   1.336   4.636
  137OSM   H18U14959   1.328   1.456   4.510
  137OSM    C1F14960   1.810   1.106   6.267
  137OSM     OF14961   1.842   1.003   6.319
  137OSM    C2F14962   1.913   1.212   6.231
  137OSM    H2F14963   1.970   1.229   6.325
  137OSM    H2G14964   1.858   1.305   6.203
  137OSM    C3F14965   2.004   1.154   6.116
  137OSM    H3F14966   2.035   1.051   6.145
  137OSM    H3G14967   2.094   1.217   6.129
  137OSM    C4F14968   1.947   1.150   5.974
  137OSM    H4F14969   1.908   1.253   5.958
  137OSM    H4G14970   1.865   1.074   5.968
  137OSM    C5F14971   2.046   1.109   5.867
  137OSM    H5F14972   2.088   1.015   5.908
  137OSM    H5G14973   2.140   1.169   5.865
  137OSM    C6F14974   1.981   1.103   5.731
  137OSM    H6F14975   1.961   1.205   5.693
  137OSM    H6G14976   1.882   1.054   5.743
  137OSM    C7F14977   2.067   1.051   5.616
  137OSM    H7F14978   2.106   0.949   5.635
  137OSM    H7G14979   2.153   1.115   5.589
  137OSM    C8F14980   1.986   1.038   5.479
  137OSM    H8F14981   1.917   1.123   5.467
  137OSM    H8G14982   1.918   0.951   5.492
  137OSM    C9F14983   2.064   1.015   5.352
  137OSM    H9F14984   2.162   0.965   5.360
  137OSM   C10F14985   2.017   1.049   5.226
  137OSM   H10F14986   2.089   1.037   5.144
  137OSM   C11F14987   1.898   1.123   5.178
  137OSM   H11F14988   1.835   1.148   5.267
  137OSM   H11G14989   1.834   1.069   5.105
  137OSM   C12F14990   1.933   1.266   5.124
  137OSM   H12F14991   1.995   1.326   5.194
  137OSM   H12G14992   1.836   1.320   5.115
  137OSM   C13F14993   2.015   1.264   4.988
  137OSM   H13F14994   2.101   1.195   5.000
  137OSM   H13G14995   2.063   1.364   4.984
  137OSM   C14F14996   1.935   1.226   4.861
  137OSM   H14F14997   1.843   1.288   4.854
  137OSM   H14G14998   1.898   1.121   4.862
  137OSM   C15F14999   2.020   1.244   4.728
  137OSM   H15F15000   2.113   1.185   4.746
  137OSM   H15G15001   2.046   1.352   4.721
  137OSM   C16F15002   1.956   1.202   4.600
  137OSM   H16F15003   2.000   1.237   4.503
  137OSM   H16G15004   1.866   1.267   4.609
  137OSM   C17F15005   1.933   1.051   4.598
  137OSM   H17F15006   1.880   1.030   4.502
  137OSM   H17G15007   1.856   1.027   4.675
  137OSM   C18F15008   2.054   0.954   4.589
  137OSM   H18F15009   2.127   0.981   4.669
  137OSM   H18G15010   2.116   0.957   4.497
  137OSM   H18H15011   2.016   0.850   4.594
  138OSM      N15012   4.781   0.101   6.697
  138OSM    C1515013   4.843   0.091   6.834
  138OSM   H15A15014   4.882  -0.009   6.844
  138OSM   H15B15015   4.772   0.109   6.914
  138OSM   H15C15016   4.923   0.163   6.843
  138OSM    C1415017   4.884   0.096   6.594
  138OSM   H14A15018   4.936   0.189   6.577
  138OSM   H14B15019   4.851   0.069   6.495
  138OSM   H14C15020   4.957   0.022   6.627
  138OSM    C1315021   4.710  -0.037   6.679
  138OSM   H13A15022   4.635  -0.047   6.756
  138OSM   H13B15023   4.779  -0.120   6.684
  138OSM   H13C15024   4.663  -0.031   6.582
  138OSM    C1215025   4.691   0.213   6.685
  138OSM   H12A15026   4.606   0.205   6.751
  138OSM   H12B15027   4.649   0.217   6.586
  138OSM    C1115028   4.748   0.361   6.706
  138OSM   H11A15029   4.773   0.382   6.812
  138OSM   H11B15030   4.662   0.429   6.686
  138OSM      P15031   4.860   0.406   6.470
  138OSM    O1315032   4.862   0.549   6.439
  138OSM    O1415033   4.975   0.337   6.411
  138OSM    O1115034   4.723   0.340   6.438
  138OSM    O1215035   4.861   0.389   6.629
  138OSM    C1S15036   4.620   0.405   6.364
  138OSM    H1S15037   4.611   0.513   6.390
  138OSM    H1T15038   4.520   0.365   6.393
  138OSM     NF15039   4.529   0.467   6.141
  138OSM    HNF15040   4.475   0.417   6.073
  138OSM    C2S15041   4.634   0.390   6.212
  138OSM    H2S15042   4.730   0.441   6.189
  138OSM    C3S15043   4.639   0.237   6.177
  138OSM    H3S15044   4.533   0.210   6.157
  138OSM     O315045   4.679   0.147   6.278
  138OSM    HO315046   4.709   0.205   6.348
  138OSM    C4S15047   4.712   0.206   6.048
  138OSM    H4S15048   4.653   0.173   5.960
  138OSM    C5S15049   4.844   0.194   6.040
  138OSM    H5S15050   4.908   0.206   6.128
  138OSM    C6S15051   4.918   0.158   5.909
  138OSM    H6S15052   4.975   0.062   5.918
  138OSM    H6T15053   5.001   0.230   5.892
  138OSM    C7S15054   4.847   0.147   5.767
  138OSM    H7S15055   4.785   0.239   5.767
  138OSM    H7T15056   4.776   0.061   5.767
  138OSM    C8S15057   4.949   0.136   5.653
  138OSM    H8S15058   5.017   0.051   5.677
  138OSM    H8T15059   4.999   0.235   5.661
  138OSM    C9S15060   4.900   0.122   5.508
  138OSM    H9S15061   4.874   0.021   5.469
  138OSM    H9T15062   4.982   0.160   5.445
  138OSM   C10S15063   4.768   0.195   5.493
  138OSM   H10S15064   4.789   0.301   5.518
  138OSM   H10T15065   4.695   0.152   5.566
  138OSM   C11S15066   4.707   0.207   5.358
  138OSM   H11S15067   4.688   0.108   5.313
  138OSM   H11T15068   4.779   0.259   5.291
  138OSM   C12S15069   4.582   0.293   5.366
  138OSM   H12S15070   4.624   0.390   5.400
  138OSM   H12T15071   4.513   0.253   5.443
  138OSM   C13S15072   4.523   0.323   5.229
  138OSM   H13S15073   4.603   0.362   5.162
  138OSM   H13T15074   4.444   0.401   5.236
  138OSM   C14S15075   4.464   0.200   5.164
  138OSM   H14S15076   4.385   0.154   5.227
  138OSM   H14T15077   4.542   0.123   5.148
  138OSM   C15S15078   4.400   0.234   5.022
  138OSM   H15S15079   4.360   0.337   5.031
  138OSM   H15T15080   4.319   0.165   4.989
  138OSM   C16S15081   4.508   0.229   4.913
  138OSM   H16S15082   4.532   0.124   4.887
  138OSM   H16T15083   4.598   0.283   4.950
  138OSM   C17S15084   4.463   0.307   4.791
  138OSM   H17S15085   4.472   0.409   4.833
  138OSM   H17T15086   4.357   0.277   4.775
  138OSM   C18S15087   4.554   0.281   4.671
  138OSM   H18S15088   4.659   0.287   4.708
  138OSM   H18T15089   4.528   0.351   4.589
  138OSM   H18U15090   4.542   0.177   4.634
  138OSM    C1F15091   4.517   0.597   6.150
  138OSM     OF15092   4.595   0.666   6.216
  138OSM    C2F15093   4.417   0.665   6.059
  138OSM    H2F15094   4.317   0.681   6.105
  138OSM    H2G15095   4.397   0.599   5.972
  138OSM    C3F15096   4.470   0.802   6.009
  138OSM    H3F15097   4.567   0.785   5.957
  138OSM    H3G15098   4.492   0.872   6.093
  138OSM    C4F15099   4.379   0.869   5.901
  138OSM    H4F15100   4.286   0.893   5.958
  138OSM    H4G15101   4.349   0.800   5.819
  138OSM    C5F15102   4.439   1.001   5.852
  138OSM    H5F15103   4.547   0.982   5.836
  138OSM    H5G15104   4.436   1.071   5.938
  138OSM    C6F15105   4.367   1.068   5.732
  138OSM    H6F15106   4.270   1.116   5.756
  138OSM    H6G15107   4.359   0.996   5.647
  138OSM    C7F15108   4.459   1.184   5.672
  138OSM    H7F15109   4.559   1.138   5.655
  138OSM    H7G15110   4.456   1.261   5.751
  138OSM    C8F15111   4.401   1.249   5.549
  138OSM    H8F15112   4.309   1.305   5.577
  138OSM    H8G15113   4.359   1.168   5.485
  138OSM    C9F15114   4.491   1.347   5.484
  138OSM    H9F15115   4.581   1.369   5.544
  138OSM   C10F15116   4.468   1.394   5.363
  138OSM   H10F15117   4.519   1.486   5.328
  138OSM   C11F15118   4.350   1.354   5.280
  138OSM   H11F15119   4.277   1.438   5.281
  138OSM   H11G15120   4.291   1.273   5.327
  138OSM   C12F15121   4.373   1.346   5.130
  138OSM   H12F15122   4.278   1.318   5.079
  138OSM   H12G15123   4.437   1.256   5.112
  138OSM   C13F15124   4.422   1.474   5.059
  138OSM   H13F15125   4.513   1.506   5.113
  138OSM   H13G15126   4.354   1.562   5.064
  138OSM   C14F15127   4.455   1.468   4.913
  138OSM   H14F15128   4.362   1.430   4.864
  138OSM   H14G15129   4.526   1.387   4.888
  138OSM   C15F15130   4.500   1.607   4.856
  138OSM   H15F15131   4.571   1.658   4.925
  138OSM   H15G15132   4.405   1.665   4.853
  138OSM   C16F15133   4.560   1.601   4.714
  138OSM   H16F15134   4.567   1.700   4.663
  138OSM   H16G15135   4.508   1.527   4.650
  138OSM   C17F15136   4.707   1.549   4.733
  138OSM   H17F15137   4.706   1.480   4.820
  138OSM   H17G15138   4.791   1.620   4.749
  138OSM   C18F15139   4.750   1.458   4.620
  138OSM   H18F15140   4.858   1.435   4.633
  138OSM   H18G15141   4.729   1.504   4.521
  138OSM   H18H15142   4.695   1.362   4.634
  139OSM      N15143   0.486   3.701   7.102
  139OSM    C1515144   0.382   3.807   7.109
  139OSM   H15A15145   0.381   3.834   7.213
  139OSM   H15B15146   0.287   3.776   7.069
  139OSM   H15C15147   0.419   3.885   7.044
  139OSM    C1415148   0.617   3.756   7.133
  139OSM   H14A15149   0.640   3.843   7.074
  139OSM   H14B15150   0.700   3.687   7.142
  139OSM   H14C15151   0.605   3.806   7.228
  139OSM    C1315152   0.455   3.594   7.197
  139OSM   H13A15153   0.446   3.641   7.294
  139OSM   H13B15154   0.534   3.520   7.187
  139OSM   H13C15155   0.361   3.545   7.177
  139OSM    C1215156   0.492   3.646   6.954
  139OSM   H12A15157   0.565   3.567   6.954
  139OSM   H12B15158   0.527   3.727   6.892
  139OSM    C1115159   0.363   3.593   6.891
  139OSM   H11A15160   0.372   3.590   6.781
  139OSM   H11B15161   0.269   3.651   6.908
  139OSM      P15162   0.400   3.341   6.923
  139OSM    O1315163   0.537   3.375   6.960
  139OSM    O1415164   0.329   3.248   7.011
  139OSM    O1115165   0.403   3.304   6.767
  139OSM    O1215166   0.318   3.469   6.940
  139OSM    C1S15167   0.273   3.289   6.700
  139OSM    H1S15168   0.189   3.343   6.749
  139OSM    H1T15169   0.255   3.180   6.702
  139OSM     NF15170   0.155   3.344   6.477
  139OSM    HNF15171   0.136   3.273   6.409
  139OSM    C2S15172   0.284   3.340   6.553
  139OSM    H2S15173   0.323   3.444   6.558
  139OSM    C3S15174   0.393   3.257   6.478
  139OSM    H3S15175   0.332   3.166   6.461
  139OSM     O315176   0.507   3.218   6.553
  139OSM    HO315177   0.493   3.251   6.642
  139OSM    C4S15178   0.446   3.320   6.355
  139OSM    H4S15179   0.475   3.424   6.376
  139OSM    C5S15180   0.459   3.267   6.233
  139OSM    H5S15181   0.426   3.164   6.209
  139OSM    C6S15182   0.536   3.334   6.128
  139OSM    H6S15183   0.564   3.438   6.158
  139OSM    H6T15184   0.469   3.334   6.039
  139OSM    C7S15185   0.659   3.254   6.098
  139OSM    H7S15186   0.648   3.144   6.092
  139OSM    H7T15187   0.725   3.262   6.187
  139OSM    C8S15188   0.734   3.286   5.970
  139OSM    H8S15189   0.737   3.397   5.973
  139OSM    H8T15190   0.667   3.257   5.886
  139OSM    C9S15191   0.874   3.221   5.960
  139OSM    H9S15192   0.878   3.127   6.020
  139OSM    H9T15193   0.949   3.285   6.013
  139OSM   C10S15194   0.928   3.204   5.813
  139OSM   H10S15195   1.038   3.212   5.820
  139OSM   H10T15196   0.910   3.301   5.760
  139OSM   C11S15197   0.892   3.077   5.755
  139OSM   H11S15198   0.781   3.072   5.751
  139OSM   H11T15199   0.928   3.002   5.828
  139OSM   C12S15200   0.937   3.054   5.617
  139OSM   H12S15201   1.048   3.049   5.611
  139OSM   H12T15202   0.904   3.146   5.564
  139OSM   C13S15203   0.877   2.930   5.552
  139OSM   H13S15204   0.766   2.923   5.562
  139OSM   H13T15205   0.899   2.838   5.609
  139OSM   C14S15206   0.907   2.906   5.398
  139OSM   H14S15207   0.838   2.823   5.375
  139OSM   H14T15208   1.009   2.864   5.382
  139OSM   C15S15209   0.887   3.036   5.318
  139OSM   H15S15210   0.985   3.088   5.326
  139OSM   H15T15211   0.802   3.082   5.373
  139OSM   C16S15212   0.865   3.015   5.163
  139OSM   H16S15213   0.963   2.986   5.118
  139OSM   H16T15214   0.849   3.113   5.112
  139OSM   C17S15215   0.749   2.917   5.124
  139OSM   H17S15216   0.653   2.952   5.170
  139OSM   H17T15217   0.761   2.818   5.173
  139OSM   C18S15218   0.728   2.907   4.971
  139OSM   H18S15219   0.823   2.876   4.923
  139OSM   H18T15220   0.705   3.000   4.915
  139OSM   H18U15221   0.646   2.836   4.948
  139OSM    C1F15222   0.050   3.420   6.511
  139OSM     OF15223   0.056   3.492   6.609
  139OSM    C2F15224  -0.073   3.412   6.420
  139OSM    H2F15225  -0.104   3.305   6.416
  139OSM    H2G15226  -0.048   3.443   6.317
  139OSM    C3F15227  -0.200   3.476   6.479
  139OSM    H3F15228  -0.172   3.578   6.512
  139OSM    H3G15229  -0.236   3.423   6.570
  139OSM    C4F15230  -0.326   3.493   6.385
  139OSM    H4F15231  -0.412   3.538   6.440
  139OSM    H4G15232  -0.357   3.389   6.360
  139OSM    C5F15233  -0.292   3.566   6.251
  139OSM    H5F15234  -0.384   3.565   6.188
  139OSM    H5G15235  -0.215   3.499   6.207
  139OSM    C6F15236  -0.248   3.713   6.265
  139OSM    H6F15237  -0.140   3.721   6.288
  139OSM    H6G15238  -0.307   3.765   6.344
  139OSM    C7F15239  -0.268   3.798   6.143
  139OSM    H7F15240  -0.250   3.904   6.171
  139OSM    H7G15241  -0.374   3.785   6.112
  139OSM    C8F15242  -0.170   3.762   6.033
  139OSM    H8F15243  -0.172   3.652   6.020
  139OSM    H8G15244  -0.068   3.779   6.074
  139OSM    C9F15245  -0.187   3.855   5.911
  139OSM    H9F15246  -0.200   3.962   5.937
  139OSM   C10F15247  -0.194   3.829   5.781
  139OSM   H10F15248  -0.200   3.904   5.701
  139OSM   C11F15249  -0.170   3.689   5.730
  139OSM   H11F15250  -0.265   3.636   5.706
  139OSM   H11G15251  -0.114   3.631   5.807
  139OSM   C12F15252  -0.077   3.679   5.611
  139OSM   H12F15253  -0.052   3.571   5.606
  139OSM   H12G15254   0.017   3.736   5.627
  139OSM   C13F15255  -0.129   3.730   5.475
  139OSM   H13F15256  -0.159   3.835   5.497
  139OSM   H13G15257  -0.218   3.668   5.451
  139OSM   C14F15258  -0.019   3.715   5.370
  139OSM   H14F15259   0.071   3.770   5.404
  139OSM   H14G15260  -0.063   3.764   5.281
  139OSM   C15F15261   0.034   3.569   5.336
  139OSM   H15F15262  -0.054   3.504   5.320
  139OSM   H15G15263   0.085   3.537   5.429
  139OSM   C16F15264   0.115   3.562   5.206
  139OSM   H16F15265   0.050   3.599   5.125
  139OSM   H16G15266   0.133   3.457   5.175
  139OSM   C17F15267   0.243   3.647   5.209
  139OSM   H17F15268   0.279   3.635   5.313
  139OSM   H17G15269   0.215   3.754   5.212
  139OSM   C18F15270   0.338   3.607   5.090
  139OSM   H18F15271   0.287   3.632   4.995
  139OSM   H18G15272   0.367   3.499   5.091
  139OSM   H18H15273   0.427   3.673   5.089
  140OSM      N15274   0.967   1.891   6.905
  140OSM    C1515275   0.957   1.783   7.002
  140OSM   H15A15276   1.019   1.699   6.974
  140OSM   H15B15277   0.858   1.739   7.002
  140OSM   H15C15278   0.992   1.821   7.096
  140OSM    C1415279   0.862   1.996   6.926
  140OSM   H14A15280   0.767   1.955   6.956
  140OSM   H14B15281   0.862   2.065   6.843
  140OSM   H14C15282   0.885   2.056   7.012
  140OSM    C1315283   1.090   1.972   6.913
  140OSM   H13A15284   1.093   2.007   7.015
  140OSM   H13B15285   1.094   2.055   6.843
  140OSM   H13C15286   1.170   1.901   6.896
  140OSM    C1215287   0.958   1.832   6.767
  140OSM   H12A15288   0.941   1.914   6.699
  140OSM   H12B15289   0.869   1.772   6.768
  140OSM    C1115290   1.084   1.749   6.727
  140OSM   H11A15291   1.177   1.804   6.752
  140OSM   H11B15292   1.078   1.731   6.617
  140OSM      P15293   1.176   1.498   6.762
  140OSM    O1315294   1.319   1.508   6.802
  140OSM    O1415295   1.103   1.393   6.831
  140OSM    O1115296   1.175   1.486   6.610
  140OSM    O1215297   1.087   1.629   6.800
  140OSM    C1S15298   1.153   1.356   6.550
  140OSM    H1S15299   1.051   1.321   6.577
  140OSM    H1T15300   1.240   1.294   6.579
  140OSM     NF15301   1.110   1.232   6.347
  140OSM    HNF15302   1.167   1.171   6.293
  140OSM    C2S15303   1.147   1.360   6.396
  140OSM    H2S15304   1.059   1.424   6.374
  140OSM    C3S15305   1.267   1.431   6.333
  140OSM    H3S15306   1.351   1.358   6.333
  140OSM     O315307   1.303   1.545   6.396
  140OSM    HO315308   1.259   1.542   6.482
  140OSM    C4S15309   1.247   1.463   6.195
  140OSM    H4S15310   1.310   1.398   6.134
  140OSM    C5S15311   1.156   1.542   6.136
  140OSM    H5S15312   1.077   1.592   6.195
  140OSM    C6S15313   1.146   1.546   5.984
  140OSM    H6S15314   1.226   1.497   5.924
  140OSM    H6T15315   1.153   1.652   5.950
  140OSM    C7S15316   1.018   1.479   5.927
  140OSM    H7S15317   0.933   1.537   5.969
  140OSM    H7T15318   1.009   1.375   5.964
  140OSM    C8S15319   1.015   1.476   5.773
  140OSM    H8S15320   0.911   1.442   5.752
  140OSM    H8T15321   1.092   1.404   5.737
  140OSM    C9S15322   1.016   1.616   5.704
  140OSM    H9S15323   1.118   1.654   5.681
  140OSM    H9T15324   0.957   1.685   5.768
  140OSM   C10S15325   0.938   1.621   5.572
  140OSM   H10S15326   0.834   1.580   5.575
  140OSM   H10T15327   0.979   1.541   5.506
  140OSM   C11S15328   0.929   1.757   5.503
  140OSM   H11S15329   1.029   1.800   5.480
  140OSM   H11T15330   0.867   1.827   5.564
  140OSM   C12S15331   0.846   1.735   5.377
  140OSM   H12S15332   0.740   1.724   5.408
  140OSM   H12T15333   0.877   1.634   5.343
  140OSM   C13S15334   0.864   1.838   5.265
  140OSM   H13S15335   0.970   1.831   5.233
  140OSM   H13T15336   0.857   1.943   5.300
  140OSM   C14S15337   0.777   1.815   5.137
  140OSM   H14S15338   0.672   1.834   5.166
  140OSM   H14T15339   0.782   1.707   5.109
  140OSM   C15S15340   0.831   1.889   5.013
  140OSM   H15S15341   0.936   1.858   4.999
  140OSM   H15T15342   0.832   1.999   5.027
  140OSM   C16S15343   0.760   1.849   4.886
  140OSM   H16S15344   0.654   1.822   4.909
  140OSM   H16T15345   0.802   1.763   4.830
  140OSM   C17S15346   0.744   1.959   4.780
  140OSM   H17S15347   0.844   1.995   4.750
  140OSM   H17T15348   0.692   2.041   4.833
  140OSM   C18S15349   0.666   1.925   4.646
  140OSM   H18S15350   0.565   1.892   4.679
  140OSM   H18T15351   0.724   1.854   4.584
  140OSM   H18U15352   0.661   2.012   4.577
  140OSM    C1F15353   0.988   1.193   6.375
  140OSM     OF15354   0.905   1.273   6.413
  140OSM    C2F15355   0.952   1.051   6.349
  140OSM    H2F15356   0.876   1.028   6.427
  140OSM    H2G15357   1.041   0.987   6.364
  140OSM    C3F15358   0.889   1.034   6.214
  140OSM    H3F15359   0.809   1.107   6.193
  140OSM    H3G15360   0.834   0.937   6.216
  140OSM    C4F15361   0.991   1.039   6.093
  140OSM    H4F15362   1.051   0.946   6.098
  140OSM    H4G15363   1.064   1.123   6.103
  140OSM    C5F15364   0.923   1.049   5.954
  140OSM    H5F15365   0.874   1.149   5.956
  140OSM    H5G15366   0.847   0.970   5.941
  140OSM    C6F15367   1.027   1.033   5.843
  140OSM    H6F15368   1.096   0.953   5.878
  140OSM    H6G15369   1.082   1.130   5.844
  140OSM    C7F15370   0.971   1.017   5.700
  140OSM    H7F15371   0.916   1.112   5.685
  140OSM    H7G15372   0.905   0.928   5.691
  140OSM    C8F15373   1.084   1.003   5.599
  140OSM    H8F15374   1.033   0.974   5.504
  140OSM    H8G15375   1.150   0.914   5.609
  140OSM    C9F15376   1.171   1.121   5.586
  140OSM    H9F15377   1.247   1.146   5.661
  140OSM   C10F15378   1.151   1.221   5.497
  140OSM   H10F15379   1.241   1.285   5.497
  140OSM   C11F15380   1.047   1.235   5.388
  140OSM   H11F15381   1.001   1.336   5.400
  140OSM   H11G15382   0.960   1.168   5.405
  140OSM   C12F15383   1.110   1.210   5.244
  140OSM   H12F15384   1.134   1.102   5.236
  140OSM   H12G15385   1.206   1.265   5.236
  140OSM   C13F15386   1.015   1.256   5.133
  140OSM   H13F15387   1.011   1.367   5.137
  140OSM   H13G15388   0.911   1.218   5.146
  140OSM   C14F15389   1.055   1.199   4.999
  140OSM   H14F15390   1.049   1.088   5.000
  140OSM   H14G15391   1.160   1.231   4.980
  140OSM   C15F15392   0.965   1.244   4.889
  140OSM   H15F15393   0.958   1.355   4.888
  140OSM   H15G15394   0.861   1.207   4.894
  140OSM   C16F15395   1.011   1.209   4.746
  140OSM   H16F15396   1.027   1.099   4.740
  140OSM   H16G15397   1.112   1.253   4.726
  140OSM   C17F15398   0.924   1.264   4.631
  140OSM   H17F15399   0.911   1.373   4.650
  140OSM   H17G15400   0.821   1.223   4.641
  140OSM   C18F15401   0.983   1.238   4.490
  140OSM   H18F15402   0.998   1.128   4.484
  140OSM   H18G15403   1.073   1.302   4.482
  140OSM   H18H15404   0.910   1.269   4.413
  141OSM      N15405   0.588   0.616   6.760
  141OSM    C1515406   0.498   0.619   6.637
  141OSM   H15A15407   0.472   0.524   6.593
  141OSM   H15B15408   0.550   0.665   6.555
  141OSM   H15C15409   0.408   0.674   6.660
  141OSM    C1415410   0.516   0.534   6.862
  141OSM   H14A15411   0.429   0.581   6.906
  141OSM   H14B15412   0.580   0.497   6.940
  141OSM   H14C15413   0.472   0.443   6.822
  141OSM    C1315414   0.706   0.525   6.729
  141OSM   H13A15415   0.777   0.534   6.809
  141OSM   H13B15416   0.746   0.564   6.636
  141OSM   H13C15417   0.686   0.419   6.715
  141OSM    C1215418   0.635   0.750   6.806
  141OSM   H12A15419   0.710   0.741   6.883
  141OSM   H12B15420   0.552   0.801   6.853
  141OSM    C1115421   0.694   0.862   6.710
  141OSM   H11A15422   0.781   0.820   6.656
  141OSM   H11B15423   0.727   0.950   6.768
  141OSM      P15424   0.493   1.001   6.658
  141OSM    O1315425   0.359   0.957   6.628
  141OSM    O1415426   0.515   1.038   6.802
  141OSM    O1115427   0.521   1.130   6.573
  141OSM    O1215428   0.596   0.893   6.614
  141OSM    C1S15429   0.572   1.121   6.436
  141OSM    H1S15430   0.632   1.028   6.421
  141OSM    H1T15431   0.645   1.203   6.419
  141OSM     NF15432   0.483   1.102   6.207
  141OSM    HNF15433   0.485   1.182   6.147
  141OSM    C2S15434   0.454   1.132   6.340
  141OSM    H2S15435   0.378   1.060   6.377
  141OSM    C3S15436   0.391   1.276   6.349
  141OSM    H3S15437   0.476   1.348   6.342
  141OSM     O315438   0.339   1.312   6.482
  141OSM    HO315439   0.353   1.231   6.532
  141OSM    C4S15440   0.298   1.316   6.237
  141OSM    H4S15441   0.351   1.375   6.161
  141OSM    C5S15442   0.163   1.297   6.231
  141OSM    H5S15443   0.114   1.244   6.314
  141OSM    C6S15444   0.061   1.343   6.130
  141OSM    H6S15445  -0.018   1.405   6.178
  141OSM    H6T15446  -0.002   1.258   6.096
  141OSM    C7S15447   0.122   1.414   6.006
  141OSM    H7S15448   0.197   1.341   5.969
  141OSM    H7T15449   0.170   1.506   6.044
  141OSM    C8S15450   0.010   1.433   5.906
  141OSM    H8S15451  -0.048   1.522   5.939
  141OSM    H8T15452  -0.051   1.340   5.910
  141OSM    C9S15453   0.057   1.454   5.765
  141OSM    H9S15454   0.146   1.388   5.753
  141OSM    H9T15455   0.099   1.556   5.761
  141OSM   C10S15456  -0.040   1.445   5.654
  141OSM   H10S15457  -0.115   1.525   5.670
  141OSM   H10T15458  -0.104   1.354   5.654
  141OSM   C11S15459   0.027   1.461   5.517
  141OSM   H11S15460   0.108   1.388   5.495
  141OSM   H11T15461   0.092   1.550   5.499
  141OSM   C12S15462  -0.085   1.435   5.412
  141OSM   H12S15463  -0.143   1.529   5.424
  141OSM   H12T15464  -0.147   1.346   5.437
  141OSM   C13S15465  -0.036   1.441   5.268
  141OSM   H13S15466   0.002   1.341   5.240
  141OSM   H13T15467   0.031   1.529   5.255
  141OSM   C14S15468  -0.141   1.461   5.157
  141OSM   H14S15469  -0.162   1.570   5.147
  141OSM   H14T15470  -0.232   1.413   5.197
  141OSM   C15S15471  -0.101   1.408   5.015
  141OSM   H15S15472  -0.087   1.298   5.013
  141OSM   H15T15473   0.002   1.446   4.999
  141OSM   C16S15474  -0.199   1.447   4.894
  141OSM   H16S15475  -0.152   1.402   4.804
  141OSM   H16T15476  -0.217   1.557   4.891
  141OSM   C17S15477  -0.337   1.390   4.924
  141OSM   H17S15478  -0.387   1.406   5.021
  141OSM   H17T15479  -0.322   1.280   4.929
  141OSM   C18S15480  -0.435   1.394   4.808
  141OSM   H18S15481  -0.448   1.500   4.778
  141OSM   H18T15482  -0.529   1.341   4.836
  141OSM   H18U15483  -0.398   1.338   4.720
  141OSM    C1F15484   0.502   0.975   6.168
  141OSM     OF15485   0.487   0.878   6.239
  141OSM    C2F15486   0.545   0.956   6.023
  141OSM    H2F15487   0.649   0.995   6.014
  141OSM    H2G15488   0.484   1.014   5.951
  141OSM    C3F15489   0.549   0.807   5.998
  141OSM    H3F15490   0.448   0.767   6.022
  141OSM    H3G15491   0.622   0.754   6.063
  141OSM    C4F15492   0.594   0.775   5.852
  141OSM    H4F15493   0.591   0.665   5.837
  141OSM    H4G15494   0.702   0.795   5.838
  141OSM    C5F15495   0.504   0.839   5.739
  141OSM    H5F15496   0.481   0.946   5.757
  141OSM    H5G15497   0.409   0.781   5.726
  141OSM    C6F15498   0.580   0.847   5.603
  141OSM    H6F15499   0.680   0.895   5.614
  141OSM    H6G15500   0.521   0.911   5.535
  141OSM    C7F15501   0.608   0.714   5.542
  141OSM    H7F15502   0.520   0.652   5.567
  141OSM    H7G15503   0.685   0.651   5.591
  141OSM    C8F15504   0.625   0.732   5.394
  141OSM    H8F15505   0.541   0.800   5.365
  141OSM    H8G15506   0.614   0.635   5.342
  141OSM    C9F15507   0.756   0.792   5.370
  141OSM    H9F15508   0.846   0.745   5.412
  141OSM   C10F15509   0.783   0.910   5.309
  141OSM   H10F15510   0.890   0.931   5.304
  141OSM   C11F15511   0.686   1.011   5.258
  141OSM   H11F15512   0.719   1.113   5.286
  141OSM   H11G15513   0.585   1.000   5.303
  141OSM   C12F15514   0.681   1.012   5.105
  141OSM   H12F15515   0.778   0.987   5.056
  141OSM   H12G15516   0.665   1.120   5.084
  141OSM   C13F15517   0.581   0.915   5.048
  141OSM   H13F15518   0.478   0.948   5.075
  141OSM   H13G15519   0.591   0.818   5.100
  141OSM   C14F15520   0.596   0.903   4.904
  141OSM   H14F15521   0.528   0.820   4.876
  141OSM   H14G15522   0.700   0.877   4.873
  141OSM   C15F15523   0.549   1.032   4.833
  141OSM   H15F15524   0.612   1.124   4.843
  141OSM   H15G15525   0.443   1.056   4.854
  141OSM   C16F15526   0.551   1.012   4.677
  141OSM   H16F15527   0.502   0.916   4.653
  141OSM   H16G15528   0.659   1.011   4.649
  141OSM   C17F15529   0.473   1.119   4.609
  141OSM   H17F15530   0.498   1.221   4.645
  141OSM   H17G15531   0.364   1.102   4.623
  141OSM   C18F15532   0.489   1.115   4.456
  141OSM   H18F15533   0.461   1.013   4.422
  141OSM   H18G15534   0.595   1.129   4.426
  141OSM   H18H15535   0.418   1.182   4.403
  142OSM      N15536   0.111   6.733   7.085
  142OSM    C1515537   0.149   6.764   7.230
  142OSM   H15A15538   0.056   6.788   7.281
  142OSM   H15B15539   0.226   6.840   7.230
  142OSM   H15C15540   0.194   6.678   7.277
  142OSM    C1415541   0.021   6.611   7.096
  142OSM   H14A15542   0.071   6.543   7.163
  142OSM   H14B15543   0.014   6.550   7.007
  142OSM   H14C15544  -0.079   6.634   7.130
  142OSM    C1315545   0.030   6.847   7.030
  142OSM   H13A15546   0.029   6.839   6.923
  142OSM   H13B15547   0.072   6.941   7.061
  142OSM   H13C15548  -0.068   6.835   7.074
  142OSM    C1215549   0.244   6.707   7.020
  142OSM   H12A15550   0.296   6.629   7.073
  142OSM   H12B15551   0.295   6.802   7.031
  142OSM    C1115552   0.249   6.675   6.863
  142OSM   H11A15553   0.194   6.580   6.844
  142OSM   H11B15554   0.346   6.647   6.816
  142OSM      P15555   0.234   6.910   6.745
  142OSM    O1315556   0.128   7.015   6.731
  142OSM    O1415557   0.337   6.940   6.841
  142OSM    O1115558   0.298   6.899   6.604
  142OSM    O1215559   0.174   6.767   6.776
  142OSM    C1S15560   0.415   6.841   6.567
  142OSM    H1S15561   0.400   6.732   6.549
  142OSM    H1T15562   0.497   6.850   6.641
  142OSM     NF15563   0.583   6.807   6.386
  142OSM    HNF15564   0.671   6.836   6.423
  142OSM    C2S15565   0.468   6.894   6.434
  142OSM    H2S15566   0.374   6.874   6.378
  142OSM    C3S15567   0.505   7.051   6.448
  142OSM    H3S15568   0.580   7.057   6.529
  142OSM     O315569   0.399   7.136   6.496
  142OSM    HO315570   0.344   7.074   6.543
  142OSM    C4S15571   0.560   7.086   6.317
  142OSM    H4S15572   0.507   7.054   6.226
  142OSM    C5S15573   0.676   7.149   6.306
  142OSM    H5S15574   0.730   7.182   6.396
  142OSM    C6S15575   0.743   7.187   6.172
  142OSM    H6S15576   0.845   7.144   6.180
  142OSM    H6T15577   0.754   7.296   6.159
  142OSM    C7S15578   0.667   7.139   6.039
  142OSM    H7S15579   0.564   7.179   6.033
  142OSM    H7T15580   0.670   7.028   6.041
  142OSM    C8S15581   0.759   7.182   5.921
  142OSM    H8S15582   0.857   7.139   5.950
  142OSM    H8T15583   0.777   7.292   5.923
  142OSM    C9S15584   0.723   7.141   5.785
  142OSM    H9S15585   0.634   7.200   5.753
  142OSM    H9T15586   0.697   7.034   5.775
  142OSM   C10S15587   0.828   7.174   5.676
  142OSM   H10S15588   0.912   7.115   5.719
  142OSM   H10T15589   0.861   7.280   5.679
  142OSM   C11S15590   0.772   7.138   5.532
  142OSM   H11S15591   0.680   7.200   5.525
  142OSM   H11T15592   0.748   7.030   5.523
  142OSM   C12S15593   0.865   7.191   5.415
  142OSM   H12S15594   0.968   7.149   5.424
  142OSM   H12T15595   0.863   7.302   5.410
  142OSM   C13S15596   0.812   7.132   5.278
  142OSM   H13S15597   0.702   7.144   5.288
  142OSM   H13T15598   0.845   7.031   5.247
  142OSM   C14S15599   0.871   7.239   5.180
  142OSM   H14S15600   0.982   7.251   5.182
  142OSM   H14T15601   0.823   7.338   5.194
  142OSM   C15S15602   0.840   7.205   5.038
  142OSM   H15S15603   0.730   7.199   5.030
  142OSM   H15T15604   0.880   7.105   5.011
  142OSM   C16S15605   0.900   7.306   4.936
  142OSM   H16S15606   1.010   7.320   4.936
  142OSM   H16T15607   0.857   7.406   4.959
  142OSM   C17S15608   0.864   7.269   4.792
  142OSM   H17S15609   0.757   7.240   4.805
  142OSM   H17T15610   0.920   7.178   4.761
  142OSM   C18S15611   0.884   7.378   4.687
  142OSM   H18S15612   0.807   7.458   4.679
  142OSM   H18T15613   0.893   7.327   4.589
  142OSM   H18U15614   0.980   7.433   4.695
  142OSM    C1F15615   0.574   6.685   6.331
  142OSM     OF15616   0.469   6.622   6.346
  142OSM    C2F15617   0.689   6.627   6.254
  142OSM    H2F15618   0.701   6.522   6.289
  142OSM    H2G15619   0.781   6.684   6.280
  142OSM    C3F15620   0.678   6.626   6.099
  142OSM    H3F15621   0.585   6.576   6.063
  142OSM    H3G15622   0.768   6.569   6.070
  142OSM    C4F15623   0.687   6.758   6.029
  142OSM    H4F15624   0.775   6.817   6.061
  142OSM    H4G15625   0.605   6.828   6.058
  142OSM    C5F15626   0.719   6.765   5.872
  142OSM    H5F15627   0.758   6.866   5.848
  142OSM    H5G15628   0.622   6.757   5.818
  142OSM    C6F15629   0.818   6.657   5.820
  142OSM    H6F15630   0.759   6.563   5.812
  142OSM    H6G15631   0.907   6.624   5.879
  142OSM    C7F15632   0.872   6.691   5.671
  142OSM    H7F15633   0.961   6.627   5.650
  142OSM    H7G15634   0.909   6.795   5.686
  142OSM    C8F15635   0.758   6.678   5.572
  142OSM    H8F15636   0.686   6.757   5.604
  142OSM    H8G15637   0.701   6.583   5.566
  142OSM    C9F15638   0.801   6.718   5.432
  142OSM    H9F15639   0.910   6.730   5.427
  142OSM   C10F15640   0.719   6.756   5.330
  142OSM   H10F15641   0.759   6.774   5.230
  142OSM   C11F15642   0.573   6.757   5.327
  142OSM   H11F15643   0.524   6.707   5.414
  142OSM   H11G15644   0.541   6.698   5.238
  142OSM   C12F15645   0.504   6.897   5.310
  142OSM   H12F15646   0.558   6.955   5.388
  142OSM   H12G15647   0.396   6.902   5.337
  142OSM   C13F15648   0.517   6.961   5.169
  142OSM   H13F15649   0.625   6.960   5.145
  142OSM   H13G15650   0.494   7.070   5.163
  142OSM   C14F15651   0.436   6.881   5.066
  142OSM   H14F15652   0.334   6.862   5.103
  142OSM   H14G15653   0.480   6.780   5.049
  142OSM   C15F15654   0.420   6.949   4.932
  142OSM   H15F15655   0.520   6.968   4.886
  142OSM   H15G15656   0.372   7.048   4.943
  142OSM   C16F15657   0.345   6.861   4.830
  142OSM   H16F15658   0.241   6.836   4.858
  142OSM   H16G15659   0.389   6.762   4.805
  142OSM   C17F15660   0.332   6.934   4.701
  142OSM   H17F15661   0.437   6.956   4.669
  142OSM   H17G15662   0.277   7.026   4.731
  142OSM   C18F15663   0.253   6.864   4.591
  142OSM   H18F15664   0.149   6.843   4.622
  142OSM   H18G15665   0.306   6.767   4.584
  142OSM   H18H15666   0.252   6.914   4.492
  143OSM      N15667   1.180   3.096   6.623
  143OSM    C1515668   1.219   3.174   6.503
  143OSM   H15A15669   1.317   3.137   6.477
  143OSM   H15B15670   1.223   3.280   6.521
  143OSM   H15C15671   1.149   3.149   6.424
  143OSM    C1415672   1.208   2.947   6.600
  143OSM   H14A15673   1.162   2.891   6.680
  143OSM   H14B15674   1.313   2.921   6.589
  143OSM   H14C15675   1.149   2.910   6.517
  143OSM    C1315676   1.260   3.146   6.732
  143OSM   H13A15677   1.231   3.247   6.756
  143OSM   H13B15678   1.366   3.144   6.711
  143OSM   H13C15679   1.230   3.094   6.821
  143OSM    C1215680   1.042   3.113   6.662
  143OSM   H12A15681   1.031   3.066   6.758
  143OSM   H12B15682   0.984   3.048   6.598
  143OSM    C1115683   0.984   3.252   6.664
  143OSM   H11A15684   0.883   3.234   6.706
  143OSM   H11B15685   0.981   3.296   6.562
  143OSM      P15686   1.029   3.477   6.798
  143OSM    O1315687   0.910   3.488   6.889
  143OSM    O1415688   1.156   3.530   6.846
  143OSM    O1115689   0.994   3.544   6.656
  143OSM    O1215690   1.049   3.326   6.763
  143OSM    C1S15691   1.086   3.634   6.591
  143OSM    H1S15692   1.183   3.581   6.574
  143OSM    H1T15693   1.101   3.730   6.644
  143OSM     NF15694   1.139   3.756   6.375
  143OSM    HNF15695   1.119   3.848   6.341
  143OSM    C2S15696   1.043   3.675   6.441
  143OSM    H2S15697   1.040   3.583   6.378
  143OSM    C3S15698   0.899   3.726   6.438
  143OSM    H3S15699   0.893   3.819   6.498
  143OSM     O315700   0.803   3.642   6.507
  143OSM    HO315701   0.860   3.579   6.551
  143OSM    C4S15702   0.853   3.755   6.292
  143OSM    H4S15703   0.849   3.861   6.264
  143OSM    C5S15704   0.828   3.660   6.194
  143OSM    H5S15705   0.832   3.554   6.225
  143OSM    C6S15706   0.773   3.689   6.055
  143OSM    H6S15707   0.670   3.649   6.050
  143OSM    H6T15708   0.828   3.627   5.982
  143OSM    C7S15709   0.784   3.834   6.016
  143OSM    H7S15710   0.894   3.849   6.014
  143OSM    H7T15711   0.733   3.902   6.087
  143OSM    C8S15712   0.719   3.862   5.883
  143OSM    H8S15713   0.765   3.793   5.809
  143OSM    H8T15714   0.738   3.966   5.848
  143OSM    C9S15715   0.571   3.843   5.864
  143OSM    H9S15716   0.521   3.881   5.957
  143OSM    H9T15717   0.545   3.735   5.861
  143OSM   C10S15718   0.500   3.921   5.745
  143OSM   H10S15719   0.563   4.012   5.741
  143OSM   H10T15720   0.395   3.940   5.777
  143OSM   C11S15721   0.518   3.835   5.621
  143OSM   H11S15722   0.447   3.750   5.632
  143OSM   H11T15723   0.619   3.788   5.615
  143OSM   C12S15724   0.475   3.903   5.485
  143OSM   H12S15725   0.493   3.836   5.398
  143OSM   H12T15726   0.548   3.985   5.467
  143OSM   C13S15727   0.332   3.960   5.457
  143OSM   H13S15728   0.292   4.022   5.540
  143OSM   H13T15729   0.271   3.869   5.438
  143OSM   C14S15730   0.336   4.070   5.348
  143OSM   H14S15731   0.228   4.086   5.326
  143OSM   H14T15732   0.388   4.029   5.258
  143OSM   C15S15733   0.399   4.204   5.391
  143OSM   H15S15734   0.505   4.190   5.421
  143OSM   H15T15735   0.333   4.227   5.478
  143OSM   C16S15736   0.402   4.318   5.287
  143OSM   H16S15737   0.302   4.315   5.239
  143OSM   H16T15738   0.472   4.274   5.212
  143OSM   C17S15739   0.441   4.455   5.343
  143OSM   H17S15740   0.545   4.449   5.382
  143OSM   H17T15741   0.376   4.476   5.431
  143OSM   C18S15742   0.412   4.566   5.242
  143OSM   H18S15743   0.483   4.547   5.158
  143OSM   H18T15744   0.430   4.666   5.286
  143OSM   H18U15745   0.309   4.552   5.204
  143OSM    C1F15746   1.260   3.707   6.342
  143OSM     OF15747   1.287   3.589   6.362
  143OSM    C2F15748   1.358   3.806   6.292
  143OSM    H2F15749   1.401   3.855   6.381
  143OSM    H2G15750   1.304   3.876   6.225
  143OSM    C3F15751   1.475   3.743   6.217
  143OSM    H3F15752   1.524   3.659   6.269
  143OSM    H3G15753   1.560   3.813   6.231
  143OSM    C4F15754   1.445   3.719   6.066
  143OSM    H4F15755   1.543   3.704   6.016
  143OSM    H4G15756   1.407   3.817   6.031
  143OSM    C5F15757   1.344   3.611   6.036
  143OSM    H5F15758   1.246   3.659   6.057
  143OSM    H5G15759   1.355   3.522   6.102
  143OSM    C6F15760   1.348   3.575   5.885
  143OSM    H6F15761   1.442   3.516   5.877
  143OSM    H6G15762   1.365   3.665   5.823
  143OSM    C7F15763   1.230   3.483   5.852
  143OSM    H7F15764   1.224   3.396   5.922
  143OSM    H7G15765   1.256   3.446   5.751
  143OSM    C8F15766   1.095   3.556   5.856
  143OSM    H8F15767   1.071   3.598   5.956
  143OSM    H8G15768   1.019   3.478   5.832
  143OSM    C9F15769   1.097   3.657   5.744
  143OSM    H9F15770   1.154   3.750   5.756
  143OSM   C10F15771   1.012   3.658   5.632
  143OSM   H10F15772   1.023   3.739   5.558
  143OSM   C11F15773   0.911   3.559   5.594
  143OSM   H11F15774   0.820   3.602   5.547
  143OSM   H11G15775   0.871   3.507   5.683
  143OSM   C12F15776   0.965   3.448   5.498
  143OSM   H12F15777   0.894   3.364   5.481
  143OSM   H12G15778   1.047   3.392   5.549
  143OSM   C13F15779   1.026   3.492   5.360
  143OSM   H13F15780   1.097   3.576   5.376
  143OSM   H13G15781   0.949   3.543   5.298
  143OSM   C14F15782   1.099   3.378   5.275
  143OSM   H14F15783   1.157   3.418   5.188
  143OSM   H14G15784   1.018   3.306   5.252
  143OSM   C15F15785   1.205   3.296   5.350
  143OSM   H15F15786   1.155   3.218   5.412
  143OSM   H15G15787   1.266   3.369   5.408
  143OSM   C16F15788   1.300   3.215   5.260
  143OSM   H16F15789   1.335   3.129   5.321
  143OSM   H16G15790   1.390   3.270   5.226
  143OSM   C17F15791   1.239   3.149   5.136
  143OSM   H17F15792   1.195   3.230   5.073
  143OSM   H17G15793   1.152   3.084   5.158
  143OSM   C18F15794   1.340   3.070   5.049
  143OSM   H18F15795   1.292   3.065   4.949
  143OSM   H18G15796   1.355   2.970   5.097
  143OSM   H18H15797   1.436   3.124   5.044
  144OSM      N15798   0.771   2.834   7.099
  144OSM    C1515799   0.728   2.978   7.069
  144OSM   H15A15800   0.801   3.028   7.007
  144OSM   H15B15801   0.709   3.038   7.157
  144OSM   H15C15802   0.634   2.970   7.017
  144OSM    C1415803   0.884   2.838   7.195
  144OSM   H14A15804   0.900   2.738   7.232
  144OSM   H14B15805   0.860   2.892   7.285
  144OSM   H14C15806   0.970   2.878   7.144
  144OSM    C1315807   0.661   2.768   7.179
  144OSM   H13A15808   0.567   2.781   7.127
  144OSM   H13B15809   0.651   2.813   7.276
  144OSM   H13C15810   0.664   2.660   7.182
  144OSM    C1215811   0.800   2.757   6.970
  144OSM   H12A15812   0.710   2.743   6.912
  144OSM   H12B15813   0.828   2.661   7.011
  144OSM    C1115814   0.904   2.815   6.872
  144OSM   H11A15815   1.001   2.823   6.926
  144OSM   H11B15816   0.883   2.923   6.853
  144OSM      P15817   1.001   2.613   6.743
  144OSM    O1315818   1.141   2.659   6.762
  144OSM    O1415819   0.951   2.501   6.826
  144OSM    O1115820   0.983   2.576   6.595
  144OSM    O1215821   0.907   2.744   6.751
  144OSM    C1S15822   0.951   2.668   6.482
  144OSM    H1S15823   1.028   2.748   6.491
  144OSM    H1T15824   0.852   2.719   6.485
  144OSM     NF15825   0.991   2.704   6.242
  144OSM    HNF15826   0.911   2.718   6.183
  144OSM    C2S15827   0.981   2.599   6.347
  144OSM    H2S15828   1.079   2.547   6.359
  144OSM    C3S15829   0.874   2.494   6.318
  144OSM    H3S15830   0.780   2.550   6.299
  144OSM     O315831   0.851   2.398   6.419
  144OSM    HO315832   0.904   2.420   6.495
  144OSM    C4S15833   0.897   2.421   6.185
  144OSM    H4S15834   0.966   2.336   6.192
  144OSM    C5S15835   0.832   2.438   6.070
  144OSM    H5S15836   0.742   2.501   6.061
  144OSM    C6S15837   0.857   2.361   5.942
  144OSM    H6S15838   0.816   2.259   5.953
  144OSM    H6T15839   0.966   2.352   5.924
  144OSM    C7S15840   0.794   2.434   5.823
  144OSM    H7S15841   0.830   2.539   5.814
  144OSM    H7T15842   0.685   2.454   5.838
  144OSM    C8S15843   0.814   2.358   5.694
  144OSM    H8S15844   0.768   2.258   5.708
  144OSM    H8T15845   0.924   2.348   5.679
  144OSM    C9S15846   0.750   2.436   5.571
  144OSM    H9S15847   0.797   2.536   5.560
  144OSM    H9T15848   0.640   2.449   5.584
  144OSM   C10S15849   0.781   2.361   5.445
  144OSM   H10S15850   0.757   2.254   5.461
  144OSM   H10T15851   0.889   2.376   5.425
  144OSM   C11S15852   0.700   2.406   5.323
  144OSM   H11S15853   0.706   2.516   5.310
  144OSM   H11T15854   0.594   2.385   5.353
  144OSM   C12S15855   0.745   2.341   5.189
  144OSM   H12S15856   0.780   2.236   5.177
  144OSM   H12T15857   0.841   2.392   5.164
  144OSM   C13S15858   0.645   2.385   5.074
  144OSM   H13S15859   0.627   2.495   5.074
  144OSM   H13T15860   0.544   2.353   5.108
  144OSM   C14S15861   0.683   2.335   4.935
  144OSM   H14S15862   0.703   2.227   4.921
  144OSM   H14T15863   0.776   2.391   4.914
  144OSM   C15S15864   0.563   2.364   4.848
  144OSM   H15S15865   0.520   2.459   4.887
  144OSM   H15T15866   0.479   2.293   4.862
  144OSM   C16S15867   0.605   2.374   4.699
  144OSM   H16S15868   0.628   2.271   4.666
  144OSM   H16T15869   0.697   2.435   4.713
  144OSM   C17S15870   0.519   2.464   4.609
  144OSM   H17S15871   0.508   2.561   4.663
  144OSM   H17T15872   0.424   2.411   4.592
  144OSM   C18S15873   0.586   2.488   4.472
  144OSM   H18S15874   0.525   2.568   4.425
  144OSM   H18T15875   0.585   2.406   4.397
  144OSM   H18U15876   0.686   2.536   4.478
  144OSM    C1F15877   1.092   2.794   6.239
  144OSM     OF15878   1.189   2.789   6.311
  144OSM    C2F15879   1.087   2.906   6.135
  144OSM    H2F15880   1.002   2.973   6.159
  144OSM    H2G15881   1.065   2.854   6.039
  144OSM    C3F15882   1.210   2.991   6.142
  144OSM    H3F15883   1.300   2.929   6.119
  144OSM    H3G15884   1.224   3.027   6.246
  144OSM    C4F15885   1.207   3.115   6.042
  144OSM    H4F15886   1.281   3.190   6.077
  144OSM    H4G15887   1.117   3.175   6.066
  144OSM    C5F15888   1.231   3.065   5.898
  144OSM    H5F15889   1.226   3.147   5.823
  144OSM    H5G15890   1.158   2.985   5.873
  144OSM    C6F15891   1.367   3.010   5.874
  144OSM    H6F15892   1.400   2.916   5.922
  144OSM    H6G15893   1.440   3.081   5.920
  144OSM    C7F15894   1.388   3.009   5.719
  144OSM    H7F15895   1.399   3.115   5.688
  144OSM    H7G15896   1.294   2.981   5.667
  144OSM    C8F15897   1.507   2.928   5.668
  144OSM    H8F15898   1.606   2.961   5.705
  144OSM    H8G15899   1.516   2.956   5.561
  144OSM    C9F15900   1.499   2.783   5.698
  144OSM    H9F15901   1.438   2.743   5.781
  144OSM   C10F15902   1.561   2.687   5.629
  144OSM   H10F15903   1.535   2.586   5.661
  144OSM   C11F15904   1.653   2.687   5.508
  144OSM   H11F15905   1.754   2.647   5.532
  144OSM   H11G15906   1.670   2.791   5.475
  144OSM   C12F15907   1.589   2.614   5.393
  144OSM   H12F15908   1.481   2.638   5.377
  144OSM   H12G15909   1.597   2.503   5.394
  144OSM   C13F15910   1.655   2.643   5.264
  144OSM   H13F15911   1.765   2.637   5.279
  144OSM   H13G15912   1.628   2.744   5.228
  144OSM   C14F15913   1.627   2.558   5.146
  144OSM   H14F15914   1.517   2.563   5.131
  144OSM   H14G15915   1.668   2.455   5.161
  144OSM   C15F15916   1.693   2.607   5.016
  144OSM   H15F15917   1.801   2.584   5.020
  144OSM   H15G15918   1.691   2.717   5.001
  144OSM   C16F15919   1.620   2.549   4.897
  144OSM   H16F15920   1.510   2.560   4.912
  144OSM   H16G15921   1.641   2.441   4.879
  144OSM   C17F15922   1.651   2.615   4.764
  144OSM   H17F15923   1.623   2.722   4.760
  144OSM   H17G15924   1.581   2.581   4.685
  144OSM   C18F15925   1.797   2.608   4.709
  144OSM   H18F15926   1.867   2.640   4.790
  144OSM   H18G15927   1.828   2.665   4.620
  144OSM   H18H15928   1.823   2.501   4.697
  145OSM      N15929   2.211   4.629   6.545
  145OSM    C1515930   2.233   4.483   6.563
  145OSM   H15A15931   2.333   4.444   6.549
  145OSM   H15B15932   2.164   4.429   6.501
  145OSM   H15C15933   2.205   4.450   6.662
  145OSM    C1415934   2.064   4.653   6.565
  145OSM   H14A15935   2.025   4.635   6.665
  145OSM   H14B15936   2.009   4.592   6.495
  145OSM   H14C15937   2.039   4.756   6.546
  145OSM    C1315938   2.279   4.699   6.657
  145OSM   H13A15939   2.383   4.671   6.650
  145OSM   H13B15940   2.245   4.650   6.747
  145OSM   H13C15941   2.278   4.807   6.654
  145OSM    C1215942   2.273   4.660   6.411
  145OSM   H12A15943   2.222   4.618   6.325
  145OSM   H12B15944   2.376   4.628   6.415
  145OSM    C1115945   2.266   4.811   6.377
  145OSM   H11A15946   2.156   4.828   6.371
  145OSM   H11B15947   2.308   4.831   6.276
  145OSM      P15948   2.243   5.028   6.502
  145OSM    O1315949   2.119   4.999   6.572
  145OSM    O1415950   2.339   5.124   6.566
  145OSM    O1115951   2.212   5.084   6.360
  145OSM    O1215952   2.327   4.895   6.470
  145OSM    C1S15953   2.103   5.187   6.351
  145OSM    H1S15954   2.136   5.281   6.399
  145OSM    H1T15955   2.003   5.145   6.378
  145OSM     NF15956   2.001   5.359   6.190
  145OSM    HNF15957   1.906   5.345   6.215
  145OSM    C2S15958   2.074   5.230   6.204
  145OSM    H2S15959   2.176   5.242   6.162
  145OSM    C3S15960   2.025   5.111   6.124
  145OSM    H3S15961   1.923   5.080   6.156
  145OSM     O315962   2.113   4.997   6.145
  145OSM    HO315963   2.167   5.011   6.223
  145OSM    C4S15964   2.018   5.139   5.979
  145OSM    H4S15965   1.916   5.126   5.941
  145OSM    C5S15966   2.118   5.174   5.893
  145OSM    H5S15967   2.219   5.190   5.934
  145OSM    C6S15968   2.103   5.187   5.741
  145OSM    H6S15969   2.001   5.151   5.715
  145OSM    H6T15970   2.172   5.118   5.689
  145OSM    C7S15971   2.135   5.330   5.681
  145OSM    H7S15972   2.244   5.348   5.672
  145OSM    H7T15973   2.094   5.415   5.740
  145OSM    C8S15974   2.078   5.331   5.539
  145OSM    H8S15975   1.968   5.319   5.553
  145OSM    H8T15976   2.110   5.236   5.491
  145OSM    C9S15977   2.112   5.453   5.456
  145OSM    H9S15978   2.223   5.453   5.460
  145OSM    H9T15979   2.075   5.540   5.515
  145OSM   C10S15980   2.067   5.448   5.313
  145OSM   H10S15981   1.956   5.456   5.310
  145OSM   H10T15982   2.108   5.354   5.271
  145OSM   C11S15983   2.119   5.569   5.234
  145OSM   H11S15984   2.229   5.580   5.241
  145OSM   H11T15985   2.085   5.666   5.277
  145OSM   C12S15986   2.074   5.562   5.090
  145OSM   H12S15987   1.964   5.557   5.096
  145OSM   H12T15988   2.095   5.465   5.039
  145OSM   C13S15989   2.107   5.684   4.999
  145OSM   H13S15990   2.210   5.687   4.959
  145OSM   H13T15991   2.101   5.772   5.067
  145OSM   C14S15992   2.010   5.712   4.878
  145OSM   H14S15993   1.906   5.685   4.905
  145OSM   H14T15994   2.050   5.656   4.791
  145OSM   C15S15995   2.003   5.867   4.855
  145OSM   H15S15996   2.109   5.901   4.859
  145OSM   H15T15997   1.947   5.902   4.944
  145OSM   C16S15998   1.906   5.919   4.745
  145OSM   H16S15999   1.946   5.862   4.658
  145OSM   H16T16000   1.920   6.026   4.720
  145OSM   C17S16001   1.758   5.881   4.754
  145OSM   H17S16002   1.711   5.959   4.817
  145OSM   H17T16003   1.740   5.785   4.809
  145OSM   C18S16004   1.697   5.874   4.614
  145OSM   H18S16005   1.593   5.836   4.615
  145OSM   H18T16006   1.748   5.805   4.544
  145OSM   H18U16007   1.687   5.979   4.577
  145OSM    C1F16008   2.059   5.472   6.206
  145OSM     OF16009   2.178   5.488   6.234
  145OSM    C2F16010   1.971   5.592   6.209
  145OSM    H2F16011   1.976   5.647   6.305
  145OSM    H2G16012   1.866   5.558   6.196
  145OSM    C3F16013   2.016   5.674   6.089
  145OSM    H3F16014   2.122   5.678   6.058
  145OSM    H3G16015   1.984   5.779   6.106
  145OSM    C4F16016   1.942   5.628   5.955
  145OSM    H4F16017   1.835   5.617   5.984
  145OSM    H4G16018   1.977   5.529   5.920
  145OSM    C5F16019   1.956   5.736   5.853
  145OSM    H5F16020   2.063   5.740   5.824
  145OSM    H5G16021   1.921   5.831   5.901
  145OSM    C6F16022   1.877   5.732   5.718
  145OSM    H6F16023   1.876   5.631   5.672
  145OSM    H6G16024   1.921   5.795   5.639
  145OSM    C7F16025   1.724   5.774   5.730
  145OSM    H7F16026   1.724   5.876   5.774
  145OSM    H7G16027   1.661   5.703   5.787
  145OSM    C8F16028   1.658   5.783   5.587
  145OSM    H8F16029   1.708   5.869   5.536
  145OSM    H8G16030   1.555   5.823   5.592
  145OSM    C9F16031   1.658   5.666   5.492
  145OSM    H9F16032   1.611   5.576   5.535
  145OSM   C10F16033   1.709   5.664   5.368
  145OSM   H10F16034   1.693   5.576   5.305
  145OSM   C11F16035   1.771   5.779   5.293
  145OSM   H11F16036   1.872   5.755   5.256
  145OSM   H11G16037   1.792   5.871   5.351
  145OSM   C12F16038   1.690   5.825   5.177
  145OSM   H12F16039   1.662   5.734   5.119
  145OSM   H12G16040   1.758   5.892   5.120
  145OSM   C13F16041   1.561   5.899   5.224
  145OSM   H13F16042   1.590   6.000   5.259
  145OSM   H13G16043   1.501   5.841   5.297
  145OSM   C14F16044   1.461   5.925   5.104
  145OSM   H14F16045   1.431   5.826   5.062
  145OSM   H14G16046   1.515   5.986   5.029
  145OSM   C15F16047   1.329   5.983   5.155
  145OSM   H15F16048   1.358   6.086   5.187
  145OSM   H15G16049   1.286   5.921   5.237
  145OSM   C16F16050   1.216   5.977   5.054
  145OSM   H16F16051   1.142   6.055   5.082
  145OSM   H16G16052   1.169   5.877   5.064
  145OSM   C17F16053   1.250   5.994   4.902
  145OSM   H17F16054   1.321   5.918   4.864
  145OSM   H17G16055   1.302   6.092   4.901
  145OSM   C18F16056   1.124   6.000   4.809
  145OSM   H18F16057   1.043   6.062   4.853
  145OSM   H18G16058   1.072   5.902   4.797
  145OSM   H18H16059   1.141   6.045   4.709
  146OSM      N16060   0.166   5.928   7.061
  146OSM    C1516061   0.294   5.972   7.110
  146OSM   H15A16062   0.354   6.014   7.031
  146OSM   H15B16063   0.353   5.900   7.165
  146OSM   H15C16064   0.287   6.056   7.177
  146OSM    C1416065   0.173   5.785   7.027
  146OSM   H14A16066   0.210   5.721   7.106
  146OSM   H14B16067   0.245   5.775   6.947
  146OSM   H14C16068   0.071   5.757   7.004
  146OSM    C1316069   0.071   5.933   7.179
  146OSM   H13A16070  -0.033   5.925   7.152
  146OSM   H13B16071   0.090   6.029   7.224
  146OSM   H13C16072   0.098   5.861   7.255
  146OSM    C1216073   0.113   6.018   6.949
  146OSM   H12A16074   0.084   6.111   6.996
  146OSM   H12B16075   0.020   5.988   6.903
  146OSM    C1116076   0.209   6.049   6.830
  146OSM   H11A16077   0.162   6.108   6.748
  146OSM   H11B16078   0.227   5.949   6.786
  146OSM      P16079   0.344   6.269   6.877
  146OSM    O1316080   0.278   6.307   7.001
  146OSM    O1416081   0.491   6.302   6.871
  146OSM    O1116082   0.272   6.323   6.754
  146OSM    O1216083   0.335   6.112   6.861
  146OSM    C1S16084   0.353   6.342   6.641
  146OSM    H1S16085   0.439   6.273   6.630
  146OSM    H1T16086   0.398   6.444   6.642
  146OSM     NF16087   0.365   6.361   6.399
  146OSM    HNF16088   0.392   6.457   6.387
  146OSM    C2S16089   0.273   6.356   6.512
  146OSM    H2S16090   0.202   6.271   6.507
  146OSM    C3S16091   0.176   6.478   6.525
  146OSM    H3S16092   0.228   6.572   6.549
  146OSM     O316093   0.073   6.459   6.619
  146OSM    HO316094   0.117   6.417   6.694
  146OSM    C4S16095   0.102   6.470   6.391
  146OSM    H4S16096   0.059   6.372   6.366
  146OSM    C5S16097   0.080   6.568   6.295
  146OSM    H5S16098   0.123   6.664   6.328
  146OSM    C6S16099   0.018   6.567   6.158
  146OSM    H6S16100   0.075   6.640   6.097
  146OSM    H6T16101  -0.083   6.612   6.164
  146OSM    C7S16102   0.010   6.437   6.090
  146OSM    H7S16103  -0.047   6.450   5.995
  146OSM    H7T16104  -0.060   6.367   6.139
  146OSM    C8S16105   0.140   6.348   6.055
  146OSM    H8S16106   0.114   6.240   6.056
  146OSM    H8T16107   0.214   6.356   6.137
  146OSM    C9S16108   0.214   6.379   5.920
  146OSM    H9S16109   0.148   6.334   5.842
  146OSM    H9T16110   0.305   6.316   5.923
  146OSM   C10S16111   0.251   6.519   5.893
  146OSM   H10S16112   0.310   6.555   5.981
  146OSM   H10T16113   0.166   6.590   5.885
  146OSM   C11S16114   0.328   6.545   5.756
  146OSM   H11S16115   0.426   6.492   5.748
  146OSM   H11T16116   0.334   6.655   5.745
  146OSM   C12S16117   0.248   6.504   5.628
  146OSM   H12S16118   0.143   6.536   5.646
  146OSM   H12T16119   0.247   6.394   5.644
  146OSM   C13S16120   0.282   6.551   5.489
  146OSM   H13S16121   0.388   6.550   5.456
  146OSM   H13T16122   0.269   6.662   5.490
  146OSM   C14S16123   0.193   6.490   5.382
  146OSM   H14S16124   0.091   6.533   5.390
  146OSM   H14T16125   0.187   6.380   5.401
  146OSM   C15S16126   0.253   6.524   5.242
  146OSM   H15S16127   0.351   6.476   5.220
  146OSM   H15T16128   0.273   6.633   5.237
  146OSM   C16S16129   0.161   6.497   5.120
  146OSM   H16S16130   0.054   6.507   5.147
  146OSM   H16T16131   0.181   6.393   5.085
  146OSM   C17S16132   0.182   6.594   5.010
  146OSM   H17S16133   0.290   6.613   4.994
  146OSM   H17T16134   0.145   6.693   5.045
  146OSM   C18S16135   0.127   6.543   4.880
  146OSM   H18S16136   0.166   6.597   4.792
  146OSM   H18T16137   0.017   6.528   4.873
  146OSM   H18U16138   0.169   6.441   4.869
  146OSM    C1F16139   0.418   6.251   6.347
  146OSM     OF16140   0.405   6.144   6.405
  146OSM    C2F16141   0.504   6.269   6.224
  146OSM    H2F16142   0.611   6.277   6.251
  146OSM    H2G16143   0.477   6.368   6.180
  146OSM    C3F16144   0.493   6.170   6.114
  146OSM    H3F16145   0.393   6.177   6.066
  146OSM    H3G16146   0.510   6.064   6.143
  146OSM    C4F16147   0.593   6.186   6.002
  146OSM    H4F16148   0.692   6.147   6.036
  146OSM    H4G16149   0.608   6.292   5.975
  146OSM    C5F16150   0.555   6.121   5.871
  146OSM    H5F16151   0.453   6.153   5.841
  146OSM    H5G16152   0.566   6.011   5.863
  146OSM    C6F16153   0.645   6.179   5.759
  146OSM    H6F16154   0.750   6.181   5.794
  146OSM    H6G16155   0.615   6.286   5.750
  146OSM    C7F16156   0.626   6.104   5.627
  146OSM    H7F16157   0.613   5.995   5.646
  146OSM    H7G16158   0.725   6.109   5.576
  146OSM    C8F16159   0.511   6.165   5.548
  146OSM    H8F16160   0.547   6.248   5.484
  146OSM    H8G16161   0.435   6.206   5.618
  146OSM    C9F16162   0.451   6.068   5.444
  146OSM    H9F16163   0.349   6.035   5.467
  146OSM   C10F16164   0.518   6.005   5.340
  146OSM   H10F16165   0.460   5.934   5.279
  146OSM   C11F16166   0.658   6.031   5.289
  146OSM   H11F16167   0.719   5.939   5.281
  146OSM   H11G16168   0.715   6.094   5.360
  146OSM   C12F16169   0.660   6.100   5.149
  146OSM   H12F16170   0.625   6.038   5.064
  146OSM   H12G16171   0.766   6.122   5.122
  146OSM   C13F16172   0.587   6.233   5.146
  146OSM   H13F16173   0.616   6.285   5.239
  146OSM   H13G16174   0.479   6.208   5.156
  146OSM   C14F16175   0.605   6.317   5.012
  146OSM   H14F16176   0.585   6.253   4.924
  146OSM   H14G16177   0.523   6.391   4.998
  146OSM   C15F16178   0.736   6.382   5.018
  146OSM   H15F16179   0.821   6.312   5.032
  146OSM   H15G16180   0.750   6.448   5.106
  146OSM   C16F16181   0.774   6.459   4.890
  146OSM   H16F16182   0.724   6.408   4.805
  146OSM   H16G16183   0.884   6.466   4.875
  146OSM   C17F16184   0.720   6.607   4.901
  146OSM   H17F16185   0.778   6.647   4.987
  146OSM   H17G16186   0.612   6.619   4.923
  146OSM   C18F16187   0.733   6.698   4.780
  146OSM   H18F16188   0.733   6.806   4.806
  146OSM   H18G16189   0.654   6.674   4.705
  146OSM   H18H16190   0.827   6.670   4.729
  147OSM      N16191   2.686   3.892   1.943
  147OSM    C1516192   2.783   3.994   1.992
  147OSM   H15A16193   2.882   3.954   2.013
  147OSM   H15B16194   2.756   4.047   2.083
  147OSM   H15C16195   2.802   4.055   1.906
  147OSM    C1416196   2.736   3.833   1.819
  147OSM   H14A16197   2.667   3.760   1.779
  147OSM   H14B16198   2.829   3.781   1.836
  147OSM   H14C16199   2.745   3.900   1.735
  147OSM    C1316200   2.673   3.773   2.039
  147OSM   H13A16201   2.615   3.694   1.995
  147OSM   H13B16202   2.618   3.791   2.130
  147OSM   H13C16203   2.771   3.735   2.061
  147OSM    C1216204   2.551   3.949   1.912
  147OSM   H12A16205   2.497   3.872   1.860
  147OSM   H12B16206   2.574   4.036   1.852
  147OSM    C1116207   2.470   4.001   2.025
  147OSM   H11A16208   2.487   3.928   2.107
  147OSM   H11B16209   2.364   4.004   1.993
  147OSM      P16210   2.469   4.252   1.965
  147OSM    O1316211   2.540   4.244   1.838
  147OSM    O1416212   2.323   4.269   1.971
  147OSM    O1116213   2.538   4.369   2.039
  147OSM    O1216214   2.517   4.129   2.057
  147OSM    C1S16215   2.500   4.407   2.172
  147OSM    H1S16216   2.392   4.394   2.194
  147OSM    H1T16217   2.519   4.515   2.184
  147OSM     NF16218   2.551   4.412   2.415
  147OSM    HNF16219   2.586   4.502   2.438
  147OSM    C2S16220   2.587   4.348   2.292
  147OSM    H2S16221   2.557   4.242   2.293
  147OSM    C3S16222   2.744   4.351   2.269
  147OSM    H3S16223   2.778   4.454   2.294
  147OSM     O316224   2.783   4.313   2.138
  147OSM    HO316225   2.698   4.298   2.096
  147OSM    C4S16226   2.815   4.249   2.354
  147OSM    H4S16227   2.777   4.146   2.348
  147OSM    C5S16228   2.932   4.263   2.436
  147OSM    H5S16229   2.975   4.364   2.441
  147OSM    C6S16230   2.992   4.152   2.513
  147OSM    H6S16231   3.064   4.201   2.581
  147OSM    H6T16232   3.047   4.089   2.440
  147OSM    C7S16233   2.911   4.040   2.579
  147OSM    H7S16234   2.969   3.954   2.618
  147OSM    H7T16235   2.841   4.000   2.503
  147OSM    C8S16236   2.815   4.097   2.685
  147OSM    H8S16237   2.736   4.023   2.709
  147OSM    H8T16238   2.750   4.178   2.644
  147OSM    C9S16239   2.884   4.151   2.812
  147OSM    H9S16240   2.959   4.228   2.785
  147OSM    H9T16241   2.935   4.061   2.851
  147OSM   C10S16242   2.782   4.201   2.911
  147OSM   H10S16243   2.712   4.120   2.940
  147OSM   H10T16244   2.713   4.275   2.865
  147OSM   C11S16245   2.847   4.267   3.032
  147OSM   H11S16246   2.907   4.356   3.003
  147OSM   H11T16247   2.919   4.197   3.082
  147OSM   C12S16248   2.743   4.300   3.143
  147OSM   H12S16249   2.687   4.209   3.171
  147OSM   H12T16250   2.677   4.373   3.091
  147OSM   C13S16251   2.831   4.345   3.262
  147OSM   H13S16252   2.920   4.392   3.216
  147OSM   H13T16253   2.882   4.255   3.301
  147OSM   C14S16254   2.760   4.431   3.367
  147OSM   H14S16255   2.741   4.531   3.325
  147OSM   H14T16256   2.820   4.455   3.457
  147OSM   C15S16257   2.620   4.373   3.418
  147OSM   H15S16258   2.636   4.275   3.468
  147OSM   H15T16259   2.546   4.351   3.338
  147OSM   C16S16260   2.562   4.471   3.518
  147OSM   H16S16261   2.549   4.565   3.460
  147OSM   H16T16262   2.623   4.491   3.609
  147OSM   C17S16263   2.423   4.420   3.556
  147OSM   H17S16264   2.422   4.318   3.599
  147OSM   H17T16265   2.363   4.407   3.463
  147OSM   C18S16266   2.361   4.532   3.643
  147OSM   H18S16267   2.261   4.499   3.677
  147OSM   H18T16268   2.355   4.629   3.589
  147OSM   H18U16269   2.419   4.535   3.738
  147OSM    C1F16270   2.431   4.380   2.473
  147OSM     OF16271   2.346   4.310   2.423
  147OSM    C2F16272   2.397   4.456   2.595
  147OSM    H2F16273   2.353   4.554   2.566
  147OSM    H2G16274   2.488   4.486   2.652
  147OSM    C3F16275   2.315   4.378   2.699
  147OSM    H3F16276   2.373   4.286   2.725
  147OSM    H3G16277   2.220   4.341   2.655
  147OSM    C4F16278   2.282   4.453   2.824
  147OSM    H4F16279   2.363   4.516   2.867
  147OSM    H4G16280   2.252   4.371   2.893
  147OSM    C5F16281   2.152   4.535   2.812
  147OSM    H5F16282   2.066   4.465   2.821
  147OSM    H5G16283   2.160   4.580   2.711
  147OSM    C6F16284   2.145   4.644   2.916
  147OSM    H6F16285   2.069   4.719   2.885
  147OSM    H6G16286   2.239   4.701   2.905
  147OSM    C7F16287   2.125   4.609   3.061
  147OSM    H7F16288   2.225   4.576   3.097
  147OSM    H7G16289   2.060   4.519   3.064
  147OSM    C8F16290   2.077   4.715   3.147
  147OSM    H8F16291   1.986   4.750   3.094
  147OSM    H8G16292   2.149   4.800   3.145
  147OSM    C9F16293   2.036   4.669   3.285
  147OSM    H9F16294   1.937   4.621   3.292
  147OSM   C10F16295   2.105   4.696   3.400
  147OSM   H10F16296   2.068   4.652   3.494
  147OSM   C11F16297   2.243   4.771   3.402
  147OSM   H11F16298   2.257   4.834   3.312
  147OSM   H11G16299   2.326   4.698   3.410
  147OSM   C12F16300   2.249   4.870   3.522
  147OSM   H12F16301   2.227   4.822   3.619
  147OSM   H12G16302   2.172   4.947   3.498
  147OSM   C13F16303   2.381   4.943   3.521
  147OSM   H13F16304   2.399   4.980   3.418
  147OSM   H13G16305   2.471   4.883   3.548
  147OSM   C14F16306   2.392   5.062   3.615
  147OSM   H14F16307   2.345   5.157   3.582
  147OSM   H14G16308   2.500   5.087   3.607
  147OSM   C15F16309   2.357   5.033   3.760
  147OSM   H15F16310   2.409   4.942   3.796
  147OSM   H15G16311   2.250   5.005   3.752
  147OSM   C16F16312   2.373   5.160   3.852
  147OSM   H16F16313   2.329   5.250   3.805
  147OSM   H16G16314   2.481   5.182   3.868
  147OSM   C17F16315   2.318   5.142   3.998
  147OSM   H17F16316   2.366   5.045   4.023
  147OSM   H17G16317   2.207   5.128   4.000
  147OSM   C18F16318   2.357   5.254   4.100
  147OSM   H18F16319   2.329   5.242   4.207
  147OSM   H18G16320   2.307   5.349   4.071
  147OSM   H18H16321   2.468   5.266   4.094
  148OSM      N16322   1.063   4.062   1.783
  148OSM    C1516323   1.193   4.031   1.706
  148OSM   H15A16324   1.201   3.926   1.684
  148OSM   H15B16325   1.283   4.060   1.758
  148OSM   H15C16326   1.195   4.084   1.612
  148OSM    C1416327   1.070   4.202   1.826
  148OSM   H14A16328   1.156   4.218   1.890
  148OSM   H14B16329   0.981   4.223   1.884
  148OSM   H14C16330   1.072   4.273   1.744
  148OSM    C1316331   0.946   4.042   1.687
  148OSM   H13A16332   0.848   4.054   1.731
  148OSM   H13B16333   0.939   3.944   1.641
  148OSM   H13C16334   0.948   4.121   1.614
  148OSM    C1216335   1.046   3.973   1.903
  148OSM   H12A16336   1.056   3.873   1.863
  148OSM   H12B16337   0.943   3.979   1.937
  148OSM    C1116338   1.140   3.998   2.029
  148OSM   H11A16339   1.131   3.911   2.098
  148OSM   H11B16340   1.102   4.086   2.085
  148OSM      P16341   1.367   4.131   2.046
  148OSM    O1316342   1.505   4.093   2.011
  148OSM    O1416343   1.317   4.259   1.982
  148OSM    O1116344   1.366   4.139   2.204
  148OSM    O1216345   1.278   4.006   2.006
  148OSM    C1S16346   1.445   4.046   2.285
  148OSM    H1S16347   1.554   4.056   2.266
  148OSM    H1T16348   1.419   3.941   2.259
  148OSM     NF16349   1.520   3.993   2.515
  148OSM    HNF16350   1.494   3.917   2.575
  148OSM    C2S16351   1.416   4.062   2.438
  148OSM    H2S16352   1.435   4.170   2.457
  148OSM    C3S16353   1.269   4.018   2.474
  148OSM    H3S16354   1.260   3.909   2.457
  148OSM     O316355   1.176   4.073   2.385
  148OSM    HO316356   1.233   4.087   2.309
  148OSM    C4S16357   1.230   4.039   2.613
  148OSM    H4S16358   1.227   3.948   2.675
  148OSM    C5S16359   1.200   4.153   2.673
  148OSM    H5S16360   1.206   4.248   2.618
  148OSM    C6S16361   1.147   4.167   2.812
  148OSM    H6S16362   1.055   4.229   2.805
  148OSM    H6T16363   1.217   4.218   2.882
  148OSM    C7S16364   1.070   4.042   2.872
  148OSM    H7S16365   1.134   3.963   2.917
  148OSM    H7T16366   1.009   4.013   2.784
  148OSM    C8S16367   0.982   4.085   2.989
  148OSM    H8S16368   0.916   3.998   3.006
  148OSM    H8T16369   0.924   4.176   2.961
  148OSM    C9S16370   1.055   4.109   3.118
  148OSM    H9S16371   1.111   4.204   3.102
  148OSM    H9T16372   1.126   4.030   3.151
  148OSM   C10S16373   0.951   4.130   3.232
  148OSM   H10S16374   0.875   4.049   3.222
  148OSM   H10T16375   0.897   4.226   3.216
  148OSM   C11S16376   1.017   4.127   3.371
  148OSM   H11S16377   1.104   4.196   3.371
  148OSM   H11T16378   1.064   4.028   3.387
  148OSM   C12S16379   0.928   4.164   3.481
  148OSM   H12S16380   0.836   4.103   3.479
  148OSM   H12T16381   0.885   4.266   3.476
  148OSM   C13S16382   1.007   4.147   3.615
  148OSM   H13S16383   1.106   4.197   3.610
  148OSM   H13T16384   1.027   4.040   3.636
  148OSM   C14S16385   0.923   4.189   3.733
  148OSM   H14S16386   0.832   4.125   3.742
  148OSM   H14T16387   0.882   4.292   3.723
  148OSM   C15S16388   0.998   4.194   3.869
  148OSM   H15S16389   1.071   4.276   3.852
  148OSM   H15T16390   1.057   4.103   3.893
  148OSM   C16S16391   0.908   4.224   3.984
  148OSM   H16S16392   0.828   4.147   3.987
  148OSM   H16T16393   0.856   4.318   3.956
  148OSM   C17S16394   0.972   4.224   4.119
  148OSM   H17S16395   1.054   4.299   4.117
  148OSM   H17T16396   1.020   4.125   4.137
  148OSM   C18S16397   0.879   4.256   4.236
  148OSM   H18S16398   0.804   4.177   4.213
  148OSM   H18T16399   0.845   4.360   4.219
  148OSM   H18U16400   0.913   4.256   4.342
  148OSM    C1F16401   1.647   4.035   2.510
  148OSM     OF16402   1.678   4.145   2.462
  148OSM    C2F16403   1.746   3.939   2.565
  148OSM    H2F16404   1.777   3.872   2.482
  148OSM    H2G16405   1.707   3.875   2.647
  148OSM    C3F16406   1.861   4.018   2.633
  148OSM    H3F16407   1.912   4.094   2.570
  148OSM    H3G16408   1.940   3.940   2.648
  148OSM    C4F16409   1.816   4.073   2.764
  148OSM    H4F16410   1.764   4.011   2.842
  148OSM    H4G16411   1.745   4.153   2.734
  148OSM    C5F16412   1.930   4.149   2.835
  148OSM    H5F16413   1.976   4.219   2.762
  148OSM    H5G16414   2.006   4.073   2.865
  148OSM    C6F16415   1.877   4.215   2.968
  148OSM    H6F16416   1.797   4.143   2.996
  148OSM    H6G16417   1.825   4.313   2.960
  148OSM    C7F16418   1.978   4.215   3.080
  148OSM    H7F16419   2.058   4.279   3.038
  148OSM    H7G16420   2.015   4.112   3.099
  148OSM    C8F16421   1.923   4.272   3.216
  148OSM    H8F16422   1.902   4.378   3.190
  148OSM    H8G16423   2.008   4.276   3.287
  148OSM    C9F16424   1.807   4.202   3.276
  148OSM    H9F16425   1.735   4.161   3.204
  148OSM   C10F16426   1.796   4.174   3.407
  148OSM   H10F16427   1.706   4.117   3.433
  148OSM   C11F16428   1.870   4.228   3.526
  148OSM   H11F16429   1.976   4.199   3.511
  148OSM   H11G16430   1.839   4.171   3.616
  148OSM   C12F16431   1.872   4.382   3.549
  148OSM   H12F16432   1.774   4.434   3.544
  148OSM   H12G16433   1.936   4.430   3.472
  148OSM   C13F16434   1.938   4.415   3.682
  148OSM   H13F16435   2.049   4.405   3.675
  148OSM   H13G16436   1.909   4.343   3.762
  148OSM   C14F16437   1.904   4.555   3.728
  148OSM   H14F16438   1.806   4.561   3.779
  148OSM   H14G16439   1.901   4.626   3.643
  148OSM   C15F16440   2.005   4.621   3.819
  148OSM   H15F16441   1.969   4.726   3.821
  148OSM   H15G16442   2.107   4.620   3.777
  148OSM   C16F16443   2.005   4.561   3.959
  148OSM   H16F16444   2.026   4.453   3.943
  148OSM   H16G16445   1.897   4.574   3.981
  148OSM   C17F16446   2.109   4.614   4.059
  148OSM   H17F16447   2.213   4.613   4.021
  148OSM   H17G16448   2.094   4.564   4.157
  148OSM   C18F16449   2.095   4.765   4.091
  148OSM   H18F16450   2.171   4.791   4.168
  148OSM   H18G16451   1.997   4.784   4.139
  148OSM   H18H16452   2.104   4.838   4.007
  149OSM      N16453   2.157   2.506   1.750
  149OSM    C1516454   2.303   2.476   1.752
  149OSM   H15A16455   2.320   2.392   1.686
  149OSM   H15B16456   2.340   2.445   1.848
  149OSM   H15C16457   2.360   2.559   1.713
  149OSM    C1416458   2.115   2.488   1.606
  149OSM   H14A16459   2.178   2.548   1.542
  149OSM   H14B16460   2.015   2.526   1.593
  149OSM   H14C16461   2.108   2.386   1.569
  149OSM    C1316462   2.078   2.421   1.837
  149OSM   H13A16463   2.104   2.440   1.941
  149OSM   H13B16464   2.091   2.318   1.808
  149OSM   H13C16465   1.973   2.446   1.835
  149OSM    C1216466   2.126   2.653   1.796
  149OSM   H12A16467   2.021   2.675   1.787
  149OSM   H12B16468   2.176   2.727   1.735
  149OSM    C1116469   2.177   2.697   1.935
  149OSM   H11A16470   2.284   2.671   1.944
  149OSM   H11B16471   2.128   2.630   2.010
  149OSM      P16472   2.233   2.952   1.923
  149OSM    O1316473   2.269   2.956   1.780
  149OSM    O1416474   2.166   3.071   1.984
  149OSM    O1116475   2.365   2.899   2.008
  149OSM    O1216476   2.139   2.832   1.948
  149OSM    C1S16477   2.344   2.865   2.145
  149OSM    H1S16478   2.361   2.757   2.159
  149OSM    H1T16479   2.242   2.883   2.188
  149OSM     NF16480   2.377   2.931   2.378
  149OSM    HNF16481   2.321   3.006   2.411
  149OSM    C2S16482   2.435   2.946   2.243
  149OSM    H2S16483   2.535   2.897   2.237
  149OSM    C3S16484   2.464   3.096   2.214
  149OSM    H3S16485   2.368   3.151   2.210
  149OSM     O316486   2.522   3.121   2.083
  149OSM    HO316487   2.500   3.051   2.022
  149OSM    C4S16488   2.549   3.156   2.326
  149OSM    H4S16489   2.489   3.214   2.398
  149OSM    C5S16490   2.675   3.131   2.364
  149OSM    H5S16491   2.737   3.061   2.307
  149OSM    C6S16492   2.728   3.178   2.499
  149OSM    H6S16493   2.695   3.281   2.524
  149OSM    H6T16494   2.838   3.185   2.489
  149OSM    C7S16495   2.681   3.084   2.619
  149OSM    H7S16496   2.722   2.985   2.590
  149OSM    H7T16497   2.570   3.079   2.615
  149OSM    C8S16498   2.740   3.108   2.749
  149OSM    H8S16499   2.752   3.217   2.764
  149OSM    H8T16500   2.842   3.065   2.738
  149OSM    C9S16501   2.674   3.016   2.848
  149OSM    H9S16502   2.699   2.912   2.818
  149OSM    H9T16503   2.564   3.033   2.855
  149OSM   C10S16504   2.748   3.017   2.981
  149OSM   H10S16505   2.858   3.017   2.969
  149OSM   H10T16506   2.725   2.929   3.045
  149OSM   C11S16507   2.713   3.132   3.066
  149OSM   H11S16508   2.607   3.158   3.049
  149OSM   H11T16509   2.776   3.220   3.039
  149OSM   C12S16510   2.717   3.099   3.216
  149OSM   H12S16511   2.823   3.076   3.241
  149OSM   H12T16512   2.647   3.018   3.245
  149OSM   C13S16513   2.672   3.222   3.298
  149OSM   H13S16514   2.563   3.235   3.316
  149OSM   H13T16515   2.701   3.318   3.250
  149OSM   C14S16516   2.730   3.214   3.442
  149OSM   H14S16517   2.713   3.112   3.484
  149OSM   H14T16518   2.673   3.277   3.514
  149OSM   C15S16519   2.881   3.240   3.461
  149OSM   H15S16520   2.939   3.166   3.403
  149OSM   H15T16521   2.905   3.226   3.568
  149OSM   C16S16522   2.929   3.384   3.417
  149OSM   H16S16523   2.873   3.470   3.458
  149OSM   H16T16524   2.912   3.399   3.308
  149OSM   C17S16525   3.083   3.397   3.443
  149OSM   H17S16526   3.116   3.487   3.387
  149OSM   H17T16527   3.139   3.310   3.402
  149OSM   C18S16528   3.124   3.412   3.598
  149OSM   H18S16529   3.139   3.309   3.637
  149OSM   H18T16530   3.044   3.460   3.658
  149OSM   H18U16531   3.218   3.469   3.613
  149OSM    C1F16532   2.384   2.812   2.441
  149OSM     OF16533   2.468   2.729   2.404
  149OSM    C2F16534   2.299   2.794   2.565
  149OSM    H2F16535   2.338   2.708   2.623
  149OSM    H2G16536   2.195   2.763   2.542
  149OSM    C3F16537   2.300   2.918   2.657
  149OSM    H3F16538   2.258   2.998   2.593
  149OSM    H3G16539   2.409   2.939   2.657
  149OSM    C4F16540   2.246   2.895   2.795
  149OSM    H4F16541   2.311   2.823   2.850
  149OSM    H4G16542   2.160   2.826   2.791
  149OSM    C5F16543   2.241   3.029   2.885
  149OSM    H5F16544   2.162   3.086   2.832
  149OSM    H5G16545   2.329   3.095   2.868
  149OSM    C6F16546   2.199   3.009   3.036
  149OSM    H6F16547   2.105   2.951   3.049
  149OSM    H6G16548   2.177   3.112   3.073
  149OSM    C7F16549   2.310   2.957   3.127
  149OSM    H7F16550   2.391   3.033   3.130
  149OSM    H7G16551   2.365   2.871   3.083
  149OSM    C8F16552   2.263   2.922   3.263
  149OSM    H8F16553   2.193   2.836   3.255
  149OSM    H8G16554   2.198   3.000   3.307
  149OSM    C9F16555   2.380   2.892   3.351
  149OSM    H9F16556   2.455   2.824   3.308
  149OSM   C10F16557   2.416   2.951   3.470
  149OSM   H10F16558   2.499   2.903   3.525
  149OSM   C11F16559   2.336   3.057   3.541
  149OSM   H11F16560   2.263   3.105   3.473
  149OSM   H11G16561   2.394   3.142   3.582
  149OSM   C12F16562   2.268   3.001   3.672
  149OSM   H12F16563   2.340   2.955   3.743
  149OSM   H12G16564   2.192   2.926   3.641
  149OSM   C13F16565   2.196   3.120   3.738
  149OSM   H13F16566   2.140   3.179   3.663
  149OSM   H13G16567   2.279   3.178   3.783
  149OSM   C14F16568   2.086   3.087   3.838
  149OSM   H14F16569   2.012   3.028   3.780
  149OSM   H14G16570   2.042   3.179   3.883
  149OSM   C15F16571   2.143   3.004   3.958
  149OSM   H15F16572   2.190   2.911   3.917
  149OSM   H15G16573   2.054   2.981   4.021
  149OSM   C16F16574   2.246   3.078   4.045
  149OSM   H16F16575   2.326   3.098   3.970
  149OSM   H16G16576   2.286   3.007   4.120
  149OSM   C17F16577   2.195   3.201   4.120
  149OSM   H17F16578   2.157   3.282   4.054
  149OSM   H17G16579   2.288   3.239   4.169
  149OSM   C18F16580   2.105   3.156   4.242
  149OSM   H18F16581   2.150   3.076   4.304
  149OSM   H18G16582   2.018   3.102   4.199
  149OSM   H18H16583   2.077   3.233   4.317
  150OSM      N16584   0.026   4.861   2.237
  150OSM    C1516585   0.033   4.758   2.348
  150OSM   H15A16586  -0.059   4.738   2.401
  150OSM   H15B16587   0.106   4.787   2.422
  150OSM   H15C16588   0.057   4.660   2.308
  150OSM    C1416589   0.063   4.996   2.286
  150OSM   H14A16590  -0.018   5.052   2.331
  150OSM   H14B16591   0.098   5.071   2.218
  150OSM   H14C16592   0.140   4.984   2.362
  150OSM    C1316593   0.135   4.815   2.145
  150OSM   H13A16594   0.124   4.712   2.112
  150OSM   H13B16595   0.229   4.824   2.197
  150OSM   H13C16596   0.150   4.864   2.050
  150OSM    C1216597  -0.109   4.858   2.169
  150OSM   H12A16598  -0.132   4.761   2.127
  150OSM   H12B16599  -0.091   4.911   2.076
  150OSM    C1116600  -0.226   4.912   2.242
  150OSM   H11A16601  -0.305   4.912   2.163
  150OSM   H11B16602  -0.201   5.017   2.267
  150OSM      P16603  -0.320   4.700   2.362
  150OSM    O1316604  -0.451   4.707   2.298
  150OSM    O1416605  -0.224   4.601   2.304
  150OSM    O1116606  -0.344   4.671   2.512
  150OSM    O1216607  -0.265   4.845   2.361
  150OSM    C1S16608  -0.229   4.629   2.597
  150OSM    H1S16609  -0.178   4.723   2.627
  150OSM    H1T16610  -0.155   4.562   2.549
  150OSM     NF16611  -0.172   4.530   2.820
  150OSM    HNF16612  -0.125   4.442   2.809
  150OSM    C2S16613  -0.281   4.553   2.728
  150OSM    H2S16614  -0.349   4.626   2.777
  150OSM    C3S16615  -0.364   4.427   2.692
  150OSM    H3S16616  -0.301   4.339   2.666
  150OSM     O316617  -0.451   4.438   2.576
  150OSM    HO316618  -0.429   4.526   2.544
  150OSM    C4S16619  -0.440   4.382   2.812
  150OSM    H4S16620  -0.404   4.295   2.870
  150OSM    C5S16621  -0.547   4.452   2.853
  150OSM    H5S16622  -0.585   4.537   2.794
  150OSM    C6S16623  -0.622   4.421   2.976
  150OSM    H6S16624  -0.660   4.317   2.972
  150OSM    H6T16625  -0.718   4.478   2.979
  150OSM    C7S16626  -0.548   4.461   3.106
  150OSM    H7S16627  -0.620   4.456   3.190
  150OSM    H7T16628  -0.523   4.568   3.091
  150OSM    C8S16629  -0.417   4.384   3.132
  150OSM    H8S16630  -0.348   4.422   3.053
  150OSM    H8T16631  -0.426   4.275   3.113
  150OSM    C9S16632  -0.355   4.424   3.270
  150OSM    H9S16633  -0.345   4.534   3.280
  150OSM    H9T16634  -0.250   4.393   3.283
  150OSM   C10S16635  -0.435   4.379   3.394
  150OSM   H10S16636  -0.451   4.269   3.406
  150OSM   H10T16637  -0.529   4.434   3.414
  150OSM   C11S16638  -0.341   4.413   3.522
  150OSM   H11S16639  -0.321   4.521   3.515
  150OSM   H11T16640  -0.246   4.359   3.499
  150OSM   C12S16641  -0.395   4.367   3.659
  150OSM   H12S16642  -0.387   4.256   3.657
  150OSM   H12T16643  -0.503   4.395   3.658
  150OSM   C13S16644  -0.323   4.439   3.772
  150OSM   H13S16645  -0.355   4.544   3.782
  150OSM   H13T16646  -0.214   4.429   3.753
  150OSM   C14S16647  -0.339   4.367   3.906
  150OSM   H14S16648  -0.277   4.412   3.986
  150OSM   H14T16649  -0.290   4.268   3.895
  150OSM   C15S16650  -0.489   4.351   3.945
  150OSM   H15S16651  -0.535   4.296   3.860
  150OSM   H15T16652  -0.537   4.449   3.966
  150OSM   C16S16653  -0.512   4.258   4.063
  150OSM   H16S16654  -0.453   4.165   4.058
  150OSM   H16T16655  -0.615   4.218   4.074
  150OSM   C17S16656  -0.480   4.318   4.202
  150OSM   H17S16657  -0.534   4.415   4.213
  150OSM   H17T16658  -0.374   4.352   4.198
  150OSM   C18S16659  -0.503   4.220   4.312
  150OSM   H18S16660  -0.609   4.186   4.308
  150OSM   H18T16661  -0.487   4.265   4.412
  150OSM   H18U16662  -0.426   4.142   4.298
  150OSM    C1F16663  -0.106   4.631   2.883
  150OSM     OF16664  -0.139   4.749   2.872
  150OSM    C2F16665  -0.001   4.596   2.983
  150OSM    H2F16666   0.085   4.667   2.979
  150OSM    H2G16667   0.037   4.494   2.963
  150OSM    C3F16668  -0.058   4.590   3.119
  150OSM    H3F16669  -0.113   4.496   3.139
  150OSM    H3G16670  -0.124   4.677   3.141
  150OSM    C4F16671   0.059   4.582   3.229
  150OSM    H4F16672   0.108   4.681   3.227
  150OSM    H4G16673   0.126   4.495   3.213
  150OSM    C5F16674  -0.013   4.561   3.358
  150OSM    H5F16675  -0.059   4.460   3.364
  150OSM    H5G16676  -0.098   4.631   3.369
  150OSM    C6F16677   0.070   4.585   3.483
  150OSM    H6F16678   0.148   4.659   3.456
  150OSM    H6G16679   0.125   4.489   3.493
  150OSM    C7F16680  -0.010   4.617   3.603
  150OSM    H7F16681  -0.088   4.539   3.610
  150OSM    H7G16682  -0.065   4.712   3.584
  150OSM    C8F16683   0.068   4.626   3.741
  150OSM    H8F16684  -0.018   4.653   3.807
  150OSM    H8G16685   0.128   4.719   3.739
  150OSM    C9F16686   0.152   4.508   3.778
  150OSM    H9F16687   0.195   4.449   3.695
  150OSM   C10F16688   0.149   4.445   3.895
  150OSM   H10F16689   0.200   4.349   3.911
  150OSM   C11F16690   0.098   4.517   4.014
  150OSM   H11F16691  -0.013   4.506   4.008
  150OSM   H11G16692   0.126   4.624   4.006
  150OSM   C12F16693   0.170   4.479   4.144
  150OSM   H12F16694   0.279   4.496   4.134
  150OSM   H12G16695   0.158   4.370   4.161
  150OSM   C13F16696   0.125   4.563   4.260
  150OSM   H13F16697   0.017   4.539   4.269
  150OSM   H13G16698   0.147   4.669   4.236
  150OSM   C14F16699   0.196   4.532   4.393
  150OSM   H14F16700   0.302   4.564   4.403
  150OSM   H14G16701   0.190   4.426   4.423
  150OSM   C15F16702   0.129   4.619   4.497
  150OSM   H15F16703   0.023   4.631   4.465
  150OSM   H15G16704   0.164   4.724   4.497
  150OSM   C16F16705   0.130   4.552   4.633
  150OSM   H16F16706   0.225   4.573   4.686
  150OSM   H16G16707   0.120   4.442   4.635
  150OSM   C17F16708   0.008   4.588   4.715
  150OSM   H17F16709  -0.076   4.553   4.651
  150OSM   H17G16710  -0.007   4.698   4.713
  150OSM   C18F16711  -0.006   4.533   4.855
  150OSM   H18F16712  -0.102   4.567   4.899
  150OSM   H18G16713   0.081   4.561   4.918
  150OSM   H18H16714  -0.012   4.423   4.838
  151OSM      N16715   6.645   4.134   2.022
  151OSM    C1516716   6.508   4.133   1.968
  151OSM   H15A16717   6.503   4.117   1.861
  151OSM   H15B16718   6.460   4.224   2.001
  151OSM   H15C16719   6.457   4.043   1.999
  151OSM    C1416720   6.728   4.033   1.957
  151OSM   H14A16721   6.831   4.053   1.982
  151OSM   H14B16722   6.724   4.053   1.851
  151OSM   H14C16723   6.699   3.936   1.993
  151OSM    C1316724   6.698   4.273   1.997
  151OSM   H13A16725   6.724   4.285   1.893
  151OSM   H13B16726   6.783   4.299   2.059
  151OSM   H13C16727   6.613   4.338   2.006
  151OSM    C1216728   6.651   4.103   2.164
  151OSM   H12A16729   6.619   4.196   2.209
  151OSM   H12B16730   6.756   4.098   2.189
  151OSM    C1116731   6.582   3.983   2.227
  151OSM   H11A16732   6.472   3.993   2.243
  151OSM   H11B16733   6.623   3.974   2.330
  151OSM      P16734   6.515   3.776   2.076
  151OSM    O1316735   6.407   3.842   2.008
  151OSM    O1416736   6.586   3.668   2.007
  151OSM    O1116737   6.436   3.712   2.197
  151OSM    O1216738   6.617   3.872   2.149
  151OSM    C1S16739   6.500   3.669   2.322
  151OSM    H1S16740   6.606   3.699   2.333
  151OSM    H1T16741   6.496   3.558   2.322
  151OSM     NF16742   6.483   3.659   2.563
  151OSM    HNF16743   6.428   3.579   2.586
  151OSM    C2S16744   6.428   3.726   2.444
  151OSM    H2S16745   6.462   3.830   2.433
  151OSM    C3S16746   6.270   3.726   2.447
  151OSM    H3S16747   6.228   3.623   2.451
  151OSM     O316748   6.205   3.772   2.327
  151OSM    HO316749   6.279   3.792   2.270
  151OSM    C4S16750   6.210   3.797   2.567
  151OSM    H4S16751   6.217   3.731   2.655
  151OSM    C5S16752   6.141   3.913   2.584
  151OSM    H5S16753   6.129   3.965   2.488
  151OSM    C6S16754   6.088   3.966   2.713
  151OSM    H6S16755   5.978   3.970   2.700
  151OSM    H6T16756   6.131   4.068   2.718
  151OSM    C7S16757   6.136   3.897   2.842
  151OSM    H7S16758   6.247   3.899   2.836
  151OSM    H7T16759   6.108   3.790   2.851
  151OSM    C8S16760   6.093   3.985   2.960
  151OSM    H8S16761   5.982   3.986   2.960
  151OSM    H8T16762   6.107   4.094   2.943
  151OSM    C9S16763   6.134   3.936   3.093
  151OSM    H9S16764   6.239   3.900   3.095
  151OSM    H9T16765   6.072   3.845   3.110
  151OSM   C10S16766   6.110   4.032   3.206
  151OSM   H10S16767   6.003   4.061   3.212
  151OSM   H10T16768   6.161   4.126   3.176
  151OSM   C11S16769   6.152   3.981   3.340
  151OSM   H11S16770   6.257   3.955   3.367
  151OSM   H11T16771   6.101   3.883   3.350
  151OSM   C12S16772   6.118   4.063   3.465
  151OSM   H12S16773   6.009   4.057   3.488
  151OSM   H12T16774   6.143   4.168   3.437
  151OSM   C13S16775   6.194   4.027   3.592
  151OSM   H13S16776   6.172   4.098   3.675
  151OSM   H13T16777   6.302   4.038   3.572
  151OSM   C14S16778   6.166   3.888   3.650
  151OSM   H14S16779   6.233   3.808   3.609
  151OSM   H14T16780   6.066   3.843   3.628
  151OSM   C15S16781   6.189   3.875   3.803
  151OSM   H15S16782   6.134   3.948   3.865
  151OSM   H15T16783   6.296   3.905   3.810
  151OSM   C16S16784   6.178   3.734   3.859
  151OSM   H16S16785   6.239   3.676   3.787
  151OSM   H16T16786   6.074   3.696   3.862
  151OSM   C17S16787   6.248   3.719   3.997
  151OSM   H17S16788   6.206   3.798   4.063
  151OSM   H17T16789   6.356   3.744   3.998
  151OSM   C18S16790   6.234   3.581   4.053
  151OSM   H18S16791   6.296   3.570   4.145
  151OSM   H18T16792   6.274   3.508   3.979
  151OSM   H18U16793   6.129   3.560   4.082
  151OSM    C1F16794   6.608   3.673   2.600
  151OSM     OF16795   6.687   3.757   2.552
  151OSM    C2F16796   6.658   3.583   2.702
  151OSM    H2F16797   6.656   3.477   2.667
  151OSM    H2G16798   6.596   3.592   2.794
  151OSM    C3F16799   6.800   3.612   2.752
  151OSM    H3F16800   6.804   3.711   2.801
  151OSM    H3G16801   6.877   3.613   2.671
  151OSM    C4F16802   6.849   3.505   2.844
  151OSM    H4F16803   6.960   3.503   2.856
  151OSM    H4G16804   6.834   3.412   2.786
  151OSM    C5F16805   6.780   3.513   2.986
  151OSM    H5F16806   6.672   3.488   2.979
  151OSM    H5G16807   6.792   3.611   3.037
  151OSM    C6F16808   6.825   3.403   3.085
  151OSM    H6F16809   6.932   3.423   3.106
  151OSM    H6G16810   6.825   3.307   3.029
  151OSM    C7F16811   6.739   3.405   3.212
  151OSM    H7F16812   6.631   3.407   3.187
  151OSM    H7G16813   6.755   3.504   3.260
  151OSM    C8F16814   6.760   3.286   3.306
  151OSM    H8F16815   6.731   3.196   3.247
  151OSM    H8G16816   6.685   3.289   3.388
  151OSM    C9F16817   6.905   3.268   3.356
  151OSM    H9F16818   6.980   3.266   3.275
  151OSM   C10F16819   6.950   3.261   3.481
  151OSM   H10F16820   7.059   3.249   3.484
  151OSM   C11F16821   6.874   3.277   3.609
  151OSM   H11F16822   6.767   3.250   3.603
  151OSM   H11G16823   6.880   3.380   3.651
  151OSM   C12F16824   6.950   3.182   3.708
  151OSM   H12F16825   7.060   3.194   3.724
  151OSM   H12G16826   6.928   3.080   3.669
  151OSM   C13F16827   6.904   3.185   3.851
  151OSM   H13F16828   6.793   3.184   3.848
  151OSM   H13G16829   6.930   3.289   3.880
  151OSM   C14F16830   6.959   3.082   3.941
  151OSM   H14F16831   7.070   3.081   3.938
  151OSM   H14G16832   6.925   2.987   3.898
  151OSM   C15F16833   6.911   3.097   4.088
  151OSM   H15F16834   6.947   3.002   4.132
  151OSM   H15G16835   6.800   3.093   4.087
  151OSM   C16F16836   6.962   3.216   4.165
  151OSM   H16F16837   6.902   3.306   4.142
  151OSM   H16G16838   7.071   3.232   4.153
  151OSM   C17F16839   6.939   3.205   4.316
  151OSM   H17F16840   6.829   3.189   4.323
  151OSM   H17G16841   6.974   3.297   4.368
  151OSM   C18F16842   7.017   3.094   4.384
  151OSM   H18F16843   7.029   3.124   4.490
  151OSM   H18G16844   7.123   3.077   4.352
  151OSM   H18H16845   6.947   3.008   4.384
  152OSM      N16846   1.484   4.720   2.255
  152OSM    C1516847   1.481   4.600   2.164
  152OSM   H15A16848   1.562   4.609   2.093
  152OSM   H15B16849   1.397   4.604   2.096
  152OSM   H15C16850   1.473   4.514   2.228
  152OSM    C1416851   1.449   4.840   2.170
  152OSM   H14A16852   1.489   4.832   2.070
  152OSM   H14B16853   1.476   4.934   2.214
  152OSM   H14C16854   1.341   4.844   2.163
  152OSM    C1316855   1.384   4.703   2.361
  152OSM   H13A16856   1.383   4.789   2.427
  152OSM   H13B16857   1.401   4.604   2.401
  152OSM   H13C16858   1.285   4.708   2.319
  152OSM    C1216859   1.628   4.733   2.304
  152OSM   H12A16860   1.688   4.742   2.215
  152OSM   H12B16861   1.676   4.644   2.340
  152OSM    C1116862   1.660   4.848   2.410
  152OSM   H11A16863   1.765   4.843   2.444
  152OSM   H11B16864   1.595   4.835   2.500
  152OSM      P16865   1.719   5.062   2.259
  152OSM    O1316866   1.813   4.968   2.205
  152OSM    O1416867   1.633   5.139   2.168
  152OSM    O1116868   1.807   5.151   2.356
  152OSM    O1216869   1.622   4.979   2.353
  152OSM    C1S16870   1.784   5.147   2.499
  152OSM    H1S16871   1.810   5.047   2.540
  152OSM    H1T16872   1.676   5.158   2.523
  152OSM     NF16873   1.811   5.263   2.708
  152OSM    HNF16874   1.744   5.332   2.734
  152OSM    C2S16875   1.857   5.258   2.575
  152OSM    H2S16876   1.962   5.222   2.566
  152OSM    C3S16877   1.850   5.401   2.512
  152OSM    H3S16878   1.742   5.426   2.522
  152OSM     O316879   1.854   5.404   2.369
  152OSM    HO316880   1.884   5.315   2.348
  152OSM    C4S16881   1.954   5.500   2.568
  152OSM    H4S16882   1.913   5.568   2.645
  152OSM    C5S16883   2.074   5.529   2.510
  152OSM    H5S16884   2.100   5.464   2.425
  152OSM    C6S16885   2.174   5.631   2.559
  152OSM    H6S16886   2.191   5.708   2.481
  152OSM    H6T16887   2.274   5.582   2.556
  152OSM    C7S16888   2.139   5.704   2.688
  152OSM    H7S16889   2.137   5.637   2.776
  152OSM    H7T16890   2.045   5.762   2.675
  152OSM    C8S16891   2.251   5.801   2.721
  152OSM    H8S16892   2.259   5.879   2.643
  152OSM    H8T16893   2.344   5.740   2.716
  152OSM    C9S16894   2.246   5.864   2.853
  152OSM    H9S16895   2.186   5.799   2.920
  152OSM    H9T16896   2.194   5.962   2.843
  152OSM   C10S16897   2.388   5.889   2.913
  152OSM   H10S16898   2.448   5.961   2.853
  152OSM   H10T16899   2.449   5.796   2.920
  152OSM   C11S16900   2.374   5.947   3.056
  152OSM   H11S16901   2.312   5.878   3.116
  152OSM   H11T16902   2.335   6.049   3.035
  152OSM   C12S16903   2.517   5.972   3.123
  152OSM   H12S16904   2.547   6.078   3.113
  152OSM   H12T16905   2.595   5.907   3.078
  152OSM   C13S16906   2.522   5.950   3.274
  152OSM   H13S16907   2.478   6.037   3.328
  152OSM   H13T16908   2.632   5.944   3.289
  152OSM   C14S16909   2.469   5.814   3.328
  152OSM   H14S16910   2.493   5.735   3.254
  152OSM   H14T16911   2.358   5.814   3.334
  152OSM   C15S16912   2.531   5.785   3.466
  152OSM   H15S16913   2.517   5.880   3.523
  152OSM   H15T16914   2.642   5.780   3.462
  152OSM   C16S16915   2.494   5.655   3.528
  152OSM   H16S16916   2.501   5.569   3.458
  152OSM   H16T16917   2.393   5.660   3.572
  152OSM   C17S16918   2.567   5.618   3.654
  152OSM   H17S16919   2.542   5.690   3.735
  152OSM   H17T16920   2.674   5.632   3.629
  152OSM   C18S16921   2.530   5.478   3.707
  152OSM   H18S16922   2.520   5.476   3.817
  152OSM   H18T16923   2.618   5.412   3.693
  152OSM   H18U16924   2.440   5.423   3.671
  152OSM    C1F16925   1.823   5.154   2.789
  152OSM     OF16926   1.912   5.071   2.758
  152OSM    C2F16927   1.733   5.134   2.909
  152OSM    H2F16928   1.642   5.079   2.877
  152OSM    H2G16929   1.707   5.236   2.943
  152OSM    C3F16930   1.810   5.056   3.022
  152OSM    H3F16931   1.908   5.103   3.044
  152OSM    H3G16932   1.832   4.948   3.007
  152OSM    C4F16933   1.734   5.062   3.158
  152OSM    H4F16934   1.629   5.028   3.155
  152OSM    H4G16935   1.721   5.172   3.168
  152OSM    C5F16936   1.810   4.997   3.269
  152OSM    H5F16937   1.913   5.040   3.268
  152OSM    H5G16938   1.826   4.888   3.255
  152OSM    C6F16939   1.757   5.037   3.407
  152OSM    H6F16940   1.654   4.995   3.412
  152OSM    H6G16941   1.737   5.146   3.415
  152OSM    C7F16942   1.850   4.973   3.511
  152OSM    H7F16943   1.955   5.008   3.510
  152OSM    H7G16944   1.849   4.864   3.488
  152OSM    C8F16945   1.793   4.978   3.654
  152OSM    H8F16946   1.852   4.913   3.723
  152OSM    H8G16947   1.688   4.943   3.664
  152OSM    C9F16948   1.784   5.120   3.694
  152OSM    H9F16949   1.718   5.181   3.630
  152OSM   C10F16950   1.838   5.176   3.801
  152OSM   H10F16951   1.835   5.285   3.791
  152OSM   C11F16952   1.927   5.105   3.892
  152OSM   H11F16953   2.034   5.130   3.873
  152OSM   H11G16954   1.905   4.996   3.895
  152OSM   C12F16955   1.901   5.149   4.040
  152OSM   H12F16956   1.885   5.259   4.044
  152OSM   H12G16957   1.984   5.129   4.112
  152OSM   C13F16958   1.777   5.085   4.098
  152OSM   H13F16959   1.787   4.974   4.105
  152OSM   H13G16960   1.687   5.112   4.039
  152OSM   C14F16961   1.748   5.131   4.242
  152OSM   H14F16962   1.722   5.238   4.232
  152OSM   H14G16963   1.841   5.126   4.303
  152OSM   C15F16964   1.632   5.049   4.318
  152OSM   H15F16965   1.658   4.942   4.309
  152OSM   H15G16966   1.540   5.071   4.259
  152OSM   C16F16967   1.608   5.081   4.465
  152OSM   H16F16968   1.573   5.185   4.479
  152OSM   H16G16969   1.708   5.073   4.513
  152OSM   C17F16970   1.510   4.985   4.525
  152OSM   H17F16971   1.416   4.989   4.465
  152OSM   H17G16972   1.475   5.014   4.627
  152OSM   C18F16973   1.548   4.837   4.530
  152OSM   H18F16974   1.637   4.814   4.593
  152OSM   H18G16975   1.561   4.783   4.435
  152OSM   H18H16976   1.473   4.785   4.594
  153OSM      N16977   1.378   5.445   2.257
  153OSM    C1516978   1.304   5.319   2.217
  153OSM   H15A16979   1.207   5.335   2.174
  153OSM   H15B16980   1.295   5.265   2.311
  153OSM   H15C16981   1.361   5.272   2.138
  153OSM    C1416982   1.505   5.407   2.312
  153OSM   H14A16983   1.486   5.338   2.393
  153OSM   H14B16984   1.556   5.495   2.346
  153OSM   H14C16985   1.570   5.351   2.247
  153OSM    C1316986   1.411   5.528   2.138
  153OSM   H13A16987   1.324   5.588   2.115
  153OSM   H13B16988   1.438   5.477   2.047
  153OSM   H13C16989   1.495   5.593   2.156
  153OSM    C1216990   1.309   5.522   2.359
  153OSM   H12A16991   1.217   5.555   2.313
  153OSM   H12B16992   1.370   5.610   2.372
  153OSM    C1116993   1.285   5.467   2.500
  153OSM   H11A16994   1.245   5.541   2.574
  153OSM   H11B16995   1.389   5.454   2.538
  153OSM      P16996   1.049   5.333   2.477
  153OSM    O1316997   1.005   5.373   2.339
  153OSM    O1416998   0.996   5.200   2.516
  153OSM    O1116999   1.002   5.439   2.577
  153OSM    O1217000   1.210   5.345   2.492
  153OSM    C1S17001   1.021   5.416   2.719
  153OSM    H1S17002   1.115   5.361   2.741
  153OSM    H1T17003   0.927   5.363   2.746
  153OSM     NF17004   1.063   5.522   2.941
  153OSM    HNF17005   0.988   5.529   3.007
  153OSM    C2S17006   1.025   5.548   2.802
  153OSM    H2S17007   1.114   5.595   2.755
  153OSM    C3S17008   0.897   5.640   2.778
  153OSM    H3S17009   0.802   5.588   2.805
  153OSM     O317010   0.875   5.673   2.641
  153OSM    HO317011   0.923   5.603   2.594
  153OSM    C4S17012   0.902   5.754   2.869
  153OSM    H4S17013   0.855   5.726   2.964
  153OSM    C5S17014   0.959   5.879   2.857
  153OSM    H5S17015   1.012   5.906   2.765
  153OSM    C6S17016   0.963   5.987   2.954
  153OSM    H6S17017   0.901   6.075   2.924
  153OSM    H6T17018   1.069   6.020   2.954
  153OSM    C7S17019   0.935   5.962   3.101
  153OSM    H7S17020   0.985   5.873   3.143
  153OSM    H7T17021   0.824   5.955   3.092
  153OSM    C8S17022   0.953   6.075   3.199
  153OSM    H8S17023   0.891   6.158   3.159
  153OSM    H8T17024   1.058   6.112   3.202
  153OSM    C9S17025   0.900   6.043   3.333
  153OSM    H9S17026   0.969   5.959   3.357
  153OSM    H9T17027   0.800   6.003   3.358
  153OSM   C10S17028   0.927   6.157   3.441
  153OSM   H10S17029   0.865   6.246   3.416
  153OSM   H10T17030   1.032   6.194   3.436
  153OSM   C11S17031   0.910   6.095   3.580
  153OSM   H11S17032   0.988   6.015   3.582
  153OSM   H11T17033   0.814   6.039   3.576
  153OSM   C12S17034   0.927   6.202   3.695
  153OSM   H12S17035   0.836   6.265   3.686
  153OSM   H12T17036   1.022   6.257   3.673
  153OSM   C13S17037   0.941   6.143   3.839
  153OSM   H13S17038   1.027   6.073   3.844
  153OSM   H13T17039   0.847   6.088   3.860
  153OSM   C14S17040   0.935   6.258   3.941
  153OSM   H14S17041   0.841   6.316   3.946
  153OSM   H14T17042   1.013   6.331   3.912
  153OSM   C15S17043   0.962   6.198   4.079
  153OSM   H15S17044   1.058   6.144   4.067
  153OSM   H15T17045   0.888   6.121   4.109
  153OSM   C16S17046   0.989   6.299   4.193
  153OSM   H16S17047   0.935   6.392   4.166
  153OSM   H16T17048   1.096   6.327   4.185
  153OSM   C17S17049   0.964   6.249   4.335
  153OSM   H17S17050   1.045   6.179   4.362
  153OSM   H17T17051   0.871   6.189   4.337
  153OSM   C18S17052   0.960   6.367   4.435
  153OSM   H18S17053   1.054   6.426   4.437
  153OSM   H18T17054   0.961   6.316   4.533
  153OSM   H18U17055   0.879   6.442   4.424
  153OSM    C1F17056   1.189   5.478   2.969
  153OSM     OF17057   1.279   5.471   2.882
  153OSM    C2F17058   1.209   5.462   3.113
  153OSM    H2F17059   1.171   5.362   3.144
  153OSM    H2G17060   1.150   5.539   3.167
  153OSM    C3F17061   1.355   5.486   3.159
  153OSM    H3F17062   1.374   5.594   3.142
  153OSM    H3G17063   1.424   5.429   3.094
  153OSM    C4F17064   1.379   5.438   3.303
  153OSM    H4F17065   1.355   5.330   3.311
  153OSM    H4G17066   1.319   5.509   3.365
  153OSM    C5F17067   1.530   5.457   3.330
  153OSM    H5F17068   1.565   5.558   3.298
  153OSM    H5G17069   1.577   5.381   3.265
  153OSM    C6F17070   1.578   5.433   3.470
  153OSM    H6F17071   1.689   5.428   3.467
  153OSM    H6G17072   1.547   5.331   3.501
  153OSM    C7F17073   1.527   5.533   3.570
  153OSM    H7F17074   1.421   5.524   3.603
  153OSM    H7G17075   1.513   5.627   3.511
  153OSM    C8F17076   1.632   5.547   3.683
  153OSM    H8F17077   1.727   5.579   3.634
  153OSM    H8G17078   1.664   5.456   3.738
  153OSM    C9F17079   1.578   5.659   3.767
  153OSM    H9F17080   1.535   5.742   3.709
  153OSM   C10F17081   1.578   5.673   3.900
  153OSM   H10F17082   1.528   5.757   3.950
  153OSM   C11F17083   1.626   5.569   3.993
  153OSM   H11F17084   1.704   5.510   3.940
  153OSM   H11G17085   1.546   5.493   4.002
  153OSM   C12F17086   1.682   5.620   4.131
  153OSM   H12F17087   1.607   5.683   4.183
  153OSM   H12G17088   1.770   5.683   4.108
  153OSM   C13F17089   1.713   5.508   4.234
  153OSM   H13F17090   1.795   5.441   4.201
  153OSM   H13G17091   1.619   5.449   4.238
  153OSM   C14F17092   1.747   5.571   4.369
  153OSM   H14F17093   1.652   5.617   4.403
  153OSM   H14G17094   1.824   5.650   4.378
  153OSM   C15F17095   1.784   5.454   4.463
  153OSM   H15F17096   1.878   5.405   4.428
  153OSM   H15G17097   1.706   5.376   4.462
  153OSM   C16F17098   1.807   5.489   4.610
  153OSM   H16F17099   1.722   5.557   4.634
  153OSM   H16G17100   1.902   5.545   4.619
  153OSM   C17F17101   1.808   5.364   4.703
  153OSM   H17F17102   1.869   5.289   4.649
  153OSM   H17G17103   1.710   5.313   4.695
  153OSM   C18F17104   1.862   5.392   4.840
  153OSM   H18F17105   1.879   5.301   4.901
  153OSM   H18G17106   1.796   5.464   4.894
  153OSM   H18H17107   1.959   5.445   4.831
  154OSM      N17108   6.293   2.996   2.005
  154OSM    C1517109   6.334   2.952   1.868
  154OSM   H15A17110   6.379   2.855   1.887
  154OSM   H15B17111   6.403   3.023   1.826
  154OSM   H15C17112   6.247   2.962   1.805
  154OSM    C1417113   6.229   3.129   1.983
  154OSM   H14A17114   6.197   3.185   2.070
  154OSM   H14B17115   6.137   3.116   1.927
  154OSM   H14C17116   6.282   3.189   1.911
  154OSM    C1317117   6.203   2.894   2.061
  154OSM   H13A17118   6.167   2.926   2.157
  154OSM   H13B17119   6.255   2.802   2.082
  154OSM   H13C17120   6.117   2.884   1.997
  154OSM    C1217121   6.415   3.009   2.099
  154OSM   H12A17122   6.482   3.082   2.055
  154OSM   H12B17123   6.475   2.920   2.092
  154OSM    C1117124   6.372   3.035   2.248
  154OSM   H11A17125   6.465   3.057   2.303
  154OSM   H11B17126   6.326   2.947   2.299
  154OSM      P17127   6.324   3.283   2.289
  154OSM    O1317128   6.466   3.302   2.253
  154OSM    O1417129   6.219   3.368   2.232
  154OSM    O1117130   6.307   3.290   2.453
  154OSM    O1217131   6.273   3.138   2.262
  154OSM    C1S17132   6.200   3.234   2.524
  154OSM    H1S17133   6.198   3.124   2.509
  154OSM    H1T17134   6.110   3.277   2.477
  154OSM     NF17135   6.083   3.212   2.746
  154OSM    HNF17136   6.028   3.285   2.787
  154OSM    C2S17137   6.205   3.261   2.681
  154OSM    H2S17138   6.294   3.211   2.724
  154OSM    C3S17139   6.236   3.412   2.711
  154OSM    H3S17140   6.158   3.475   2.664
  154OSM     O317141   6.359   3.446   2.650
  154OSM    HO317142   6.364   3.382   2.578
  154OSM    C4S17143   6.236   3.449   2.861
  154OSM    H4S17144   6.137   3.481   2.895
  154OSM    C5S17145   6.342   3.441   2.949
  154OSM    H5S17146   6.440   3.410   2.910
  154OSM    C6S17147   6.323   3.481   3.096
  154OSM    H6S17148   6.364   3.407   3.169
  154OSM    H6T17149   6.217   3.494   3.126
  154OSM    C7S17150   6.394   3.610   3.136
  154OSM    H7S17151   6.369   3.700   3.075
  154OSM    H7T17152   6.501   3.591   3.117
  154OSM    C8S17153   6.366   3.639   3.288
  154OSM    H8S17154   6.268   3.596   3.315
  154OSM    H8T17155   6.368   3.747   3.316
  154OSM    C9S17156   6.467   3.564   3.374
  154OSM    H9S17157   6.555   3.631   3.389
  154OSM    H9T17158   6.501   3.465   3.338
  154OSM   C10S17159   6.417   3.544   3.520
  154OSM   H10S17160   6.325   3.481   3.523
  154OSM   H10T17161   6.407   3.636   3.582
  154OSM   C11S17162   6.518   3.460   3.603
  154OSM   H11S17163   6.616   3.511   3.594
  154OSM   H11T17164   6.545   3.366   3.550
  154OSM   C12S17165   6.494   3.448   3.753
  154OSM   H12S17166   6.397   3.396   3.764
  154OSM   H12T17167   6.462   3.547   3.792
  154OSM   C13S17168   6.606   3.387   3.843
  154OSM   H13S17169   6.694   3.455   3.842
  154OSM   H13T17170   6.632   3.286   3.805
  154OSM   C14S17171   6.571   3.361   3.993
  154OSM   H14S17172   6.636   3.277   4.027
  154OSM   H14T17173   6.473   3.313   4.010
  154OSM   C15S17174   6.604   3.483   4.084
  154OSM   H15S17175   6.527   3.558   4.058
  154OSM   H15T17176   6.710   3.516   4.092
  154OSM   C16S17177   6.579   3.441   4.227
  154OSM   H16S17178   6.634   3.349   4.256
  154OSM   H16T17179   6.473   3.418   4.254
  154OSM   C17S17180   6.614   3.552   4.324
  154OSM   H17S17181   6.548   3.551   4.413
  154OSM   H17T17182   6.610   3.656   4.287
  154OSM   C18S17183   6.762   3.540   4.377
  154OSM   H18S17184   6.772   3.603   4.467
  154OSM   H18T17185   6.837   3.573   4.302
  154OSM   H18U17186   6.786   3.436   4.407
  154OSM    C1F17187   6.053   3.085   2.751
  154OSM     OF17188   6.130   2.996   2.713
  154OSM    C2F17189   5.917   3.060   2.800
  154OSM    H2F17190   5.848   3.024   2.722
  154OSM    H2G17191   5.868   3.155   2.832
  154OSM    C3F17192   5.916   2.954   2.917
  154OSM    H3F17193   5.967   2.871   2.865
  154OSM    H3G17194   5.811   2.936   2.949
  154OSM    C4F17195   5.997   2.998   3.040
  154OSM    H4F17196   6.100   3.021   3.006
  154OSM    H4G17197   5.998   2.916   3.115
  154OSM    C5F17198   5.936   3.119   3.118
  154OSM    H5F17199   5.853   3.080   3.180
  154OSM    H5G17200   5.898   3.183   3.034
  154OSM    C6F17201   6.030   3.185   3.208
  154OSM    H6F17202   5.978   3.275   3.248
  154OSM    H6G17203   6.121   3.215   3.152
  154OSM    C7F17204   6.078   3.109   3.336
  154OSM    H7F17205   6.071   2.999   3.323
  154OSM    H7G17206   6.010   3.142   3.416
  154OSM    C8F17207   6.219   3.155   3.375
  154OSM    H8F17208   6.237   3.132   3.482
  154OSM    H8G17209   6.244   3.263   3.364
  154OSM    C9F17210   6.328   3.080   3.308
  154OSM    H9F17211   6.303   3.072   3.201
  154OSM   C10F17212   6.452   3.056   3.350
  154OSM   H10F17213   6.510   2.980   3.296
  154OSM   C11F17214   6.498   3.070   3.494
  154OSM   H11F17215   6.421   3.118   3.558
  154OSM   H11G17216   6.590   3.131   3.490
  154OSM   C12F17217   6.522   2.931   3.554
  154OSM   H12F17218   6.590   2.870   3.491
  154OSM   H12G17219   6.430   2.869   3.557
  154OSM   C13F17220   6.573   2.939   3.702
  154OSM   H13F17221   6.501   2.992   3.769
  154OSM   H13G17222   6.665   3.001   3.691
  154OSM   C14F17223   6.603   2.805   3.758
  154OSM   H14F17224   6.668   2.751   3.686
  154OSM   H14G17225   6.509   2.746   3.767
  154OSM   C15F17226   6.677   2.813   3.895
  154OSM   H15F17227   6.613   2.806   3.985
  154OSM   H15G17228   6.727   2.912   3.904
  154OSM   C16F17229   6.784   2.706   3.921
  154OSM   H16F17230   6.821   2.727   4.024
  154OSM   H16G17231   6.868   2.724   3.852
  154OSM   C17F17232   6.725   2.558   3.906
  154OSM   H17F17233   6.677   2.546   3.807
  154OSM   H17G17234   6.645   2.543   3.982
  154OSM   C18F17235   6.830   2.448   3.926
  154OSM   H18F17236   6.784   2.348   3.913
  154OSM   H18G17237   6.872   2.448   4.029
  154OSM   H18H17238   6.903   2.478   3.848
  155OSM      N17239   1.481   1.067   1.931
  155OSM    C1517240   1.382   1.192   1.938
  155OSM   H15A17241   1.353   1.239   1.845
  155OSM   H15B17242   1.428   1.261   2.007
  155OSM   H15C17243   1.293   1.150   1.983
  155OSM    C1417244   1.474   0.997   2.060
  155OSM   H14A17245   1.370   0.984   2.083
  155OSM   H14B17246   1.507   1.065   2.137
  155OSM   H14C17247   1.532   0.906   2.051
  155OSM    C1317248   1.438   0.980   1.817
  155OSM   H13A17249   1.440   1.036   1.725
  155OSM   H13B17250   1.341   0.940   1.841
  155OSM   H13C17251   1.504   0.895   1.802
  155OSM    C1217252   1.622   1.114   1.907
  155OSM   H12A17253   1.619   1.155   1.807
  155OSM   H12B17254   1.687   1.029   1.896
  155OSM    C1117255   1.691   1.225   2.001
  155OSM   H11A17256   1.644   1.325   2.011
  155OSM   H11B17257   1.791   1.258   1.966
  155OSM      P17258   1.815   1.055   2.163
  155OSM    O1317259   1.747   0.931   2.207
  155OSM    O1417260   1.914   1.060   2.058
  155OSM    O1117261   1.884   1.117   2.296
  155OSM    O1217262   1.703   1.161   2.135
  155OSM    C1S17263   1.830   1.239   2.349
  155OSM    H1S17264   1.735   1.215   2.400
  155OSM    H1T17265   1.811   1.312   2.267
  155OSM     NF17266   1.855   1.439   2.504
  155OSM    HNF17267   1.859   1.527   2.457
  155OSM    C2S17268   1.926   1.322   2.446
  155OSM    H2S17269   1.951   1.251   2.528
  155OSM    C3S17270   2.058   1.361   2.380
  155OSM    H3S17271   2.048   1.452   2.317
  155OSM     O317272   2.125   1.255   2.316
  155OSM    HO317273   2.059   1.187   2.328
  155OSM    C4S17274   2.144   1.413   2.494
  155OSM    H4S17275   2.159   1.522   2.487
  155OSM    C5S17276   2.224   1.348   2.578
  155OSM    H5S17277   2.229   1.239   2.569
  155OSM    C6S17278   2.323   1.407   2.672
  155OSM    H6S17279   2.376   1.489   2.620
  155OSM    H6T17280   2.396   1.327   2.696
  155OSM    C7S17281   2.270   1.462   2.805
  155OSM    H7S17282   2.191   1.538   2.786
  155OSM    H7T17283   2.355   1.508   2.860
  155OSM    C8S17284   2.222   1.346   2.901
  155OSM    H8S17285   2.301   1.269   2.919
  155OSM    H8T17286   2.130   1.296   2.863
  155OSM    C9S17287   2.181   1.406   3.038
  155OSM    H9S17288   2.143   1.321   3.100
  155OSM    H9T17289   2.092   1.473   3.036
  155OSM   C10S17290   2.297   1.461   3.122
  155OSM   H10S17291   2.329   1.549   3.063
  155OSM   H10T17292   2.372   1.380   3.136
  155OSM   C11S17293   2.243   1.481   3.268
  155OSM   H11S17294   2.200   1.383   3.298
  155OSM   H11T17295   2.156   1.549   3.256
  155OSM   C12S17296   2.340   1.536   3.365
  155OSM   H12S17297   2.396   1.616   3.312
  155OSM   H12T17298   2.418   1.461   3.389
  155OSM   C13S17299   2.280   1.595   3.489
  155OSM   H13S17300   2.215   1.518   3.536
  155OSM   H13T17301   2.241   1.695   3.459
  155OSM   C14S17302   2.394   1.628   3.586
  155OSM   H14S17303   2.486   1.653   3.528
  155OSM   H14T17304   2.414   1.535   3.644
  155OSM   C15S17305   2.347   1.730   3.691
  155OSM   H15S17306   2.245   1.697   3.721
  155OSM   H15T17307   2.319   1.825   3.640
  155OSM   C16S17308   2.436   1.755   3.818
  155OSM   H16S17309   2.455   1.657   3.867
  155OSM   H16T17310   2.383   1.832   3.878
  155OSM   C17S17311   2.570   1.807   3.787
  155OSM   H17S17312   2.551   1.900   3.729
  155OSM   H17T17313   2.638   1.746   3.724
  155OSM   C18S17314   2.651   1.831   3.916
  155OSM   H18S17315   2.609   1.912   3.980
  155OSM   H18T17316   2.748   1.871   3.881
  155OSM   H18U17317   2.669   1.733   3.965
  155OSM    C1F17318   1.764   1.419   2.596
  155OSM     OF17319   1.739   1.309   2.646
  155OSM    C2F17320   1.698   1.543   2.632
  155OSM    H2F17321   1.601   1.535   2.579
  155OSM    H2G17322   1.762   1.628   2.602
  155OSM    C3F17323   1.676   1.550   2.787
  155OSM    H3F17324   1.609   1.466   2.815
  155OSM    H3G17325   1.628   1.648   2.808
  155OSM    C4F17326   1.802   1.546   2.879
  155OSM    H4F17327   1.884   1.596   2.824
  155OSM    H4G17328   1.828   1.440   2.900
  155OSM    C5F17329   1.776   1.632   3.002
  155OSM    H5F17330   1.677   1.607   3.047
  155OSM    H5G17331   1.767   1.737   2.967
  155OSM    C6F17332   1.874   1.623   3.125
  155OSM    H6F17333   1.956   1.692   3.095
  155OSM    H6G17334   1.907   1.520   3.148
  155OSM    C7F17335   1.802   1.675   3.245
  155OSM    H7F17336   1.739   1.603   3.303
  155OSM    H7G17337   1.733   1.754   3.208
  155OSM    C8F17338   1.893   1.725   3.357
  155OSM    H8F17339   1.971   1.792   3.314
  155OSM    H8G17340   1.942   1.636   3.402
  155OSM    C9F17341   1.813   1.801   3.458
  155OSM    H9F17342   1.759   1.884   3.411
  155OSM   C10F17343   1.812   1.777   3.594
  155OSM   H10F17344   1.726   1.822   3.646
  155OSM   C11F17345   1.887   1.667   3.667
  155OSM   H11F17346   1.987   1.640   3.626
  155OSM   H11G17347   1.829   1.572   3.656
  155OSM   C12F17348   1.893   1.688   3.815
  155OSM   H12F17349   1.950   1.597   3.846
  155OSM   H12G17350   1.791   1.675   3.856
  155OSM   C13F17351   1.962   1.817   3.873
  155OSM   H13F17352   1.899   1.906   3.856
  155OSM   H13G17353   2.054   1.836   3.813
  155OSM   C14F17354   2.005   1.801   4.018
  155OSM   H14F17355   1.916   1.805   4.085
  155OSM   H14G17356   2.070   1.890   4.030
  155OSM   C15F17357   2.106   1.690   4.051
  155OSM   H15F17358   2.188   1.691   3.975
  155OSM   H15G17359   2.049   1.595   4.041
  155OSM   C16F17360   2.153   1.708   4.196
  155OSM   H16F17361   2.069   1.700   4.268
  155OSM   H16G17362   2.200   1.808   4.201
  155OSM   C17F17363   2.254   1.599   4.244
  155OSM   H17F17364   2.210   1.501   4.275
  155OSM   H17G17365   2.308   1.635   4.333
  155OSM   C18F17366   2.362   1.561   4.143
  155OSM   H18F17367   2.315   1.516   4.053
  155OSM   H18G17368   2.430   1.485   4.187
  155OSM   H18H17369   2.431   1.644   4.118
  156OSM      N17370   3.990   0.067   1.906
  156OSM    C1517371   3.991   0.022   2.053
  156OSM   H15A17372   4.090   0.033   2.095
  156OSM   H15B17373   3.959  -0.081   2.064
  156OSM   H15C17374   3.919   0.076   2.113
  156OSM    C1417375   3.849   0.043   1.864
  156OSM   H14A17376   3.825   0.061   1.760
  156OSM   H14B17377   3.779   0.095   1.929
  156OSM   H14C17378   3.820  -0.060   1.874
  156OSM    C1317379   4.023   0.210   1.913
  156OSM   H13A17380   4.128   0.216   1.939
  156OSM   H13B17381   3.954   0.268   1.973
  156OSM   H13C17382   4.030   0.260   1.818
  156OSM    C1217383   4.082  -0.017   1.822
  156OSM   H12A17384   4.059  -0.005   1.717
  156OSM   H12B17385   4.054  -0.121   1.826
  156OSM    C1117386   4.232  -0.013   1.858
  156OSM   H11A17387   4.257   0.095   1.851
  156OSM   H11B17388   4.283  -0.070   1.777
  156OSM      P17389   4.284  -0.223   2.013
  156OSM    O1317390   4.169  -0.273   2.097
  156OSM    O1417391   4.308  -0.294   1.883
  156OSM    O1117392   4.419  -0.223   2.100
  156OSM    O1217393   4.265  -0.070   1.988
  156OSM    C1S17394   4.432  -0.123   2.200
  156OSM    H1S17395   4.364  -0.036   2.187
  156OSM    H1T17396   4.525  -0.063   2.198
  156OSM     NF17397   4.404  -0.077   2.439
  156OSM    HNF17398   4.497  -0.059   2.472
  156OSM    C2S17399   4.403  -0.179   2.340
  156OSM    H2S17400   4.302  -0.225   2.337
  156OSM    C3S17401   4.496  -0.297   2.374
  156OSM    H3S17402   4.601  -0.261   2.386
  156OSM     O317403   4.491  -0.397   2.280
  156OSM    HO317404   4.435  -0.362   2.211
  156OSM    C4S17405   4.453  -0.352   2.502
  156OSM    H4S17406   4.510  -0.305   2.583
  156OSM    C5S17407   4.366  -0.444   2.533
  156OSM    H5S17408   4.318  -0.505   2.454
  156OSM    C6S17409   4.330  -0.483   2.673
  156OSM    H6S17410   4.367  -0.587   2.691
  156OSM    H6T17411   4.219  -0.487   2.678
  156OSM    C7S17412   4.373  -0.384   2.780
  156OSM    H7S17413   4.343  -0.281   2.749
  156OSM    H7T17414   4.483  -0.380   2.793
  156OSM    C8S17415   4.322  -0.412   2.918
  156OSM    H8S17416   4.365  -0.504   2.961
  156OSM    H8T17417   4.211  -0.414   2.912
  156OSM    C9S17418   4.361  -0.303   3.013
  156OSM    H9S17419   4.316  -0.213   2.968
  156OSM    H9T17420   4.471  -0.291   3.021
  156OSM   C10S17421   4.300  -0.310   3.158
  156OSM   H10S17422   4.189  -0.317   3.163
  156OSM   H10T17423   4.338  -0.222   3.215
  156OSM   C11S17424   4.335  -0.446   3.235
  156OSM   H11S17425   4.445  -0.455   3.245
  156OSM   H11T17426   4.308  -0.535   3.174
  156OSM   C12S17427   4.275  -0.450   3.376
  156OSM   H12S17428   4.165  -0.457   3.366
  156OSM   H12T17429   4.298  -0.351   3.420
  156OSM   C13S17430   4.330  -0.559   3.469
  156OSM   H13S17431   4.430  -0.530   3.507
  156OSM   H13T17432   4.324  -0.654   3.411
  156OSM   C14S17433   4.231  -0.586   3.584
  156OSM   H14S17434   4.273  -0.673   3.638
  156OSM   H14T17435   4.131  -0.618   3.549
  156OSM   C15S17436   4.229  -0.471   3.689
  156OSM   H15S17437   4.172  -0.384   3.648
  156OSM   H15T17438   4.331  -0.437   3.717
  156OSM   C16S17439   4.159  -0.513   3.817
  156OSM   H16S17440   4.220  -0.582   3.879
  156OSM   H16T17441   4.080  -0.585   3.788
  156OSM   C17S17442   4.115  -0.398   3.904
  156OSM   H17S17443   4.033  -0.343   3.852
  156OSM   H17T17444   4.201  -0.329   3.918
  156OSM   C18S17445   4.079  -0.442   4.045
  156OSM   H18S17446   3.996  -0.516   4.044
  156OSM   H18T17447   4.052  -0.356   4.110
  156OSM   H18U17448   4.164  -0.498   4.090
  156OSM    C1F17449   4.308   0.011   2.456
  156OSM     OF17450   4.202  -0.007   2.393
  156OSM    C2F17451   4.327   0.130   2.549
  156OSM    H2F17452   4.305   0.219   2.486
  156OSM    H2G17453   4.430   0.121   2.590
  156OSM    C3F17454   4.210   0.125   2.653
  156OSM    H3F17455   4.183   0.021   2.680
  156OSM    H3G17456   4.121   0.179   2.615
  156OSM    C4F17457   4.248   0.206   2.776
  156OSM    H4F17458   4.231   0.313   2.753
  156OSM    H4G17459   4.358   0.202   2.794
  156OSM    C5F17460   4.184   0.167   2.904
  156OSM    H5F17461   4.175   0.056   2.903
  156OSM    H5G17462   4.080   0.207   2.899
  156OSM    C6F17463   4.258   0.199   3.035
  156OSM    H6F17464   4.280   0.307   3.048
  156OSM    H6G17465   4.359   0.156   3.017
  156OSM    C7F17466   4.196   0.140   3.169
  156OSM    H7F17467   4.242   0.040   3.180
  156OSM    H7G17468   4.086   0.132   3.154
  156OSM    C8F17469   4.217   0.226   3.304
  156OSM    H8F17470   4.170   0.322   3.275
  156OSM    H8G17471   4.324   0.248   3.324
  156OSM    C9F17472   4.130   0.171   3.415
  156OSM    H9F17473   4.026   0.151   3.384
  156OSM   C10F17474   4.167   0.139   3.537
  156OSM   H10F17475   4.084   0.102   3.599
  156OSM   C11F17476   4.295   0.152   3.608
  156OSM   H11F17477   4.381   0.162   3.538
  156OSM   H11G17478   4.323   0.065   3.670
  156OSM   C12F17479   4.288   0.267   3.719
  156OSM   H12F17480   4.195   0.264   3.780
  156OSM   H12G17481   4.286   0.368   3.673
  156OSM   C13F17482   4.399   0.253   3.826
  156OSM   H13F17483   4.494   0.274   3.773
  156OSM   H13G17484   4.413   0.155   3.878
  156OSM   C14F17485   4.397   0.366   3.927
  156OSM   H14F17486   4.388   0.464   3.874
  156OSM   H14G17487   4.494   0.373   3.981
  156OSM   C15F17488   4.284   0.351   4.025
  156OSM   H15F17489   4.266   0.246   4.054
  156OSM   H15G17490   4.193   0.379   3.968
  156OSM   C16F17491   4.298   0.439   4.152
  156OSM   H16F17492   4.263   0.542   4.131
  156OSM   H16G17493   4.404   0.431   4.184
  156OSM   C17F17494   4.227   0.388   4.274
  156OSM   H17F17495   4.117   0.380   4.262
  156OSM   H17G17496   4.257   0.462   4.352
  156OSM   C18F17497   4.259   0.253   4.329
  156OSM   H18F17498   4.360   0.249   4.376
  156OSM   H18G17499   4.268   0.169   4.257
  156OSM   H18H17500   4.191   0.218   4.410
  157OSM      N17501   4.028   1.231   1.751
  157OSM    C1517502   3.882   1.236   1.742
  157OSM   H15A17503   3.830   1.142   1.755
  157OSM   H15B17504   3.853   1.264   1.642
  157OSM   H15C17505   3.839   1.310   1.808
  157OSM    C1417506   4.079   1.140   1.642
  157OSM   H14A17507   4.072   1.035   1.668
  157OSM   H14B17508   4.183   1.148   1.615
  157OSM   H14C17509   4.019   1.146   1.553
  157OSM    C1317510   4.083   1.366   1.727
  157OSM   H13A17511   4.040   1.435   1.798
  157OSM   H13B17512   4.062   1.381   1.623
  157OSM   H13C17513   4.191   1.369   1.740
  157OSM    C1217514   4.080   1.183   1.893
  157OSM   H12A17515   4.049   1.254   1.968
  157OSM   H12B17516   4.188   1.181   1.903
  157OSM    C1117517   4.024   1.039   1.926
  157OSM   H11A17518   3.918   1.025   1.896
  157OSM   H11B17519   4.007   1.037   2.035
  157OSM      P17520   4.244   0.899   1.944
  157OSM    O1317521   4.260   0.755   1.934
  157OSM    O1417522   4.348   0.988   1.898
  157OSM    O1117523   4.220   0.926   2.093
  157OSM    O1217524   4.104   0.934   1.876
  157OSM    C1S17525   4.129   0.837   2.157
  157OSM    H1S17526   4.149   0.729   2.143
  157OSM    H1T17527   4.029   0.841   2.109
  157OSM     NF17528   4.024   0.784   2.381
  157OSM    HNF17529   3.938   0.824   2.410
  157OSM    C2S17530   4.108   0.878   2.308
  157OSM    H2S17531   4.210   0.872   2.353
  157OSM    C3S17532   4.060   1.026   2.325
  157OSM    H3S17533   3.960   1.032   2.279
  157OSM     O317534   4.141   1.114   2.247
  157OSM    HO317535   4.170   1.060   2.173
  157OSM    C4S17536   4.043   1.080   2.469
  157OSM    H4S17537   3.948   1.047   2.514
  157OSM    C5S17538   4.133   1.143   2.547
  157OSM    H5S17539   4.231   1.166   2.505
  157OSM    C6S17540   4.108   1.194   2.685
  157OSM    H6S17541   3.999   1.200   2.705
  157OSM    H6T17542   4.143   1.299   2.682
  157OSM    C7S17543   4.177   1.110   2.793
  157OSM    H7S17544   4.149   1.149   2.893
  157OSM    H7T17545   4.288   1.110   2.791
  157OSM    C8S17546   4.140   0.965   2.801
  157OSM    H8S17547   4.219   0.910   2.857
  157OSM    H8T17548   4.147   0.923   2.698
  157OSM    C9S17549   3.996   0.936   2.856
  157OSM    H9S17550   3.990   0.825   2.861
  157OSM    H9T17551   3.923   0.983   2.786
  157OSM   C10S17552   3.985   0.975   2.999
  157OSM   H10S17553   3.901   0.915   3.040
  157OSM   H10T17554   3.956   1.082   3.003
  157OSM   C11S17555   4.100   0.935   3.086
  157OSM   H11S17556   4.188   0.992   3.050
  157OSM   H11T17557   4.122   0.826   3.080
  157OSM   C12S17558   4.082   0.967   3.239
  157OSM   H12S17559   3.992   0.921   3.285
  157OSM   H12T17560   4.062   1.076   3.233
  157OSM   C13S17561   4.197   0.942   3.337
  157OSM   H13S17562   4.288   0.983   3.289
  157OSM   H13T17563   4.215   0.832   3.339
  157OSM   C14S17564   4.178   1.009   3.477
  157OSM   H14S17565   4.139   1.112   3.470
  157OSM   H14T17566   4.276   1.029   3.526
  157OSM   C15S17567   4.080   0.937   3.577
  157OSM   H15S17568   3.987   0.914   3.520
  157OSM   H15T17569   4.053   0.995   3.668
  157OSM   C16S17570   4.147   0.806   3.619
  157OSM   H16S17571   4.241   0.830   3.674
  157OSM   H16T17572   4.181   0.741   3.536
  157OSM   C17S17573   4.053   0.727   3.704
  157OSM   H17S17574   3.961   0.696   3.651
  157OSM   H17T17575   4.013   0.789   3.787
  157OSM   C18S17576   4.128   0.597   3.744
  157OSM   H18S17577   4.145   0.531   3.656
  157OSM   H18T17578   4.080   0.526   3.814
  157OSM   H18U17579   4.228   0.627   3.780
  157OSM    C1F17580   4.062   0.660   2.390
  157OSM     OF17581   4.177   0.621   2.353
  157OSM    C2F17582   3.965   0.558   2.450
  157OSM    H2F17583   3.944   0.482   2.372
  157OSM    H2G17584   3.872   0.611   2.477
  157OSM    C3F17585   4.015   0.494   2.582
  157OSM    H3F17586   4.114   0.443   2.573
  157OSM    H3G17587   3.949   0.406   2.600
  157OSM    C4F17588   3.991   0.581   2.711
  157OSM    H4F17589   3.894   0.636   2.706
  157OSM    H4G17590   4.073   0.656   2.716
  157OSM    C5F17591   4.003   0.505   2.847
  157OSM    H5F17592   4.108   0.473   2.866
  157OSM    H5G17593   3.934   0.418   2.838
  157OSM    C6F17594   3.943   0.585   2.963
  157OSM    H6F17595   3.837   0.610   2.941
  157OSM    H6G17596   4.003   0.677   2.979
  157OSM    C7F17597   3.966   0.508   3.095
  157OSM    H7F17598   4.063   0.457   3.079
  157OSM    H7G17599   3.882   0.435   3.104
  157OSM    C8F17600   3.959   0.599   3.221
  157OSM    H8F17601   3.857   0.643   3.217
  157OSM    H8G17602   4.019   0.691   3.205
  157OSM    C9F17603   3.987   0.530   3.350
  157OSM    H9F17604   4.088   0.563   3.381
  157OSM   C10F17605   3.909   0.464   3.438
  157OSM   H10F17606   3.953   0.416   3.527
  157OSM   C11F17607   3.764   0.425   3.424
  157OSM   H11F17608   3.764   0.401   3.316
  157OSM   H11G17609   3.696   0.511   3.438
  157OSM   C12F17610   3.707   0.304   3.505
  157OSM   H12F17611   3.771   0.214   3.491
  157OSM   H12G17612   3.605   0.275   3.473
  157OSM   C13F17613   3.700   0.329   3.659
  157OSM   H13F17614   3.622   0.402   3.689
  157OSM   H13G17615   3.801   0.358   3.694
  157OSM   C14F17616   3.665   0.206   3.737
  157OSM   H14F17617   3.725   0.118   3.707
  157OSM   H14G17618   3.561   0.172   3.718
  157OSM   C15F17619   3.692   0.208   3.887
  157OSM   H15F17620   3.799   0.231   3.904
  157OSM   H15G17621   3.675   0.106   3.927
  157OSM   C16F17622   3.601   0.311   3.960
  157OSM   H16F17623   3.626   0.410   3.917
  157OSM   H16G17624   3.630   0.315   4.067
  157OSM   C17F17625   3.456   0.284   3.957
  157OSM   H17F17626   3.449   0.184   4.004
  157OSM   H17G17627   3.430   0.270   3.850
  157OSM   C18F17628   3.368   0.405   4.008
  157OSM   H18F17629   3.391   0.505   3.966
  157OSM   H18G17630   3.377   0.414   4.118
  157OSM   H18H17631   3.264   0.384   3.975
  158OSM      N17632   0.875   6.230   1.712
  158OSM    C1517633   0.817   6.324   1.614
  158OSM   H15A17634   0.778   6.273   1.528
  158OSM   H15B17635   0.893   6.395   1.585
  158OSM   H15C17636   0.734   6.378   1.657
  158OSM    C1417637   0.765   6.129   1.732
  158OSM   H14A17638   0.726   6.084   1.642
  158OSM   H14B17639   0.686   6.175   1.789
  158OSM   H14C17640   0.811   6.052   1.793
  158OSM    C1317641   1.000   6.174   1.646
  158OSM   H13A17642   0.974   6.132   1.550
  158OSM   H13B17643   1.054   6.105   1.708
  158OSM   H13C17644   1.059   6.263   1.629
  158OSM    C1217645   0.908   6.311   1.844
  158OSM   H12A17646   0.809   6.338   1.878
  158OSM   H12B17647   0.957   6.402   1.812
  158OSM    C1117648   0.987   6.235   1.953
  158OSM   H11A17649   1.032   6.302   2.030
  158OSM   H11B17650   1.072   6.179   1.910
  158OSM      P17651   0.928   5.986   2.040
  158OSM    O1317652   0.819   5.922   2.117
  158OSM    O1417653   0.954   5.919   1.905
  158OSM    O1117654   1.060   5.978   2.123
  158OSM    O1217655   0.899   6.147   2.022
  158OSM    C1S17656   1.098   6.082   2.218
  158OSM    H1S17657   1.036   6.173   2.206
  158OSM    H1T17658   1.194   6.123   2.181
  158OSM     NF17659   1.095   6.144   2.459
  158OSM    HNF17660   1.175   6.146   2.520
  158OSM    C2S17661   1.089   6.031   2.364
  158OSM    H2S17662   0.990   5.983   2.380
  158OSM    C3S17663   1.189   5.931   2.391
  158OSM    H3S17664   1.283   5.985   2.363
  158OSM     O317665   1.187   5.824   2.294
  158OSM    HO317666   1.120   5.843   2.228
  158OSM    C4S17667   1.204   5.881   2.530
  158OSM    H4S17668   1.120   5.831   2.579
  158OSM    C5S17669   1.319   5.864   2.596
  158OSM    H5S17670   1.418   5.885   2.552
  158OSM    C6S17671   1.329   5.816   2.737
  158OSM    H6S17672   1.405   5.737   2.748
  158OSM    H6T17673   1.231   5.770   2.761
  158OSM    C7S17674   1.343   5.932   2.852
  158OSM    H7S17675   1.262   6.004   2.828
  158OSM    H7T17676   1.438   5.988   2.844
  158OSM    C8S17677   1.322   5.868   2.994
  158OSM    H8S17678   1.399   5.788   3.007
  158OSM    H8T17679   1.225   5.815   3.001
  158OSM    C9S17680   1.331   5.957   3.119
  158OSM    H9S17681   1.258   6.041   3.117
  158OSM    H9T17682   1.433   6.000   3.122
  158OSM   C10S17683   1.307   5.881   3.254
  158OSM   H10S17684   1.397   5.817   3.271
  158OSM   H10T17685   1.215   5.821   3.256
  158OSM   C11S17686   1.293   5.986   3.364
  158OSM   H11S17687   1.191   6.028   3.350
  158OSM   H11T17688   1.368   6.061   3.333
  158OSM   C12S17689   1.332   5.931   3.503
  158OSM   H12S17690   1.433   5.884   3.500
  158OSM   H12T17691   1.262   5.850   3.532
  158OSM   C13S17692   1.338   6.037   3.611
  158OSM   H13S17693   1.249   6.103   3.609
  158OSM   H13T17694   1.424   6.105   3.593
  158OSM   C14S17695   1.342   5.979   3.752
  158OSM   H14S17696   1.437   5.924   3.771
  158OSM   H14T17697   1.257   5.908   3.752
  158OSM   C15S17698   1.336   6.080   3.863
  158OSM   H15S17699   1.248   6.146   3.852
  158OSM   H15T17700   1.430   6.139   3.856
  158OSM   C16S17701   1.324   6.003   3.991
  158OSM   H16S17702   1.408   5.932   4.004
  158OSM   H16T17703   1.230   5.944   3.983
  158OSM   C17S17704   1.322   6.085   4.111
  158OSM   H17S17705   1.259   6.176   4.117
  158OSM   H17T17706   1.423   6.126   4.132
  158OSM   C18S17707   1.294   6.006   4.238
  158OSM   H18S17708   1.380   5.936   4.245
  158OSM   H18T17709   1.202   5.943   4.230
  158OSM   H18U17710   1.290   6.063   4.333
  158OSM    C1F17711   0.997   6.233   2.472
  158OSM     OF17712   0.885   6.210   2.429
  158OSM    C2F17713   1.017   6.357   2.546
  158OSM    H2F17714   0.946   6.437   2.516
  158OSM    H2G17715   1.121   6.395   2.534
  158OSM    C3F17716   0.994   6.321   2.696
  158OSM    H3F17717   1.060   6.241   2.735
  158OSM    H3G17718   0.887   6.293   2.709
  158OSM    C4F17719   1.004   6.440   2.794
  158OSM    H4F17720   0.937   6.517   2.750
  158OSM    H4G17721   1.110   6.472   2.790
  158OSM    C5F17722   0.957   6.411   2.932
  158OSM    H5F17723   1.022   6.333   2.976
  158OSM    H5G17724   0.855   6.373   2.912
  158OSM    C6F17725   0.938   6.526   3.033
  158OSM    H6F17726   0.860   6.592   2.991
  158OSM    H6G17727   1.034   6.579   3.050
  158OSM    C7F17728   0.874   6.478   3.160
  158OSM    H7F17729   0.940   6.411   3.218
  158OSM    H7G17730   0.780   6.428   3.128
  158OSM    C8F17731   0.841   6.580   3.258
  158OSM    H8F17732   0.794   6.661   3.199
  158OSM    H8G17733   0.932   6.610   3.312
  158OSM    C9F17734   0.724   6.553   3.356
  158OSM    H9F17735   0.626   6.531   3.312
  158OSM   C10F17736   0.746   6.547   3.492
  158OSM   H10F17737   0.664   6.507   3.553
  158OSM   C11F17738   0.872   6.559   3.574
  158OSM   H11F17739   0.964   6.591   3.522
  158OSM   H11G17740   0.893   6.460   3.618
  158OSM   C12F17741   0.860   6.664   3.690
  158OSM   H12F17742   0.797   6.754   3.671
  158OSM   H12G17743   0.964   6.695   3.714
  158OSM   C13F17744   0.796   6.603   3.821
  158OSM   H13F17745   0.875   6.562   3.887
  158OSM   H13G17746   0.732   6.517   3.791
  158OSM   C14F17747   0.723   6.714   3.908
  158OSM   H14F17748   0.631   6.745   3.854
  158OSM   H14G17749   0.789   6.803   3.902
  158OSM   C15F17750   0.701   6.680   4.057
  158OSM   H15F17751   0.798   6.635   4.086
  158OSM   H15G17752   0.620   6.605   4.065
  158OSM   C16F17753   0.655   6.799   4.138
  158OSM   H16F17754   0.567   6.849   4.092
  158OSM   H16G17755   0.739   6.872   4.139
  158OSM   C17F17756   0.614   6.756   4.283
  158OSM   H17F17757   0.698   6.695   4.320
  158OSM   H17G17758   0.524   6.691   4.270
  158OSM   C18F17759   0.587   6.874   4.372
  158OSM   H18F17760   0.680   6.918   4.414
  158OSM   H18G17761   0.513   6.852   4.453
  158OSM   H18H17762   0.542   6.952   4.308
  159OSM      N17763   3.466   0.548   1.760
  159OSM    C1517764   3.528   0.651   1.671
  159OSM   H15A17765   3.565   0.608   1.579
  159OSM   H15B17766   3.606   0.706   1.722
  159OSM   H15C17767   3.453   0.724   1.649
  159OSM    C1417768   3.367   0.461   1.681
  159OSM   H14A17769   3.405   0.400   1.600
  159OSM   H14B17770   3.299   0.529   1.632
  159OSM   H14C17771   3.321   0.393   1.751
  159OSM    C1317772   3.592   0.461   1.798
  159OSM   H13A17773   3.658   0.520   1.861
  159OSM   H13B17774   3.636   0.447   1.701
  159OSM   H13C17775   3.560   0.369   1.844
  159OSM    C1217776   3.397   0.608   1.883
  159OSM   H12A17777   3.364   0.523   1.940
  159OSM   H12B17778   3.317   0.674   1.853
  159OSM    C1117779   3.483   0.694   1.975
  159OSM   H11A17780   3.410   0.741   2.045
  159OSM   H11B17781   3.518   0.781   1.915
  159OSM      P17782   3.738   0.688   2.045
  159OSM    O1317783   3.825   0.574   2.094
  159OSM    O1417784   3.772   0.746   1.912
  159OSM    O1117785   3.729   0.799   2.150
  159OSM    O1217786   3.593   0.620   2.033
  159OSM    C1S17787   3.678   0.776   2.279
  159OSM    H1S17788   3.748   0.718   2.342
  159OSM    H1T17789   3.587   0.713   2.279
  159OSM     NF17790   3.612   0.885   2.487
  159OSM    HNF17791   3.523   0.919   2.514
  159OSM    C2S17792   3.649   0.908   2.348
  159OSM    H2S17793   3.744   0.966   2.357
  159OSM    C3S17794   3.564   1.004   2.264
  159OSM    H3S17795   3.476   0.944   2.234
  159OSM     O317796   3.630   1.044   2.149
  159OSM    HO317797   3.681   0.967   2.123
  159OSM    C4S17798   3.519   1.127   2.338
  159OSM    H4S17799   3.409   1.125   2.350
  159OSM    C5S17800   3.602   1.224   2.385
  159OSM    H5S17801   3.711   1.211   2.388
  159OSM    C6S17802   3.554   1.341   2.467
  159OSM    H6S17803   3.447   1.356   2.439
  159OSM    H6T17804   3.601   1.439   2.442
  159OSM    C7S17805   3.584   1.304   2.615
  159OSM    H7S17806   3.694   1.300   2.632
  159OSM    H7T17807   3.534   1.211   2.649
  159OSM    C8S17808   3.541   1.424   2.705
  159OSM    H8S17809   3.441   1.458   2.670
  159OSM    H8T17810   3.614   1.506   2.695
  159OSM    C9S17811   3.545   1.388   2.854
  159OSM    H9S17812   3.540   1.475   2.923
  159OSM    H9T17813   3.647   1.345   2.866
  159OSM   C10S17814   3.432   1.301   2.904
  159OSM   H10S17815   3.447   1.193   2.887
  159OSM   H10T17816   3.333   1.340   2.872
  159OSM   C11S17817   3.414   1.312   3.065
  159OSM   H11S17818   3.412   1.415   3.105
  159OSM   H11T17819   3.500   1.259   3.110
  159OSM   C12S17820   3.288   1.249   3.117
  159OSM   H12S17821   3.264   1.166   3.048
  159OSM   H12T17822   3.200   1.316   3.125
  159OSM   C13S17823   3.304   1.172   3.250
  159OSM   H13S17824   3.376   1.089   3.237
  159OSM   H13T17825   3.202   1.128   3.264
  159OSM   C14S17826   3.325   1.267   3.365
  159OSM   H14S17827   3.243   1.342   3.368
  159OSM   H14T17828   3.414   1.333   3.352
  159OSM   C15S17829   3.333   1.201   3.506
  159OSM   H15S17830   3.421   1.134   3.518
  159OSM   H15T17831   3.233   1.160   3.532
  159OSM   C16S17832   3.362   1.308   3.614
  159OSM   H16S17833   3.289   1.391   3.606
  159OSM   H16T17834   3.463   1.353   3.602
  159OSM   C17S17835   3.353   1.263   3.764
  159OSM   H17S17836   3.386   1.352   3.822
  159OSM   H17T17837   3.423   1.180   3.789
  159OSM   C18S17838   3.223   1.206   3.829
  159OSM   H18S17839   3.145   1.283   3.841
  159OSM   H18T17840   3.245   1.152   3.924
  159OSM   H18U17841   3.175   1.127   3.767
  159OSM    C1F17842   3.693   0.835   2.573
  159OSM     OF17843   3.814   0.835   2.554
  159OSM    C2F17844   3.631   0.771   2.694
  159OSM    H2F17845   3.705   0.699   2.736
  159OSM    H2G17846   3.544   0.718   2.651
  159OSM    C3F17847   3.595   0.881   2.800
  159OSM    H3F17848   3.540   0.967   2.756
  159OSM    H3G17849   3.691   0.923   2.837
  159OSM    C4F17850   3.507   0.815   2.903
  159OSM    H4F17851   3.567   0.740   2.957
  159OSM    H4G17852   3.431   0.756   2.847
  159OSM    C5F17853   3.430   0.905   2.997
  159OSM    H5F17854   3.349   0.947   2.933
  159OSM    H5G17855   3.484   0.992   3.038
  159OSM    C6F17856   3.366   0.818   3.108
  159OSM    H6F17857   3.312   0.733   3.060
  159OSM    H6G17858   3.296   0.883   3.165
  159OSM    C7F17859   3.461   0.773   3.216
  159OSM    H7F17860   3.533   0.709   3.161
  159OSM    H7G17861   3.408   0.710   3.291
  159OSM    C8F17862   3.534   0.877   3.301
  159OSM    H8F17863   3.465   0.915   3.380
  159OSM    H8G17864   3.561   0.964   3.238
  159OSM    C9F17865   3.651   0.821   3.379
  159OSM    H9F17866   3.726   0.776   3.311
  159OSM   C10F17867   3.667   0.808   3.511
  159OSM   H10F17868   3.759   0.759   3.546
  159OSM   C11F17869   3.593   0.877   3.617
  159OSM   H11F17870   3.513   0.946   3.584
  159OSM   H11G17871   3.672   0.941   3.663
  159OSM   C12F17872   3.537   0.789   3.731
  159OSM   H12F17873   3.461   0.722   3.688
  159OSM   H12G17874   3.491   0.855   3.808
  159OSM   C13F17875   3.657   0.707   3.798
  159OSM   H13F17876   3.724   0.660   3.722
  159OSM   H13G17877   3.618   0.622   3.856
  159OSM   C14F17878   3.729   0.792   3.903
  159OSM   H14F17879   3.662   0.844   3.974
  159OSM   H14G17880   3.778   0.871   3.842
  159OSM   C15F17881   3.840   0.726   3.987
  159OSM   H15F17882   3.899   0.811   4.028
  159OSM   H15G17883   3.898   0.666   3.913
  159OSM   C16F17884   3.805   0.635   4.098
  159OSM   H16F17885   3.742   0.552   4.059
  159OSM   H16G17886   3.749   0.683   4.181
  159OSM   C17F17887   3.935   0.579   4.161
  159OSM   H17F17888   3.987   0.517   4.085
  159OSM   H17G17889   3.898   0.506   4.236
  159OSM   C18F17890   4.029   0.681   4.233
  159OSM   H18F17891   4.089   0.625   4.309
  159OSM   H18G17892   3.965   0.754   4.286
  159OSM   H18H17893   4.094   0.736   4.161
  160OSM      N17894   0.895   0.264   2.183
  160OSM    C1517895   0.908   0.144   2.274
  160OSM   H15A17896   0.965   0.176   2.360
  160OSM   H15B17897   0.950   0.063   2.216
  160OSM   H15C17898   0.813   0.114   2.317
  160OSM    C1417899   1.026   0.275   2.103
  160OSM   H14A17900   1.052   0.173   2.080
  160OSM   H14B17901   1.104   0.315   2.165
  160OSM   H14C17902   1.020   0.343   2.019
  160OSM    C1317903   0.775   0.245   2.089
  160OSM   H13A17904   0.800   0.177   2.009
  160OSM   H13B17905   0.744   0.341   2.053
  160OSM   H13C17906   0.690   0.202   2.140
  160OSM    C1217907   0.869   0.381   2.268
  160OSM   H12A17908   0.945   0.392   2.344
  160OSM   H12B17909   0.778   0.366   2.323
  160OSM    C1117910   0.863   0.519   2.202
  160OSM   H11A17911   0.845   0.588   2.287
  160OSM   H11B17912   0.773   0.520   2.138
  160OSM      P17913   1.104   0.620   2.178
  160OSM    O1317914   1.202   0.513   2.175
  160OSM    O1417915   1.135   0.748   2.111
  160OSM    O1117916   1.082   0.647   2.330
  160OSM    O1217917   0.969   0.567   2.113
  160OSM    C1S17918   1.026   0.748   2.399
  160OSM    H1S17919   0.918   0.721   2.402
  160OSM    H1T17920   1.030   0.846   2.347
  160OSM     NF17921   1.014   0.864   2.617
  160OSM    HNF17922   1.075   0.942   2.624
  160OSM    C2S17923   1.082   0.756   2.546
  160OSM    H2S17924   1.060   0.657   2.591
  160OSM    C3S17925   1.237   0.771   2.543
  160OSM    H3S17926   1.258   0.868   2.493
  160OSM     O317927   1.300   0.665   2.478
  160OSM    HO317928   1.226   0.610   2.452
  160OSM    C4S17929   1.282   0.783   2.692
  160OSM    H4S17930   1.315   0.885   2.716
  160OSM    C5S17931   1.295   0.680   2.779
  160OSM    H5S17932   1.282   0.577   2.740
  160OSM    C6S17933   1.346   0.701   2.917
  160OSM    H6S17934   1.448   0.656   2.919
  160OSM    H6T17935   1.296   0.626   2.982
  160OSM    C7S17936   1.321   0.844   2.978
  160OSM    H7S17937   1.213   0.873   2.982
  160OSM    H7T17938   1.387   0.918   2.928
  160OSM    C8S17939   1.356   0.865   3.126
  160OSM    H8S17940   1.261   0.874   3.181
  160OSM    H8T17941   1.402   0.966   3.135
  160OSM    C9S17942   1.446   0.765   3.197
  160OSM    H9S17943   1.537   0.744   3.137
  160OSM    H9T17944   1.384   0.673   3.193
  160OSM   C10S17945   1.482   0.793   3.348
  160OSM   H10S17946   1.381   0.788   3.395
  160OSM   H10T17947   1.520   0.897   3.362
  160OSM   C11S17948   1.583   0.700   3.412
  160OSM   H11S17949   1.678   0.703   3.354
  160OSM   H11T17950   1.549   0.595   3.427
  160OSM   C12S17951   1.634   0.748   3.548
  160OSM   H12S17952   1.576   0.714   3.636
  160OSM   H12T17953   1.623   0.858   3.543
  160OSM   C13S17954   1.785   0.725   3.581
  160OSM   H13S17955   1.835   0.761   3.489
  160OSM   H13T17956   1.801   0.617   3.601
  160OSM   C14S17957   1.828   0.804   3.704
  160OSM   H14S17958   1.792   0.908   3.693
  160OSM   H14T17959   1.939   0.808   3.711
  160OSM   C15S17960   1.773   0.742   3.838
  160OSM   H15S17961   1.795   0.633   3.840
  160OSM   H15T17962   1.663   0.750   3.828
  160OSM   C16S17963   1.840   0.808   3.955
  160OSM   H16S17964   1.787   0.782   4.049
  160OSM   H16T17965   1.867   0.915   3.949
  160OSM   C17S17966   1.969   0.735   3.991
  160OSM   H17S17967   2.035   0.766   3.907
  160OSM   H17T17968   1.947   0.626   3.985
  160OSM   C18S17969   2.042   0.762   4.118
  160OSM   H18S17970   1.993   0.727   4.211
  160OSM   H18T17971   2.051   0.872   4.130
  160OSM   H18U17972   2.143   0.716   4.118
  160OSM    C1F17973   0.883   0.876   2.657
  160OSM     OF17974   0.801   0.787   2.627
  160OSM    C2F17975   0.831   1.000   2.736
  160OSM    H2F17976   0.740   1.025   2.677
  160OSM    H2G17977   0.905   1.082   2.728
  160OSM    C3F17978   0.809   0.967   2.880
  160OSM    H3F17979   0.906   0.986   2.932
  160OSM    H3G17980   0.772   0.863   2.892
  160OSM    C4F17981   0.723   1.070   2.953
  160OSM    H4F17982   0.615   1.050   2.934
  160OSM    H4G17983   0.746   1.171   2.913
  160OSM    C5F17984   0.741   1.068   3.102
  160OSM    H5F17985   0.838   1.111   3.132
  160OSM    H5G17986   0.752   0.963   3.134
  160OSM    C6F17987   0.623   1.121   3.179
  160OSM    H6F17988   0.536   1.065   3.139
  160OSM    H6G17989   0.609   1.228   3.149
  160OSM    C7F17990   0.637   1.113   3.333
  160OSM    H7F17991   0.661   1.005   3.344
  160OSM    H7G17992   0.539   1.135   3.380
  160OSM    C8F17993   0.744   1.201   3.396
  160OSM    H8F17994   0.698   1.302   3.393
  160OSM    H8G17995   0.834   1.192   3.331
  160OSM    C9F17996   0.761   1.166   3.538
  160OSM    H9F17997   0.671   1.180   3.599
  160OSM   C10F17998   0.876   1.132   3.602
  160OSM   H10F17999   0.876   1.137   3.712
  160OSM   C11F18000   1.016   1.128   3.556
  160OSM   H11F18001   1.017   1.174   3.455
  160OSM   H11G18002   1.051   1.022   3.555
  160OSM   C12F18003   1.115   1.192   3.660
  160OSM   H12F18004   1.081   1.171   3.764
  160OSM   H12G18005   1.095   1.299   3.637
  160OSM   C13F18006   1.262   1.159   3.636
  160OSM   H13F18007   1.330   1.221   3.699
  160OSM   H13G18008   1.283   1.176   3.528
  160OSM   C14F18009   1.304   1.016   3.663
  160OSM   H14F18010   1.408   1.000   3.628
  160OSM   H14G18011   1.245   0.940   3.608
  160OSM   C15F18012   1.292   0.975   3.813
  160OSM   H15F18013   1.184   0.979   3.836
  160OSM   H15G18014   1.327   1.059   3.878
  160OSM   C16F18015   1.366   0.844   3.845
  160OSM   H16F18016   1.473   0.849   3.818
  160OSM   H16G18017   1.319   0.773   3.774
  160OSM   C17F18018   1.358   0.792   3.992
  160OSM   H17F18019   1.250   0.791   4.016
  160OSM   H17G18020   1.421   0.864   4.048
  160OSM   C18F18021   1.411   0.647   4.002
  160OSM   H18F18022   1.411   0.623   4.110
  160OSM   H18G18023   1.518   0.638   3.976
  160OSM   H18H18024   1.344   0.573   3.952
  161OSM      N18025   4.817   6.749   1.776
  161OSM    C1518026   4.668   6.743   1.770
  161OSM   H15A18027   4.634   6.646   1.803
  161OSM   H15B18028   4.636   6.787   1.677
  161OSM   H15C18029   4.627   6.808   1.847
  161OSM    C1418030   4.867   6.691   1.650
  161OSM   H14A18031   4.841   6.588   1.633
  161OSM   H14B18032   4.975   6.687   1.662
  161OSM   H14C18033   4.842   6.753   1.566
  161OSM    C1318034   4.861   6.891   1.783
  161OSM   H13A18035   4.968   6.899   1.775
  161OSM   H13B18036   4.850   6.943   1.876
  161OSM   H13C18037   4.813   6.956   1.710
  161OSM    C1218038   4.858   6.678   1.903
  161OSM   H12A18039   4.964   6.691   1.918
  161OSM   H12B18040   4.844   6.575   1.874
  161OSM    C1118041   4.767   6.700   2.028
  161OSM   H11A18042   4.797   6.625   2.104
  161OSM   H11B18043   4.661   6.676   2.004
  161OSM      P18044   4.907   6.860   2.184
  161OSM    O1318045   5.032   6.803   2.132
  161OSM    O1418046   4.912   7.007   2.202
  161OSM    O1118047   4.860   6.786   2.316
  161OSM    O1218048   4.787   6.821   2.090
  161OSM    C1S18049   4.906   6.663   2.365
  161OSM    H1S18050   4.997   6.631   2.311
  161OSM    H1T18051   4.830   6.582   2.352
  161OSM     NF18052   4.987   6.543   2.574
  161OSM    HNF18053   4.930   6.478   2.624
  161OSM    C2S18054   4.915   6.663   2.523
  161OSM    H2S18055   4.976   6.751   2.556
  161OSM    C3S18056   4.775   6.680   2.579
  161OSM    H3S18057   4.713   6.588   2.586
  161OSM     O318058   4.693   6.764   2.503
  161OSM    HO318059   4.745   6.790   2.426
  161OSM    C4S18060   4.785   6.718   2.727
  161OSM    H4S18061   4.867   6.790   2.743
  161OSM    C5S18062   4.704   6.673   2.824
  161OSM    H5S18063   4.617   6.608   2.808
  161OSM    C6S18064   4.692   6.742   2.961
  161OSM    H6S18065   4.595   6.796   2.971
  161OSM    H6T18066   4.762   6.829   2.968
  161OSM    C7S18067   4.717   6.647   3.084
  161OSM    H7S18068   4.822   6.613   3.099
  161OSM    H7T18069   4.653   6.557   3.076
  161OSM    C8S18070   4.673   6.716   3.211
  161OSM    H8S18071   4.567   6.748   3.204
  161OSM    H8T18072   4.732   6.806   3.239
  161OSM    C9S18073   4.672   6.626   3.337
  161OSM    H9S18074   4.779   6.595   3.348
  161OSM    H9T18075   4.615   6.534   3.311
  161OSM   C10S18076   4.614   6.680   3.468
  161OSM   H10S18077   4.507   6.695   3.440
  161OSM   H10T18078   4.659   6.779   3.487
  161OSM   C11S18079   4.612   6.590   3.590
  161OSM   H11S18080   4.715   6.552   3.610
  161OSM   H11T18081   4.556   6.499   3.562
  161OSM   C12S18082   4.562   6.670   3.709
  161OSM   H12S18083   4.457   6.695   3.682
  161OSM   H12T18084   4.613   6.768   3.717
  161OSM   C13S18085   4.563   6.596   3.838
  161OSM   H13S18086   4.660   6.542   3.850
  161OSM   H13T18087   4.490   6.514   3.857
  161OSM   C14S18088   4.539   6.693   3.959
  161OSM   H14S18089   4.432   6.693   3.990
  161OSM   H14T18090   4.569   6.793   3.922
  161OSM   C15S18091   4.613   6.662   4.089
  161OSM   H15S18092   4.720   6.681   4.066
  161OSM   H15T18093   4.599   6.553   4.105
  161OSM   C16S18094   4.570   6.740   4.213
  161OSM   H16S18095   4.636   6.700   4.293
  161OSM   H16T18096   4.468   6.714   4.251
  161OSM   C17S18097   4.593   6.892   4.206
  161OSM   H17S18098   4.533   6.940   4.285
  161OSM   H17T18099   4.558   6.917   4.104
  161OSM   C18S18100   4.743   6.932   4.223
  161OSM   H18S18101   4.794   6.913   4.320
  161OSM   H18T18102   4.746   7.041   4.203
  161OSM   H18U18103   4.807   6.891   4.141
  161OSM    C1F18104   5.115   6.523   2.542
  161OSM     OF18105   5.173   6.614   2.481
  161OSM    C2F18106   5.187   6.409   2.604
  161OSM    H2F18107   5.209   6.331   2.529
  161OSM    H2G18108   5.117   6.357   2.673
  161OSM    C3F18109   5.308   6.470   2.672
  161OSM    H3F18110   5.374   6.517   2.596
  161OSM    H3G18111   5.380   6.396   2.712
  161OSM    C4F18112   5.267   6.560   2.792
  161OSM    H4F18113   5.200   6.641   2.758
  161OSM    H4G18114   5.358   6.603   2.839
  161OSM    C5F18115   5.198   6.488   2.909
  161OSM    H5F18116   5.257   6.400   2.941
  161OSM    H5G18117   5.104   6.436   2.880
  161OSM    C6F18118   5.162   6.576   3.031
  161OSM    H6F18119   5.121   6.675   3.001
  161OSM    H6G18120   5.263   6.605   3.067
  161OSM    C7F18121   5.095   6.509   3.141
  161OSM    H7F18122   5.135   6.405   3.147
  161OSM    H7G18123   4.988   6.493   3.117
  161OSM    C8F18124   5.118   6.593   3.269
  161OSM    H8F18125   5.098   6.701   3.261
  161OSM    H8G18126   5.228   6.584   3.285
  161OSM    C9F18127   5.049   6.534   3.389
  161OSM    H9F18128   4.979   6.456   3.355
  161OSM   C10F18129   5.061   6.564   3.523
  161OSM   H10F18130   5.004   6.521   3.606
  161OSM   C11F18131   5.138   6.688   3.564
  161OSM   H11F18132   5.132   6.773   3.492
  161OSM   H11G18133   5.246   6.664   3.575
  161OSM   C12F18134   5.090   6.749   3.698
  161OSM   H12F18135   4.985   6.783   3.686
  161OSM   H12G18136   5.154   6.835   3.728
  161OSM   C13F18137   5.082   6.650   3.817
  161OSM   H13F18138   5.180   6.598   3.814
  161OSM   H13G18139   5.000   6.578   3.793
  161OSM   C14F18140   5.059   6.728   3.949
  161OSM   H14F18141   4.958   6.695   3.981
  161OSM   H14G18142   5.081   6.836   3.935
  161OSM   C15F18143   5.170   6.675   4.054
  161OSM   H15F18144   5.266   6.711   4.012
  161OSM   H15G18145   5.162   6.564   4.048
  161OSM   C16F18146   5.134   6.719   4.197
  161OSM   H16F18147   5.036   6.675   4.225
  161OSM   H16G18148   5.116   6.829   4.192
  161OSM   C17F18149   5.242   6.690   4.300
  161OSM   H17F18150   5.335   6.729   4.252
  161OSM   H17G18151   5.254   6.582   4.322
  161OSM   C18F18152   5.234   6.773   4.435
  161OSM   H18F18153   5.317   6.740   4.501
  161OSM   H18G18154   5.141   6.746   4.489
  161OSM   H18H18155   5.238   6.880   4.404
  162OSM      N18156   6.288   0.045   1.812
  162OSM    C1518157   6.408   0.025   1.737
  162OSM   H15A18158   6.482  -0.030   1.794
  162OSM   H15B18159   6.467   0.107   1.698
  162OSM   H15C18160   6.395  -0.040   1.652
  162OSM    C1418161   6.190   0.134   1.734
  162OSM   H14A18162   6.233   0.233   1.728
  162OSM   H14B18163   6.091   0.130   1.776
  162OSM   H14C18164   6.187   0.097   1.632
  162OSM    C1318165   6.234  -0.088   1.843
  162OSM   H13A18166   6.139  -0.076   1.894
  162OSM   H13B18167   6.298  -0.128   1.921
  162OSM   H13C18168   6.223  -0.151   1.756
  162OSM    C1218169   6.318   0.117   1.948
  162OSM   H12A18170   6.228   0.106   2.007
  162OSM   H12B18171   6.329   0.221   1.923
  162OSM    C1118172   6.431   0.072   2.033
  162OSM   H11A18173   6.436   0.133   2.126
  162OSM   H11B18174   6.527   0.091   1.980
  162OSM      P18175   6.551  -0.147   2.136
  162OSM    O1318176   6.521  -0.289   2.152
  162OSM    O1418177   6.672  -0.116   2.058
  162OSM    O1118178   6.563  -0.079   2.278
  162OSM    O1218179   6.421  -0.070   2.070
  162OSM    C1S18180   6.459  -0.026   2.366
  162OSM    H1S18181   6.370   0.001   2.306
  162OSM    H1T18182   6.503   0.068   2.408
  162OSM     NF18183   6.302  -0.059   2.542
  162OSM    HNF18184   6.320  -0.007   2.625
  162OSM    C2S18185   6.413  -0.120   2.479
  162OSM    H2S18186   6.381  -0.217   2.435
  162OSM    C3S18187   6.540  -0.139   2.577
  162OSM    H3S18188   6.580  -0.041   2.609
  162OSM     O318189   6.654  -0.203   2.509
  162OSM    HO318190   6.642  -0.172   2.419
  162OSM    C4S18191   6.501  -0.221   2.696
  162OSM    H4S18192   6.492  -0.166   2.791
  162OSM    C5S18193   6.503  -0.357   2.706
  162OSM    H5S18194   6.549  -0.422   2.630
  162OSM    C6S18195   6.489  -0.433   2.835
  162OSM    H6S18196   6.573  -0.505   2.844
  162OSM    H6T18197   6.404  -0.504   2.824
  162OSM    C7S18198   6.481  -0.351   2.962
  162OSM    H7S18199   6.396  -0.282   2.945
  162OSM    H7T18200   6.579  -0.304   2.985
  162OSM    C8S18201   6.459  -0.445   3.077
  162OSM    H8S18202   6.542  -0.519   3.084
  162OSM    H8T18203   6.367  -0.507   3.073
  162OSM    C9S18204   6.457  -0.370   3.206
  162OSM    H9S18205   6.372  -0.299   3.203
  162OSM    H9T18206   6.543  -0.302   3.226
  162OSM   C10S18207   6.433  -0.462   3.328
  162OSM   H10S18208   6.507  -0.545   3.323
  162OSM   H10T18209   6.332  -0.507   3.312
  162OSM   C11S18210   6.441  -0.383   3.460
  162OSM   H11S18211   6.389  -0.286   3.474
  162OSM   H11T18212   6.541  -0.335   3.459
  162OSM   C12S18213   6.437  -0.457   3.592
  162OSM   H12S18214   6.523  -0.524   3.613
  162OSM   H12T18215   6.337  -0.507   3.587
  162OSM   C13S18216   6.420  -0.366   3.708
  162OSM   H13S18217   6.328  -0.304   3.703
  162OSM   H13T18218   6.497  -0.286   3.701
  162OSM   C14S18219   6.421  -0.438   3.842
  162OSM   H14S18220   6.509  -0.503   3.861
  162OSM   H14T18221   6.321  -0.488   3.839
  162OSM   C15S18222   6.419  -0.328   3.953
  162OSM   H15S18223   6.326  -0.269   3.941
  162OSM   H15T18224   6.509  -0.264   3.941
  162OSM   C16S18225   6.439  -0.395   4.085
  162OSM   H16S18226   6.537  -0.445   4.094
  162OSM   H16T18227   6.362  -0.474   4.092
  162OSM   C17S18228   6.421  -0.285   4.189
  162OSM   H17S18229   6.324  -0.242   4.156
  162OSM   H17T18230   6.498  -0.208   4.167
  162OSM   C18S18231   6.419  -0.325   4.336
  162OSM   H18S18232   6.499  -0.398   4.360
  162OSM   H18T18233   6.326  -0.382   4.359
  162OSM   H18U18234   6.427  -0.244   4.412
  162OSM    C1F18235   6.181  -0.074   2.491
  162OSM     OF18236   6.175  -0.133   2.384
  162OSM    C2F18237   6.065  -0.019   2.575
  162OSM    H2F18238   5.987   0.018   2.505
  162OSM    H2G18239   6.111   0.065   2.632
  162OSM    C3F18240   6.005  -0.131   2.671
  162OSM    H3F18241   6.088  -0.169   2.735
  162OSM    H3G18242   5.968  -0.216   2.610
  162OSM    C4F18243   5.895  -0.083   2.767
  162OSM    H4F18244   5.845  -0.166   2.820
  162OSM    H4G18245   5.815  -0.052   2.696
  162OSM    C5F18246   5.939   0.023   2.871
  162OSM    H5F18247   5.846   0.066   2.915
  162OSM    H5G18248   5.990   0.100   2.809
  162OSM    C6F18249   6.026  -0.042   2.980
  162OSM    H6F18250   6.091   0.027   3.038
  162OSM    H6G18251   6.084  -0.121   2.928
  162OSM    C7F18252   5.936  -0.109   3.088
  162OSM    H7F18253   6.000  -0.174   3.153
  162OSM    H7G18254   5.864  -0.184   3.049
  162OSM    C8F18255   5.844  -0.027   3.185
  162OSM    H8F18256   5.759  -0.088   3.223
  162OSM    H8G18257   5.786   0.047   3.126
  162OSM    C9F18258   5.924   0.056   3.288
  162OSM    H9F18259   5.943   0.159   3.255
  162OSM   C10F18260   5.968   0.007   3.408
  162OSM   H10F18261   6.008   0.086   3.474
  162OSM   C11F18262   5.971  -0.132   3.462
  162OSM   H11F18263   6.000  -0.217   3.396
  162OSM   H11G18264   5.869  -0.157   3.499
  162OSM   C12F18265   6.063  -0.147   3.587
  162OSM   H12F18266   6.160  -0.114   3.543
  162OSM   H12G18267   6.066  -0.253   3.621
  162OSM   C13F18268   6.036  -0.068   3.713
  162OSM   H13F18269   5.935  -0.085   3.756
  162OSM   H13G18270   6.030   0.037   3.678
  162OSM   C14F18271   6.123  -0.087   3.840
  162OSM   H14F18272   6.227  -0.055   3.820
  162OSM   H14G18273   6.125  -0.194   3.870
  162OSM   C15F18274   6.076   0.010   3.949
  162OSM   H15F18275   6.003  -0.044   4.013
  162OSM   H15G18276   6.020   0.092   3.900
  162OSM   C16F18277   6.188   0.067   4.034
  162OSM   H16F18278   6.245   0.143   3.975
  162OSM   H16G18279   6.260  -0.015   4.054
  162OSM   C17F18280   6.148   0.110   4.177
  162OSM   H17F18281   6.070   0.035   4.201
  162OSM   H17G18282   6.107   0.213   4.192
  162OSM   C18F18283   6.265   0.092   4.270
  162OSM   H18F18284   6.294  -0.014   4.283
  162OSM   H18G18285   6.244   0.123   4.375
  162OSM   H18H18286   6.351   0.156   4.242
  163OSM      N18287   5.174   1.109   2.077
  163OSM    C1518288   5.041   1.081   2.144
  163OSM   H15A18289   5.016   1.146   2.227
  163OSM   H15B18290   5.033   0.977   2.174
  163OSM   H15C18291   4.959   1.101   2.077
  163OSM    C1418292   5.187   1.254   2.059
  163OSM   H14A18293   5.267   1.276   1.989
  163OSM   H14B18294   5.189   1.304   2.154
  163OSM   H14C18295   5.102   1.282   1.999
  163OSM    C1318296   5.292   1.059   2.164
  163OSM   H13A18297   5.296   1.105   2.262
  163OSM   H13B18298   5.386   1.074   2.113
  163OSM   H13C18299   5.293   0.951   2.163
  163OSM    C1218300   5.161   1.041   1.941
  163OSM   H12A18301   5.090   1.099   1.884
  163OSM   H12B18302   5.116   0.946   1.965
  163OSM    C1118303   5.286   1.008   1.858
  163OSM   H11A18304   5.370   1.070   1.897
  163OSM   H11B18305   5.279   1.037   1.750
  163OSM      P18306   5.234   0.757   1.797
  163OSM    O1318307   5.113   0.822   1.737
  163OSM    O1418308   5.323   0.671   1.714
  163OSM    O1118309   5.186   0.672   1.911
  163OSM    O1218310   5.318   0.870   1.871
  163OSM    C1S18311   5.226   0.693   2.053
  163OSM    H1S18312   5.196   0.798   2.073
  163OSM    H1T18313   5.336   0.682   2.069
  163OSM     NF18314   5.108   0.670   2.273
  163OSM    HNF18315   5.158   0.659   2.358
  163OSM    C2S18316   5.155   0.596   2.153
  163OSM    H2S18317   5.065   0.561   2.098
  163OSM    C3S18318   5.254   0.480   2.168
  163OSM    H3S18319   5.357   0.508   2.202
  163OSM     O318320   5.283   0.423   2.040
  163OSM    HO318321   5.241   0.482   1.976
  163OSM    C4S18322   5.188   0.382   2.260
  163OSM    H4S18323   5.079   0.369   2.245
  163OSM    C5S18324   5.246   0.326   2.363
  163OSM    H5S18325   5.356   0.330   2.363
  163OSM    C6S18326   5.179   0.236   2.459
  163OSM    H6S18327   5.242   0.150   2.490
  163OSM    H6T18328   5.080   0.197   2.428
  163OSM    C7S18329   5.151   0.315   2.589
  163OSM    H7S18330   5.093   0.409   2.581
  163OSM    H7T18331   5.250   0.344   2.629
  163OSM    C8S18332   5.099   0.220   2.696
  163OSM    H8S18333   5.153   0.123   2.693
  163OSM    H8T18334   4.995   0.191   2.673
  163OSM    C9S18335   5.115   0.276   2.837
  163OSM    H9S18336   5.082   0.382   2.827
  163OSM    H9T18337   5.225   0.277   2.849
  163OSM   C10S18338   5.043   0.206   2.952
  163OSM   H10S18339   5.087   0.106   2.967
  163OSM   H10T18340   4.934   0.206   2.930
  163OSM   C11S18341   5.060   0.275   3.089
  163OSM   H11S18342   5.007   0.372   3.085
  163OSM   H11T18343   5.171   0.280   3.096
  163OSM   C12S18344   5.011   0.189   3.200
  163OSM   H12S18345   5.068   0.093   3.204
  163OSM   H12T18346   4.905   0.163   3.176
  163OSM   C13S18347   4.990   0.264   3.337
  163OSM   H13S18348   4.983   0.371   3.308
  163OSM   H13T18349   5.075   0.249   3.406
  163OSM   C14S18350   4.873   0.213   3.424
  163OSM   H14S18351   4.876   0.104   3.441
  163OSM   H14T18352   4.777   0.239   3.375
  163OSM   C15S18353   4.866   0.289   3.556
  163OSM   H15S18354   4.848   0.393   3.520
  163OSM   H15T18355   4.960   0.281   3.614
  163OSM   C16S18356   4.754   0.236   3.648
  163OSM   H16S18357   4.750   0.127   3.630
  163OSM   H16T18358   4.661   0.284   3.609
  163OSM   C17S18359   4.778   0.280   3.798
  163OSM   H17S18360   4.874   0.236   3.832
  163OSM   H17T18361   4.695   0.242   3.861
  163OSM   C18S18362   4.783   0.431   3.803
  163OSM   H18S18363   4.874   0.481   3.761
  163OSM   H18T18364   4.791   0.456   3.911
  163OSM   H18U18365   4.693   0.476   3.755
  163OSM    C1F18366   5.008   0.753   2.268
  163OSM     OF18367   4.948   0.775   2.163
  163OSM    C2F18368   4.971   0.814   2.400
  163OSM    H2F18369   5.053   0.879   2.438
  163OSM    H2G18370   4.939   0.736   2.472
  163OSM    C3F18371   4.844   0.905   2.386
  163OSM    H3F18372   4.769   0.840   2.334
  163OSM    H3G18373   4.855   0.995   2.322
  163OSM    C4F18374   4.802   0.938   2.528
  163OSM    H4F18375   4.862   1.023   2.567
  163OSM    H4G18376   4.827   0.854   2.595
  163OSM    C5F18377   4.651   0.966   2.540
  163OSM    H5F18378   4.605   0.865   2.535
  163OSM    H5G18379   4.619   1.024   2.451
  163OSM    C6F18380   4.611   1.039   2.668
  163OSM    H6F18381   4.500   1.031   2.672
  163OSM    H6G18382   4.632   1.149   2.668
  163OSM    C7F18383   4.674   0.975   2.795
  163OSM    H7F18384   4.784   0.973   2.778
  163OSM    H7G18385   4.638   0.872   2.816
  163OSM    C8F18386   4.652   1.056   2.920
  163OSM    H8F18387   4.543   1.046   2.937
  163OSM    H8G18388   4.674   1.162   2.896
  163OSM    C9F18389   4.722   1.003   3.038
  163OSM    H9F18390   4.815   0.947   3.018
  163OSM   C10F18391   4.672   1.011   3.163
  163OSM   H10F18392   4.732   0.967   3.244
  163OSM   C11F18393   4.547   1.083   3.204
  163OSM   H11F18394   4.451   1.036   3.174
  163OSM   H11G18395   4.532   1.173   3.140
  163OSM   C12F18396   4.527   1.109   3.354
  163OSM   H12F18397   4.626   1.118   3.404
  163OSM   H12G18398   4.468   1.031   3.407
  163OSM   C13F18399   4.452   1.240   3.380
  163OSM   H13F18400   4.350   1.223   3.339
  163OSM   H13G18401   4.502   1.323   3.327
  163OSM   C14F18402   4.443   1.272   3.534
  163OSM   H14F18403   4.533   1.318   3.580
  163OSM   H14G18404   4.429   1.174   3.584
  163OSM   C15F18405   4.320   1.366   3.571
  163OSM   H15F18406   4.237   1.297   3.594
  163OSM   H15G18407   4.296   1.429   3.482
  163OSM   C16F18408   4.360   1.454   3.695
  163OSM   H16F18409   4.281   1.531   3.710
  163OSM   H16G18410   4.456   1.503   3.669
  163OSM   C17F18411   4.377   1.357   3.814
  163OSM   H17F18412   4.471   1.299   3.795
  163OSM   H17G18413   4.290   1.289   3.825
  163OSM   C18F18414   4.403   1.440   3.947
  163OSM   H18F18415   4.332   1.519   3.981
  163OSM   H18G18416   4.505   1.483   3.956
  163OSM   H18H18417   4.399   1.365   4.029
  164OSM      N18418   0.128   0.181   2.319
  164OSM    C1518419   0.069   0.039   2.316
  164OSM   H15A18420   0.020   0.022   2.410
  164OSM   H15B18421   0.145  -0.036   2.298
  164OSM   H15C18422  -0.006   0.038   2.239
  164OSM    C1418423   0.167   0.221   2.181
  164OSM   H14A18424   0.088   0.247   2.112
  164OSM   H14B18425   0.231   0.144   2.140
  164OSM   H14C18426   0.233   0.306   2.191
  164OSM    C1318427   0.012   0.270   2.360
  164OSM   H13A18428   0.040   0.375   2.354
  164OSM   H13B18429  -0.014   0.254   2.463
  164OSM   H13C18430  -0.072   0.250   2.296
  164OSM    C1218431   0.246   0.174   2.415
  164OSM   H12A18432   0.323   0.116   2.365
  164OSM   H12B18433   0.212   0.130   2.507
  164OSM    C1118434   0.311   0.306   2.451
  164OSM   H11A18435   0.393   0.306   2.527
  164OSM   H11B18436   0.235   0.372   2.497
  164OSM      P18437   0.493   0.351   2.274
  164OSM    O1318438   0.522   0.210   2.250
  164OSM    O1418439   0.517   0.449   2.164
  164OSM    O1118440   0.582   0.404   2.391
  164OSM    O1218441   0.349   0.378   2.330
  164OSM    C1S18442   0.554   0.515   2.468
  164OSM    H1S18443   0.447   0.542   2.472
  164OSM    H1T18444   0.615   0.605   2.447
  164OSM     NF18445   0.585   0.607   2.678
  164OSM    HNF18446   0.663   0.669   2.689
  164OSM    C2S18447   0.602   0.480   2.614
  164OSM    H2S18448   0.534   0.405   2.659
  164OSM    C3S18449   0.751   0.429   2.612
  164OSM    H3S18450   0.821   0.494   2.556
  164OSM     O318451   0.773   0.295   2.570
  164OSM    HO318452   0.684   0.267   2.550
  164OSM    C4S18453   0.803   0.420   2.755
  164OSM    H4S18454   0.744   0.347   2.812
  164OSM    C5S18455   0.881   0.503   2.824
  164OSM    H5S18456   0.913   0.590   2.765
  164OSM    C6S18457   0.927   0.490   2.967
  164OSM    H6S18458   1.037   0.494   2.975
  164OSM    H6T18459   0.901   0.395   3.018
  164OSM    C7S18460   0.887   0.611   3.058
  164OSM    H7S18461   0.776   0.611   3.065
  164OSM    H7T18462   0.925   0.700   3.004
  164OSM    C8S18463   0.947   0.612   3.200
  164OSM    H8S18464   1.056   0.635   3.209
  164OSM    H8T18465   0.938   0.514   3.252
  164OSM    C9S18466   0.870   0.700   3.300
  164OSM    H9S18467   0.760   0.694   3.281
  164OSM    H9T18468   0.895   0.808   3.287
  164OSM   C10S18469   0.901   0.650   3.442
  164OSM   H10S18470   1.010   0.637   3.456
  164OSM   H10T18471   0.855   0.551   3.460
  164OSM   C11S18472   0.846   0.737   3.555
  164OSM   H11S18473   0.740   0.755   3.527
  164OSM   H11T18474   0.894   0.837   3.566
  164OSM   C12S18475   0.859   0.675   3.695
  164OSM   H12S18476   0.968   0.674   3.718
  164OSM   H12T18477   0.831   0.568   3.706
  164OSM   C13S18478   0.800   0.762   3.806
  164OSM   H13S18479   0.689   0.764   3.801
  164OSM   H13T18480   0.842   0.863   3.792
  164OSM   C14S18481   0.836   0.714   3.953
  164OSM   H14S18482   0.945   0.734   3.963
  164OSM   H14T18483   0.812   0.608   3.974
  164OSM   C15S18484   0.769   0.810   4.054
  164OSM   H15S18485   0.670   0.760   4.060
  164OSM   H15T18486   0.754   0.911   4.010
  164OSM   C16S18487   0.844   0.800   4.186
  164OSM   H16S18488   0.944   0.837   4.155
  164OSM   H16T18489   0.865   0.699   4.228
  164OSM   C17S18490   0.774   0.880   4.301
  164OSM   H17S18491   0.673   0.837   4.314
  164OSM   H17T18492   0.765   0.989   4.283
  164OSM   C18S18493   0.848   0.868   4.433
  164OSM   H18S18494   0.851   0.761   4.463
  164OSM   H18T18495   0.805   0.919   4.521
  164OSM   H18U18496   0.950   0.911   4.427
  164OSM    C1F18497   0.464   0.658   2.715
  164OSM     OF18498   0.364   0.589   2.721
  164OSM    C2F18499   0.454   0.801   2.754
  164OSM    H2F18500   0.531   0.865   2.706
  164OSM    H2G18501   0.460   0.810   2.864
  164OSM    C3F18502   0.318   0.858   2.714
  164OSM    H3F18503   0.234   0.830   2.780
  164OSM    H3G18504   0.288   0.833   2.609
  164OSM    C4F18505   0.320   1.015   2.706
  164OSM    H4F18506   0.226   1.041   2.653
  164OSM    H4G18507   0.403   1.048   2.639
  164OSM    C5F18508   0.325   1.079   2.846
  164OSM    H5F18509   0.363   1.182   2.863
  164OSM    H5G18510   0.397   1.020   2.907
  164OSM    C6F18511   0.191   1.085   2.926
  164OSM    H6F18512   0.172   0.983   2.965
  164OSM    H6G18513   0.114   1.115   2.851
  164OSM    C7F18514   0.197   1.171   3.049
  164OSM    H7F18515   0.230   1.273   3.019
  164OSM    H7G18516   0.282   1.149   3.118
  164OSM    C8F18517   0.063   1.175   3.128
  164OSM    H8F18518  -0.022   1.172   3.057
  164OSM    H8G18519   0.053   1.277   3.171
  164OSM    C9F18520   0.055   1.065   3.235
  164OSM    H9F18521   0.042   0.964   3.194
  164OSM   C10F18522   0.020   1.087   3.363
  164OSM   H10F18523   0.037   1.006   3.435
  164OSM   C11F18524   0.024   1.230   3.432
  164OSM   H11F18525  -0.083   1.260   3.430
  164OSM   H11G18526   0.086   1.308   3.384
  164OSM   C12F18527   0.060   1.235   3.585
  164OSM   H12F18528   0.053   1.338   3.627
  164OSM   H12G18529   0.165   1.202   3.602
  164OSM   C13F18530  -0.026   1.144   3.671
  164OSM   H13F18531  -0.030   1.039   3.636
  164OSM   H13G18532  -0.131   1.180   3.660
  164OSM   C14F18533  -0.004   1.142   3.826
  164OSM   H14F18534  -0.012   1.245   3.868
  164OSM   H14G18535   0.100   1.116   3.857
  164OSM   C15F18536  -0.112   1.067   3.899
  164OSM   H15F18537  -0.131   0.966   3.857
  164OSM   H15G18538  -0.209   1.122   3.896
  164OSM   C16F18539  -0.087   1.063   4.053
  164OSM   H16F18540  -0.066   1.158   4.108
  164OSM   H16G18541   0.006   1.005   4.065
  164OSM   C17F18542  -0.196   1.000   4.139
  164OSM   H17F18543  -0.289   1.056   4.118
  164OSM   H17G18544  -0.183   1.013   4.249
  164OSM   C18F18545  -0.239   0.855   4.119
  164OSM   H18F18546  -0.148   0.797   4.147
  164OSM   H18G18547  -0.266   0.852   4.011
  164OSM   H18H18548  -0.327   0.816   4.174
  165SAPS     N18549   4.569   3.484   6.978
  165SAPS   HN118550   4.534   3.582   6.983
  165SAPS   HN218551   4.579   3.474   6.875
  165SAPS   HN318552   4.495   3.417   7.007
  165SAPS   C1218553   4.691   3.468   7.065
  165SAPS  H12A18554   4.753   3.556   7.053
  165SAPS   C1318555   4.647   3.461   7.216
  165SAPS  O13A18556   4.525   3.462   7.246
  165SAPS  O13B18557   4.741   3.440   7.294
  165SAPS   C1118558   4.773   3.339   7.022
  165SAPS  H11A18559   4.716   3.245   7.036
  165SAPS  H11B18560   4.859   3.336   7.092
  165SAPS     P18561   4.837   3.229   6.791
  165SAPS   O1318562   4.914   3.127   6.859
  165SAPS   O1418563   4.694   3.205   6.755
  165SAPS   O1218564   4.831   3.356   6.887
  165SAPS   O1118565   4.911   3.297   6.676
  165SAPS    C118566   5.034   3.247   6.617
  165SAPS    HA18567   5.101   3.335   6.621
  165SAPS    HB18568   5.085   3.172   6.681
  165SAPS    C218569   5.025   3.186   6.474
  165SAPS    HS18570   5.123   3.205   6.426
  165SAPS   O2118571   4.911   3.252   6.400
  165SAPS   C2118572   4.938   3.381   6.378
  165SAPS   O2218573   5.052   3.423   6.380
  165SAPS   C2218574   4.815   3.451   6.333
  165SAPS   H2R18575   4.829   3.488   6.229
  165SAPS   H2S18576   4.736   3.373   6.333
  165SAPS    C318577   5.008   3.028   6.473
  165SAPS    HX18578   4.902   3.001   6.493
  165SAPS    HY18579   5.071   2.979   6.550
  165SAPS   O3118580   5.053   2.976   6.344
  165SAPS   C3118581   5.184   2.974   6.321
  165SAPS   O3218582   5.275   3.016   6.387
  165SAPS   C3218583   5.211   2.910   6.181
  165SAPS   H2X18584   5.159   2.971   6.104
  165SAPS   H2Y18585   5.158   2.813   6.186
  165SAPS   C2318586   4.770   3.579   6.405
  165SAPS   H3R18587   4.853   3.652   6.414
  165SAPS   H3S18588   4.733   3.550   6.506
  165SAPS   C2418589   4.659   3.644   6.332
  165SAPS   H4R18590   4.694   3.683   6.234
  165SAPS   H4S18591   4.628   3.732   6.393
  165SAPS   C2518592   4.538   3.562   6.323
  165SAPS   H5R18593   4.493   3.515   6.412
  165SAPS   C2618594   4.475   3.527   6.205
  165SAPS   H6R18595   4.393   3.454   6.214
  165SAPS   C2718596   4.504   3.558   6.065
  165SAPS   H7R18597   4.569   3.647   6.053
  165SAPS   H7S18598   4.411   3.583   6.011
  165SAPS   C2818599   4.576   3.443   5.995
  165SAPS   H8R18600   4.527   3.346   6.013
  165SAPS   C2918601   4.693   3.444   5.942
  165SAPS   H9R18602   4.745   3.357   5.899
  165SAPS  C21018603   4.769   3.579   5.921
  165SAPS  H10R18604   4.799   3.610   6.023
  165SAPS  H10S18605   4.696   3.656   5.889
  165SAPS  C21118606   4.896   3.565   5.834
  165SAPS  H11R18607   4.987   3.527   5.883
  165SAPS  C21218608   4.895   3.589   5.702
  165SAPS  H12R18609   4.988   3.585   5.644
  165SAPS  C21318610   4.775   3.626   5.619
  165SAPS  H13R18611   4.803   3.686   5.530
  165SAPS  H13S18612   4.711   3.702   5.668
  165SAPS  C21418613   4.686   3.509   5.572
  165SAPS  H14R18614   4.588   3.503   5.622
  165SAPS  C21518615   4.702   3.449   5.455
  165SAPS  H15R18616   4.629   3.376   5.416
  165SAPS  C21618617   4.822   3.461   5.360
  165SAPS  H16R18618   4.858   3.356   5.355
  165SAPS  H16S18619   4.907   3.518   5.403
  165SAPS  C21718620   4.790   3.521   5.226
  165SAPS  H17R18621   4.877   3.513   5.157
  165SAPS  H17S18622   4.775   3.631   5.237
  165SAPS  C21818623   4.678   3.449   5.150
  165SAPS  H18R18624   4.574   3.459   5.189
  165SAPS  H18S18625   4.704   3.342   5.136
  165SAPS  C21918626   4.682   3.507   5.006
  165SAPS  H19R18627   4.783   3.484   4.967
  165SAPS  H19S18628   4.671   3.618   5.006
  165SAPS  C22018629   4.596   3.451   4.901
  165SAPS  H20R18630   4.636   3.485   4.803
  165SAPS  H20S18631   4.495   3.497   4.906
  165SAPS  H20T18632   4.582   3.341   4.909
  165SAPS   C3318633   5.358   2.879   6.153
  165SAPS   H3X18634   5.393   2.820   6.240
  165SAPS   H3Y18635   5.421   2.971   6.155
  165SAPS   C3418636   5.373   2.797   6.023
  165SAPS   H4X18637   5.317   2.701   6.028
  165SAPS   H4Y18638   5.482   2.777   6.017
  165SAPS   C3518639   5.351   2.883   5.893
  165SAPS   H5X18640   5.401   2.982   5.903
  165SAPS   H5Y18641   5.246   2.920   5.895
  165SAPS   C3618642   5.383   2.796   5.773
  165SAPS   H6X18643   5.333   2.698   5.762
  165SAPS   H6Y18644   5.493   2.780   5.777
  165SAPS   C3718645   5.358   2.876   5.647
  165SAPS   H7X18646   5.431   2.959   5.631
  165SAPS   H7Y18647   5.255   2.917   5.643
  165SAPS   C3818648   5.387   2.784   5.530
  165SAPS   H8X18649   5.312   2.704   5.544
  165SAPS   H8Y18650   5.485   2.734   5.543
  165SAPS   C3918651   5.362   2.843   5.386
  165SAPS   H9X18652   5.436   2.918   5.351
  165SAPS   H9Y18653   5.270   2.905   5.386
  165SAPS  C31018654   5.347   2.744   5.267
  165SAPS  H10X18655   5.259   2.679   5.283
  165SAPS  H10Y18656   5.435   2.676   5.264
  165SAPS  C31118657   5.335   2.821   5.139
  165SAPS  H11X18658   5.429   2.875   5.116
  165SAPS  H11Y18659   5.262   2.901   5.162
  165SAPS  C31218660   5.291   2.743   5.019
  165SAPS  H12X18661   5.198   2.686   5.037
  165SAPS  H12Y18662   5.364   2.668   4.981
  165SAPS  C31318663   5.244   2.841   4.895
  165SAPS  H13X18664   5.333   2.901   4.867
  165SAPS  H13Y18665   5.180   2.922   4.937
  165SAPS  C31418666   5.194   2.767   4.770
  165SAPS  H14X18667   5.178   2.842   4.690
  165SAPS  H14Y18668   5.101   2.710   4.791
  165SAPS  C31518669   5.294   2.662   4.711
  165SAPS  H15X18670   5.277   2.675   4.602
  165SAPS  H15Y18671   5.267   2.558   4.737
  165SAPS  C31618672   5.443   2.698   4.718
  165SAPS  H16X18673   5.473   2.730   4.820
  165SAPS  H16Y18674   5.453   2.787   4.652
  165SAPS  C31718675   5.529   2.577   4.682
  165SAPS  H17X18676   5.476   2.480   4.698
  165SAPS  H17Y18677   5.611   2.584   4.757
  165SAPS  C31818678   5.583   2.589   4.542
  165SAPS  H18X18679   5.646   2.681   4.540
  165SAPS  H18Y18680   5.507   2.596   4.462
  165SAPS  H18Z18681   5.647   2.503   4.514
  166SAPS     N18682   2.770   3.070   6.957
  166SAPS   HN118683   2.760   2.990   6.891
  166SAPS   HN218684   2.829   3.041   7.037
  166SAPS   HN318685   2.674   3.100   6.983
  166SAPS   C1218686   2.842   3.175   6.880
  166SAPS  H12A18687   2.866   3.265   6.935
  166SAPS   C1318688   2.987   3.137   6.840
  166SAPS  O13A18689   3.027   3.017   6.864
  166SAPS  O13B18690   3.056   3.211   6.766
  166SAPS   C1118691   2.762   3.221   6.760
  166SAPS  H11A18692   2.765   3.129   6.698
  166SAPS  H11B18693   2.822   3.294   6.701
  166SAPS     P18694   2.580   3.401   6.797
  166SAPS   O1318695   2.440   3.408   6.844
  166SAPS   O1418696   2.679   3.490   6.855
  166SAPS   O1218697   2.627   3.252   6.796
  166SAPS   O1118698   2.583   3.437   6.647
  166SAPS    C118699   2.536   3.350   6.537
  166SAPS    HA18700   2.612   3.272   6.517
  166SAPS    HB18701   2.439   3.301   6.559
  166SAPS    C218702   2.505   3.430   6.412
  166SAPS    HS18703   2.472   3.360   6.332
  166SAPS   O2118704   2.614   3.510   6.366
  166SAPS   C2118705   2.714   3.445   6.296
  166SAPS   O2218706   2.721   3.325   6.274
  166SAPS   C2218707   2.819   3.555   6.250
  166SAPS   H2R18708   2.774   3.622   6.174
  166SAPS   H2S18709   2.837   3.613   6.343
  166SAPS    C318710   2.383   3.521   6.426
  166SAPS    HX18711   2.399   3.597   6.505
  166SAPS    HY18712   2.309   3.450   6.469
  166SAPS   O3118713   2.341   3.562   6.295
  166SAPS   C3118714   2.236   3.636   6.297
  166SAPS   O3218715   2.148   3.640   6.380
  166SAPS   C3218716   2.225   3.722   6.172
  166SAPS   H2X18717   2.293   3.691   6.089
  166SAPS   H2Y18718   2.257   3.822   6.209
  166SAPS   C2318719   2.958   3.514   6.205
  166SAPS   H3R18720   2.949   3.466   6.105
  166SAPS   H3S18721   2.995   3.435   6.275
  166SAPS   C2418722   3.066   3.621   6.199
  166SAPS   H4R18723   3.161   3.575   6.164
  166SAPS   H4S18724   3.087   3.665   6.299
  166SAPS   C2518725   3.025   3.729   6.101
  166SAPS   H5R18726   2.925   3.770   6.121
  166SAPS   C2618727   3.096   3.777   5.989
  166SAPS   H6R18728   3.054   3.850   5.918
  166SAPS   C2718729   3.233   3.746   5.945
  166SAPS   H7R18730   3.256   3.639   5.965
  166SAPS   H7S18731   3.301   3.795   6.018
  166SAPS   C2818732   3.267   3.782   5.802
  166SAPS   H8R18733   3.348   3.856   5.795
  166SAPS   C2918734   3.231   3.716   5.686
  166SAPS   H9R18735   3.260   3.757   5.588
  166SAPS  C21018736   3.138   3.601   5.657
  166SAPS  H10R18737   3.146   3.542   5.752
  166SAPS  H10S18738   3.165   3.538   5.570
  166SAPS  C21118739   3.001   3.672   5.640
  166SAPS  H11R18740   2.938   3.665   5.730
  166SAPS  C21218741   2.941   3.725   5.526
  166SAPS  H12R18742   2.856   3.794   5.531
  166SAPS  C21318743   3.010   3.728   5.391
  166SAPS  H13R18744   3.066   3.634   5.370
  166SAPS  H13S18745   3.095   3.799   5.386
  166SAPS  C21418746   2.924   3.766   5.272
  166SAPS  H14R18747   2.893   3.871   5.272
  166SAPS  C21518748   2.886   3.690   5.167
  166SAPS  H15R18749   2.811   3.736   5.101
  166SAPS  C21618750   2.900   3.541   5.158
  166SAPS  H16R18751   2.948   3.490   5.243
  166SAPS  H16S18752   2.975   3.523   5.078
  166SAPS  C21718753   2.777   3.455   5.134
  166SAPS  H17R18754   2.708   3.478   5.219
  166SAPS  H17S18755   2.814   3.351   5.137
  166SAPS  C21818756   2.701   3.491   5.002
  166SAPS  H18R18757   2.765   3.511   4.914
  166SAPS  H18S18758   2.642   3.584   5.018
  166SAPS  C21918759   2.608   3.370   4.966
  166SAPS  H19R18760   2.550   3.342   5.057
  166SAPS  H19S18761   2.669   3.283   4.935
  166SAPS  C22018762   2.521   3.414   4.849
  166SAPS  H20R18763   2.595   3.428   4.768
  166SAPS  H20S18764   2.481   3.515   4.873
  166SAPS  H20T18765   2.446   3.336   4.823
  166SAPS   C3318766   2.083   3.730   6.111
  166SAPS   H3X18767   2.098   3.788   6.017
  166SAPS   H3Y18768   2.014   3.777   6.185
  166SAPS   C3418769   2.020   3.598   6.089
  166SAPS   H4X18770   2.003   3.557   6.191
  166SAPS   H4Y18771   2.082   3.517   6.043
  166SAPS   C3518772   1.885   3.614   6.018
  166SAPS   H5X18773   1.842   3.694   6.082
  166SAPS   H5Y18774   1.825   3.522   6.030
  166SAPS   C3618775   1.887   3.662   5.875
  166SAPS   H6X18776   1.923   3.767   5.866
  166SAPS   H6Y18777   1.781   3.674   5.846
  166SAPS   C3718778   1.966   3.560   5.791
  166SAPS   H7X18779   1.929   3.457   5.811
  166SAPS   H7Y18780   2.074   3.571   5.814
  166SAPS   C3818781   1.931   3.568   5.641
  166SAPS   H8X18782   1.822   3.555   5.623
  166SAPS   H8Y18783   1.988   3.483   5.596
  166SAPS   C3918784   1.977   3.698   5.583
  166SAPS   H9X18785   2.086   3.695   5.561
  166SAPS   H9Y18786   1.971   3.779   5.659
  166SAPS  C31018787   1.902   3.736   5.453
  166SAPS  H10X18788   1.931   3.838   5.419
  166SAPS  H10Y18789   1.793   3.736   5.478
  166SAPS  C31118790   1.932   3.641   5.336
  166SAPS  H11X18791   1.869   3.550   5.337
  166SAPS  H11Y18792   2.039   3.613   5.329
  166SAPS  C31218793   1.904   3.723   5.206
  166SAPS  H12X18794   1.969   3.813   5.209
  166SAPS  H12Y18795   1.801   3.765   5.212
  166SAPS  C31318796   1.931   3.647   5.078
  166SAPS  H13X18797   1.857   3.565   5.069
  166SAPS  H13Y18798   2.034   3.607   5.090
  166SAPS  C31418799   1.931   3.744   4.960
  166SAPS  H14X18800   2.024   3.804   4.964
  166SAPS  H14Y18801   1.856   3.823   4.977
  166SAPS  C31518802   1.925   3.669   4.825
  166SAPS  H15X18803   1.986   3.576   4.824
  166SAPS  H15Y18804   1.955   3.738   4.743
  166SAPS  C31618805   1.785   3.623   4.793
  166SAPS  H16X18806   1.715   3.705   4.767
  166SAPS  H16Y18807   1.743   3.560   4.874
  166SAPS  C31718808   1.770   3.529   4.669
  166SAPS  H17X18809   1.851   3.453   4.663
  166SAPS  H17Y18810   1.770   3.591   4.577
  166SAPS  C31818811   1.643   3.445   4.664
  166SAPS  H18X18812   1.624   3.387   4.758
  166SAPS  H18Y18813   1.651   3.364   4.588
  166SAPS  H18Z18814   1.557   3.514   4.653
  167SAPS     N18815   5.742   5.148   6.899
  167SAPS   HN118816   5.840   5.148   6.934
  167SAPS   HN218817   5.737   5.148   6.795
  167SAPS   HN318818   5.696   5.238   6.923
  167SAPS   C1218819   5.653   5.038   6.955
  167SAPS  H12A18820   5.687   4.950   6.902
  167SAPS   C1318821   5.666   5.020   7.102
  167SAPS  O13A18822   5.766   5.079   7.157
  167SAPS  O13B18823   5.594   4.947   7.166
  167SAPS   C1118824   5.513   5.085   6.908
  167SAPS  H11A18825   5.499   5.191   6.937
  167SAPS  H11B18826   5.435   5.025   6.960
  167SAPS     P18827   5.377   5.069   6.672
  167SAPS   O1318828   5.267   5.121   6.757
  167SAPS   O1418829   5.419   5.144   6.556
  167SAPS   O1218830   5.507   5.060   6.764
  167SAPS   O1118831   5.343   4.920   6.634
  167SAPS    C118832   5.411   4.813   6.693
  167SAPS    HA18833   5.433   4.831   6.800
  167SAPS    HB18834   5.344   4.724   6.699
  167SAPS    C218835   5.531   4.762   6.614
  167SAPS    HS18836   5.606   4.843   6.627
  167SAPS   O2118837   5.479   4.752   6.479
  167SAPS   C2118838   5.555   4.805   6.381
  167SAPS   O2218839   5.664   4.855   6.398
  167SAPS   C2218840   5.490   4.783   6.252
  167SAPS   H2R18841   5.514   4.680   6.216
  167SAPS   H2S18842   5.380   4.785   6.265
  167SAPS    C318843   5.590   4.626   6.652
  167SAPS    HX18844   5.510   4.550   6.646
  167SAPS    HY18845   5.624   4.643   6.757
  167SAPS   O3118846   5.692   4.589   6.565
  167SAPS   C3118847   5.751   4.468   6.594
  167SAPS   O3218848   5.716   4.405   6.695
  167SAPS   C3218849   5.856   4.426   6.491
  167SAPS   H2X18850   5.956   4.431   6.539
  167SAPS   H2Y18851   5.853   4.498   6.407
  167SAPS   C2318852   5.527   4.896   6.156
  167SAPS   H3R18853   5.510   4.870   6.049
  167SAPS   H3S18854   5.634   4.925   6.158
  167SAPS   C2418855   5.452   5.032   6.178
  167SAPS   H4R18856   5.459   5.045   6.288
  167SAPS   H4S18857   5.343   5.024   6.158
  167SAPS   C2518858   5.499   5.154   6.097
  167SAPS   H5R18859   5.562   5.225   6.152
  167SAPS   C2618860   5.500   5.171   5.966
  167SAPS   H6R18861   5.531   5.267   5.921
  167SAPS   C2718862   5.435   5.086   5.857
  167SAPS   H7R18863   5.352   5.137   5.804
  167SAPS   H7S18864   5.384   4.999   5.904
  167SAPS   C2818865   5.534   5.038   5.761
  167SAPS   H8R18866   5.602   4.960   5.800
  167SAPS   C2918867   5.558   5.073   5.629
  167SAPS   H9R18868   5.623   5.008   5.569
  167SAPS  C21018869   5.481   5.175   5.546
  167SAPS  H10R18870   5.445   5.250   5.620
  167SAPS  H10S18871   5.392   5.130   5.497
  167SAPS  C21118872   5.574   5.240   5.444
  167SAPS  H11R18873   5.631   5.324   5.485
  167SAPS  C21218874   5.579   5.206   5.309
  167SAPS  H12R18875   5.640   5.262   5.237
  167SAPS  C21318876   5.508   5.099   5.237
  167SAPS  H13R18877   5.522   5.004   5.294
  167SAPS  H13S18878   5.567   5.103   5.144
  167SAPS  C21418879   5.361   5.110   5.229
  167SAPS  H14R18880   5.309   5.188   5.286
  167SAPS  C21518881   5.288   5.043   5.140
  167SAPS  H15R18882   5.184   5.077   5.132
  167SAPS  C21618883   5.327   4.942   5.037
  167SAPS  H16R18884   5.279   4.846   5.064
  167SAPS  H16S18885   5.435   4.915   5.033
  167SAPS  C21718886   5.278   4.977   4.891
  167SAPS  H17R18887   5.326   5.074   4.864
  167SAPS  H17S18888   5.169   4.994   4.902
  167SAPS  C21818889   5.307   4.880   4.782
  167SAPS  H18R18890   5.311   4.775   4.819
  167SAPS  H18S18891   5.414   4.904   4.763
  167SAPS  C21918892   5.230   4.879   4.653
  167SAPS  H19R18893   5.259   4.969   4.594
  167SAPS  H19S18894   5.119   4.884   4.655
  167SAPS  C22018895   5.263   4.748   4.574
  167SAPS  H20R18896   5.242   4.761   4.466
  167SAPS  H20S18897   5.192   4.674   4.616
  167SAPS  H20T18898   5.370   4.720   4.581
  167SAPS   C3318899   5.838   4.285   6.431
  167SAPS   H3X18900   5.853   4.212   6.513
  167SAPS   H3Y18901   5.926   4.271   6.365
  167SAPS   C3418902   5.703   4.245   6.376
  167SAPS   H4X18903   5.615   4.262   6.443
  167SAPS   H4Y18904   5.706   4.136   6.356
  167SAPS   C3518905   5.657   4.327   6.252
  167SAPS   H5X18906   5.635   4.433   6.279
  167SAPS   H5Y18907   5.556   4.290   6.222
  167SAPS   C3618908   5.751   4.313   6.131
  167SAPS   H6X18909   5.759   4.209   6.093
  167SAPS   H6Y18910   5.850   4.357   6.152
  167SAPS   C3718911   5.695   4.399   6.011
  167SAPS   H7X18912   5.678   4.504   6.044
  167SAPS   H7Y18913   5.596   4.351   6.003
  167SAPS   C3818914   5.786   4.383   5.888
  167SAPS   H8X18915   5.796   4.275   5.863
  167SAPS   H8Y18916   5.884   4.425   5.918
  167SAPS   C3918917   5.731   4.452   5.765
  167SAPS   H9X18918   5.629   4.418   5.738
  167SAPS   H9Y18919   5.802   4.439   5.680
  167SAPS  C31018920   5.729   4.606   5.790
  167SAPS  H10X18921   5.813   4.623   5.860
  167SAPS  H10Y18922   5.634   4.620   5.846
  167SAPS  C31118923   5.742   4.697   5.666
  167SAPS  H11X18924   5.832   4.667   5.608
  167SAPS  H11Y18925   5.761   4.800   5.703
  167SAPS  C31218926   5.622   4.695   5.561
  167SAPS  H12X18927   5.531   4.744   5.602
  167SAPS  H12Y18928   5.604   4.586   5.550
  167SAPS  C31318929   5.666   4.764   5.432
  167SAPS  H13X18930   5.716   4.856   5.467
  167SAPS  H13Y18931   5.575   4.806   5.384
  167SAPS  C31418932   5.745   4.679   5.337
  167SAPS  H14X18933   5.693   4.581   5.328
  167SAPS  H14Y18934   5.845   4.663   5.383
  167SAPS  C31518935   5.759   4.757   5.207
  167SAPS  H15X18936   5.802   4.857   5.232
  167SAPS  H15Y18937   5.660   4.782   5.162
  167SAPS  C31618938   5.850   4.687   5.102
  167SAPS  H16X18939   5.827   4.579   5.106
  167SAPS  H16Y18940   5.955   4.692   5.139
  167SAPS  C31718941   5.847   4.751   4.968
  167SAPS  H17X18942   5.911   4.842   4.962
  167SAPS  H17Y18943   5.743   4.776   4.941
  167SAPS  C31818944   5.915   4.654   4.865
  167SAPS  H18X18945   5.880   4.667   4.760
  167SAPS  H18Y18946   5.884   4.550   4.885
  167SAPS  H18Z18947   6.026   4.658   4.868
  168SAPS     N18948   3.814   5.098   6.648
  168SAPS   HN118949   3.795   5.080   6.547
  168SAPS   HN218950   3.733   5.084   6.712
  168SAPS   HN318951   3.855   5.191   6.672
  168SAPS   C1218952   3.903   4.980   6.688
  168SAPS  H12A18953   3.994   5.008   6.638
  168SAPS   C1318954   3.936   4.974   6.842
  168SAPS  O13A18955   3.878   5.062   6.915
  168SAPS  O13B18956   3.979   4.861   6.891
  168SAPS   C1118957   3.829   4.840   6.646
  168SAPS  H11A18958   3.895   4.751   6.657
  168SAPS  H11B18959   3.810   4.840   6.536
  168SAPS     P18960   3.633   4.690   6.723
  168SAPS   O1318961   3.728   4.607   6.793
  168SAPS   O1418962   3.495   4.702   6.780
  168SAPS   O1218963   3.701   4.838   6.713
  168SAPS   O1118964   3.624   4.643   6.574
  168SAPS    C118965   3.658   4.513   6.532
  168SAPS    HA18966   3.760   4.487   6.569
  168SAPS    HB18967   3.581   4.441   6.568
  168SAPS    C218968   3.660   4.515   6.374
  168SAPS    HS18969   3.675   4.411   6.339
  168SAPS   O2118970   3.758   4.601   6.314
  168SAPS   C2118971   3.887   4.588   6.339
  168SAPS   O2218972   3.930   4.497   6.413
  168SAPS   C2218973   3.970   4.698   6.265
  168SAPS   H2R18974   3.920   4.698   6.166
  168SAPS   H2S18975   3.957   4.800   6.305
  168SAPS    C318976   3.522   4.551   6.317
  168SAPS    HX18977   3.498   4.656   6.346
  168SAPS    HY18978   3.450   4.478   6.359
  168SAPS   O3118979   3.525   4.552   6.170
  168SAPS   C3118980   3.406   4.577   6.119
  168SAPS   O3218981   3.304   4.609   6.180
  168SAPS   C3218982   3.416   4.577   5.971
  168SAPS   H2X18983   3.473   4.486   5.941
  168SAPS   H2Y18984   3.482   4.664   5.950
  168SAPS   C2318985   4.116   4.677   6.256
  168SAPS   H3R18986   4.142   4.570   6.263
  168SAPS   H3S18987   4.160   4.731   6.343
  168SAPS   C2418988   4.164   4.730   6.126
  168SAPS   H4R18989   4.106   4.824   6.110
  168SAPS   H4S18990   4.120   4.659   6.053
  168SAPS   C2518991   4.313   4.772   6.119
  168SAPS   H5R18992   4.354   4.803   6.217
  168SAPS   C2618993   4.391   4.800   6.010
  168SAPS   H6R18994   4.500   4.806   6.024
  168SAPS   C2718995   4.338   4.796   5.864
  168SAPS   H7R18996   4.380   4.708   5.810
  168SAPS   H7S18997   4.379   4.886   5.814
  168SAPS   C2818998   4.195   4.795   5.806
  168SAPS   H8R18999   4.120   4.807   5.885
  168SAPS   C2919000   4.156   4.828   5.684
  168SAPS   H9R19001   4.047   4.821   5.674
  168SAPS  C21019002   4.240   4.853   5.559
  168SAPS  H10R19003   4.345   4.820   5.576
  168SAPS  H10S19004   4.262   4.961   5.549
  168SAPS  C21119005   4.207   4.791   5.423
  168SAPS  H11R19006   4.214   4.683   5.406
  168SAPS  C21219007   4.189   4.876   5.315
  168SAPS  H12R19008   4.169   4.828   5.217
  168SAPS  C21319009   4.174   5.024   5.313
  168SAPS  H13R19010   4.218   5.056   5.216
  168SAPS  H13S19011   4.251   5.061   5.385
  168SAPS  C21419012   4.035   5.074   5.348
  168SAPS  H14R19013   4.001   5.040   5.447
  168SAPS  C21519014   3.960   5.162   5.281
  168SAPS  H15R19015   3.875   5.204   5.337
  168SAPS  C21619016   3.990   5.231   5.149
  168SAPS  H16R19017   4.098   5.240   5.124
  168SAPS  H16S19018   3.952   5.335   5.158
  168SAPS  C21719019   3.915   5.166   5.040
  168SAPS  H17R19020   3.809   5.169   5.074
  168SAPS  H17S19021   3.941   5.059   5.030
  168SAPS  C21819022   3.939   5.241   4.900
  168SAPS  H18R19023   4.038   5.196   4.879
  168SAPS  H18S19024   3.942   5.352   4.906
  168SAPS  C21919025   3.834   5.197   4.803
  168SAPS  H19R19026   3.740   5.238   4.846
  168SAPS  H19S19027   3.811   5.089   4.803
  168SAPS  C22019028   3.837   5.261   4.657
  168SAPS  H20R19029   3.905   5.199   4.594
  168SAPS  H20S19030   3.875   5.365   4.665
  168SAPS  H20T19031   3.733   5.276   4.621
  168SAPS   C3319032   3.285   4.608   5.886
  168SAPS   H3X19033   3.254   4.714   5.877
  168SAPS   H3Y19034   3.195   4.551   5.917
  168SAPS   C3419035   3.325   4.577   5.738
  168SAPS   H4X19036   3.341   4.468   5.727
  168SAPS   H4Y19037   3.422   4.627   5.715
  168SAPS   C3519038   3.230   4.622   5.631
  168SAPS   H5X19039   3.195   4.727   5.639
  168SAPS   H5Y19040   3.143   4.555   5.647
  168SAPS   C3619041   3.286   4.608   5.490
  168SAPS   H6X19042   3.309   4.500   5.473
  168SAPS   H6Y19043   3.387   4.654   5.490
  168SAPS   C3719044   3.192   4.648   5.377
  168SAPS   H7X19045   3.157   4.753   5.376
  168SAPS   H7Y19046   3.103   4.580   5.385
  168SAPS   C3819047   3.260   4.617   5.247
  168SAPS   H8X19048   3.277   4.508   5.232
  168SAPS   H8Y19049   3.355   4.674   5.237
  168SAPS   C3919050   3.177   4.675   5.137
  168SAPS   H9X19051   3.169   4.786   5.145
  168SAPS   H9Y19052   3.071   4.643   5.134
  168SAPS  C31019053   3.241   4.673   4.997
  168SAPS  H10X19054   3.263   4.566   4.976
  168SAPS  H10Y19055   3.346   4.709   5.006
  168SAPS  C31119056   3.153   4.729   4.886
  168SAPS  H11X19057   3.172   4.837   4.871
  168SAPS  H11Y19058   3.046   4.728   4.916
  168SAPS  C31219059   3.167   4.652   4.758
  168SAPS  H12X19060   3.149   4.544   4.777
  168SAPS  H12Y19061   3.275   4.661   4.733
  168SAPS  C31319062   3.083   4.706   4.641
  168SAPS  H13X19063   3.113   4.813   4.641
  168SAPS  H13Y19064   2.973   4.693   4.644
  168SAPS  C31419065   3.112   4.623   4.511
  168SAPS  H14X19066   3.105   4.514   4.526
  168SAPS  H14Y19067   3.212   4.644   4.468
  168SAPS  C31519068   3.012   4.653   4.390
  168SAPS  H15X19069   3.017   4.763   4.371
  168SAPS  H15Y19070   2.907   4.628   4.416
  168SAPS  C31619071   3.049   4.589   4.255
  168SAPS  H16X19072   2.988   4.616   4.167
  168SAPS  H16Y19073   3.039   4.479   4.266
  168SAPS  C31719074   3.195   4.603   4.210
  168SAPS  H17X19075   3.258   4.554   4.287
  168SAPS  H17Y19076   3.224   4.710   4.204
  168SAPS  C31819077   3.226   4.538   4.069
  168SAPS  H18X19078   3.182   4.589   3.981
  168SAPS  H18Y19079   3.189   4.433   4.076
  168SAPS  H18Z19080   3.336   4.542   4.055
  169SAPS     N19081   5.237   0.264   6.986
  169SAPS   HN119082   5.196   0.345   7.037
  169SAPS   HN219083   5.209   0.262   6.886
  169SAPS   HN319084   5.188   0.182   7.028
  169SAPS   C1219085   5.379   0.234   6.987
  169SAPS  H12A19086   5.428   0.326   6.960
  169SAPS   C1319087   5.426   0.188   7.128
  169SAPS  O13A19088   5.354   0.174   7.228
  169SAPS  O13B19089   5.547   0.158   7.137
  169SAPS   C1119090   5.406   0.116   6.890
  169SAPS  H11A19091   5.367   0.022   6.935
  169SAPS  H11B19092   5.517   0.110   6.884
  169SAPS     P19093   5.289   0.010   6.674
  169SAPS   O1319094   5.224  -0.084   6.767
  169SAPS   O1419095   5.210   0.063   6.571
  169SAPS   O1219096   5.342   0.136   6.758
  169SAPS   O1119097   5.422  -0.047   6.610
  169SAPS    C119098   5.529   0.027   6.570
  169SAPS    HA19099   5.506   0.132   6.543
  169SAPS    HB19100   5.599   0.034   6.656
  169SAPS    C219101   5.595  -0.042   6.448
  169SAPS    HS19102   5.673   0.028   6.410
  169SAPS   O2119103   5.488  -0.069   6.353
  169SAPS   C2119104   5.458   0.030   6.277
  169SAPS   O2219105   5.509   0.143   6.276
  169SAPS   C2219106   5.343  -0.022   6.191
  169SAPS   H2R19107   5.275  -0.084   6.253
  169SAPS   H2S19108   5.284   0.071   6.175
  169SAPS    C319109   5.664  -0.175   6.475
  169SAPS    HX19110   5.585  -0.238   6.521
  169SAPS    HY19111   5.741  -0.166   6.555
  169SAPS   O3119112   5.715  -0.251   6.358
  169SAPS   C3119113   5.834  -0.225   6.323
  169SAPS   O3219114   5.909  -0.149   6.383
  169SAPS   C3219115   5.870  -0.304   6.194
  169SAPS   H2X19116   5.910  -0.233   6.118
  169SAPS   H2Y19117   5.776  -0.343   6.149
  169SAPS   C2319118   5.384  -0.066   6.050
  169SAPS   H3R19119   5.422   0.024   5.997
  169SAPS   H3S19120   5.297  -0.104   5.993
  169SAPS   C2419121   5.505  -0.169   6.031
  169SAPS   H4R19122   5.483  -0.257   6.094
  169SAPS   H4S19123   5.589  -0.107   6.070
  169SAPS   C2519124   5.528  -0.195   5.883
  169SAPS   H5R19125   5.536  -0.109   5.814
  169SAPS   C2619126   5.526  -0.322   5.831
  169SAPS   H6R19127   5.541  -0.344   5.724
  169SAPS   C2719128   5.502  -0.443   5.912
  169SAPS   H7R19129   5.414  -0.435   5.980
  169SAPS   H7S19130   5.593  -0.458   5.975
  169SAPS   C2819131   5.468  -0.565   5.822
  169SAPS   H8R19132   5.367  -0.565   5.779
  169SAPS   C2919133   5.548  -0.665   5.787
  169SAPS   H9R19134   5.504  -0.737   5.717
  169SAPS  C21019135   5.699  -0.682   5.814
  169SAPS  H10R19136   5.701  -0.706   5.922
  169SAPS  H10S19137   5.748  -0.583   5.823
  169SAPS  C21119138   5.763  -0.768   5.708
  169SAPS  H11R19139   5.805  -0.862   5.747
  169SAPS  C21219140   5.782  -0.729   5.580
  169SAPS  H12R19141   5.836  -0.789   5.505
  169SAPS  C21319142   5.758  -0.592   5.523
  169SAPS  H13R19143   5.653  -0.557   5.538
  169SAPS  H13S19144   5.776  -0.612   5.416
  169SAPS  C21419145   5.843  -0.485   5.580
  169SAPS  H14R19146   5.862  -0.486   5.688
  169SAPS  C21519147   5.883  -0.380   5.506
  169SAPS  H15R19148   5.959  -0.320   5.559
  169SAPS  C21619149   5.847  -0.346   5.362
  169SAPS  H16R19150   5.837  -0.433   5.293
  169SAPS  H16S19151   5.938  -0.296   5.323
  169SAPS  C21719152   5.722  -0.258   5.345
  169SAPS  H17R19153   5.640  -0.294   5.411
  169SAPS  H17S19154   5.682  -0.266   5.242
  169SAPS  C21819155   5.731  -0.110   5.390
  169SAPS  H18R19156   5.662  -0.062   5.318
  169SAPS  H18S19157   5.840  -0.086   5.385
  169SAPS  C21919158   5.685  -0.088   5.536
  169SAPS  H19R19159   5.759  -0.137   5.603
  169SAPS  H19S19160   5.588  -0.141   5.548
  169SAPS  C22019161   5.683   0.063   5.560
  169SAPS  H20R19162   5.651   0.077   5.666
  169SAPS  H20S19163   5.601   0.105   5.499
  169SAPS  H20T19164   5.770   0.127   5.532
  169SAPS   C3319165   5.975  -0.420   6.206
  169SAPS   H3X19166   5.943  -0.490   6.286
  169SAPS   H3Y19167   6.069  -0.371   6.238
  169SAPS   C3419168   6.011  -0.487   6.073
  169SAPS   H4X19169   5.920  -0.535   6.031
  169SAPS   H4Y19170   6.086  -0.562   6.107
  169SAPS   C3519171   6.072  -0.393   5.977
  169SAPS   H5X19172   6.147  -0.320   6.015
  169SAPS   H5Y19173   5.998  -0.318   5.942
  169SAPS   C3619174   6.150  -0.461   5.863
  169SAPS   H6X19175   6.077  -0.511   5.795
  169SAPS   H6Y19176   6.208  -0.540   5.915
  169SAPS   C3719177   6.246  -0.368   5.793
  169SAPS   H7X19178   6.331  -0.331   5.853
  169SAPS   H7Y19179   6.191  -0.272   5.786
  169SAPS   C3819180   6.293  -0.424   5.659
  169SAPS   H8X19181   6.205  -0.468   5.607
  169SAPS   H8Y19182   6.362  -0.504   5.691
  169SAPS   C3919183   6.353  -0.311   5.573
  169SAPS   H9X19184   6.457  -0.291   5.607
  169SAPS   H9Y19185   6.284  -0.225   5.588
  169SAPS  C31019186   6.363  -0.335   5.418
  169SAPS  H10X19187   6.261  -0.348   5.377
  169SAPS  H10Y19188   6.428  -0.424   5.407
  169SAPS  C31119189   6.427  -0.219   5.342
  169SAPS  H11X19190   6.514  -0.175   5.395
  169SAPS  H11Y19191   6.352  -0.136   5.345
  169SAPS  C31219192   6.443  -0.250   5.189
  169SAPS  H12X19193   6.339  -0.264   5.152
  169SAPS  H12Y19194   6.492  -0.349   5.176
  169SAPS  C31319195   6.528  -0.146   5.113
  169SAPS  H13X19196   6.635  -0.161   5.136
  169SAPS  H13Y19197   6.496  -0.048   5.157
  169SAPS  C31419198   6.502  -0.132   4.960
  169SAPS  H14X19199   6.397  -0.111   4.930
  169SAPS  H14Y19200   6.519  -0.226   4.903
  169SAPS  C31519201   6.592  -0.017   4.907
  169SAPS  H15X19202   6.700  -0.022   4.931
  169SAPS  H15Y19203   6.564   0.084   4.944
  169SAPS  C31619204   6.568  -0.020   4.751
  169SAPS  H16X19205   6.458  -0.026   4.737
  169SAPS  H16Y19206   6.603  -0.116   4.705
  169SAPS  C31719207   6.627   0.106   4.687
  169SAPS  H17X19208   6.735   0.106   4.712
  169SAPS  H17Y19209   6.593   0.196   4.743
  169SAPS  C31819210   6.614   0.129   4.530
  169SAPS  H18X19211   6.637   0.237   4.517
  169SAPS  H18Y19212   6.517   0.093   4.489
  169SAPS  H18Z19213   6.686   0.057   4.485
  170SAPS     N19214   0.787   4.444   7.413
  170SAPS   HN119215   0.699   4.426   7.466
  170SAPS   HN219216   0.842   4.356   7.410
  170SAPS   HN319217   0.846   4.511   7.466
  170SAPS   C1219218   0.771   4.498   7.272
  170SAPS  H12A19219   0.713   4.588   7.287
  170SAPS   C1319220   0.905   4.544   7.204
  170SAPS  O13A19221   1.008   4.548   7.276
  170SAPS  O13B19222   0.899   4.605   7.095
  170SAPS   C1119223   0.710   4.381   7.182
  170SAPS  H11A19224   0.789   4.305   7.164
  170SAPS  H11B19225   0.695   4.411   7.077
  170SAPS     P19226   0.552   4.173   7.253
  170SAPS   O1319227   0.647   4.095   7.334
  170SAPS   O1419228   0.415   4.177   7.304
  170SAPS   O1219229   0.591   4.325   7.238
  170SAPS   O1119230   0.556   4.105   7.111
  170SAPS    C119231   0.545   4.184   6.985
  170SAPS    HA19232   0.486   4.278   6.991
  170SAPS    HB19233   0.645   4.220   6.952
  170SAPS    C219234   0.493   4.099   6.863
  170SAPS    HS19235   0.503   4.161   6.771
  170SAPS   O2119236   0.362   4.038   6.879
  170SAPS   C2119237   0.267   4.104   6.815
  170SAPS   O2219238   0.275   4.201   6.745
  170SAPS   C2219239   0.138   4.024   6.839
  170SAPS   H2R19240   0.179   3.925   6.868
  170SAPS   H2S19241   0.083   4.060   6.929
  170SAPS    C319242   0.585   3.978   6.829
  170SAPS    HX19243   0.616   3.923   6.920
  170SAPS    HY19244   0.680   4.010   6.781
  170SAPS   O3119245   0.522   3.870   6.748
  170SAPS   C3119246   0.546   3.884   6.623
  170SAPS   O3219247   0.612   3.970   6.567
  170SAPS   C3219248   0.473   3.772   6.547
  170SAPS   H2X19249   0.369   3.768   6.585
  170SAPS   H2Y19250   0.533   3.683   6.576
  170SAPS   C2319251   0.051   4.003   6.717
  170SAPS   H3R19252  -0.024   4.084   6.702
  170SAPS   H3S19253  -0.006   3.912   6.743
  170SAPS   C2419254   0.126   3.979   6.585
  170SAPS   H4R19255   0.212   3.912   6.609
  170SAPS   H4S19256   0.173   4.072   6.546
  170SAPS   C2519257   0.047   3.918   6.467
  170SAPS   H5R19258   0.037   3.809   6.474
  170SAPS   C2619259   0.007   3.979   6.357
  170SAPS   H6R19260  -0.050   3.916   6.287
  170SAPS   C2719261   0.007   4.127   6.324
  170SAPS   H7R19262   0.108   4.173   6.336
  170SAPS   H7S19263  -0.065   4.188   6.383
  170SAPS   C2819264  -0.022   4.142   6.178
  170SAPS   H8R19265   0.047   4.084   6.114
  170SAPS   C2919266  -0.091   4.241   6.106
  170SAPS   H9R19267  -0.107   4.245   5.997
  170SAPS  C21019268  -0.186   4.339   6.165
  170SAPS  H10R19269  -0.204   4.303   6.269
  170SAPS  H10S19270  -0.290   4.344   6.126
  170SAPS  C21119271  -0.110   4.470   6.159
  170SAPS  H11R19272  -0.021   4.487   6.222
  170SAPS  C21219273  -0.131   4.571   6.074
  170SAPS  H12R19274  -0.079   4.667   6.091
  170SAPS  C21319275  -0.237   4.573   5.975
  170SAPS  H13R19276  -0.321   4.506   6.004
  170SAPS  H13S19277  -0.195   4.519   5.887
  170SAPS  C21419278  -0.289   4.709   5.938
  170SAPS  H14R19279  -0.394   4.716   5.969
  170SAPS  C21519280  -0.238   4.804   5.859
  170SAPS  H15R19281  -0.305   4.888   5.834
  170SAPS  C21619282  -0.108   4.793   5.787
  170SAPS  H16R19283  -0.046   4.705   5.815
  170SAPS  H16S19284  -0.051   4.886   5.806
  170SAPS  C21719285  -0.136   4.773   5.643
  170SAPS  H17R19286  -0.216   4.842   5.607
  170SAPS  H17S19287  -0.166   4.667   5.628
  170SAPS  C21819288  -0.015   4.817   5.557
  170SAPS  H18R19289   0.061   4.744   5.593
  170SAPS  H18S19290   0.010   4.922   5.582
  170SAPS  C21919291  -0.030   4.809   5.403
  170SAPS  H19R19292  -0.106   4.878   5.360
  170SAPS  H19S19293  -0.052   4.701   5.386
  170SAPS  C22019294   0.101   4.840   5.335
  170SAPS  H20R19295   0.104   4.949   5.314
  170SAPS  H20S19296   0.117   4.793   5.236
  170SAPS  H20T19297   0.187   4.805   5.397
  170SAPS   C3319298   0.458   3.801   6.396
  170SAPS   H3X19299   0.561   3.798   6.354
  170SAPS   H3Y19300   0.439   3.910   6.384
  170SAPS   C3419301   0.350   3.724   6.327
  170SAPS   H4X19302   0.258   3.754   6.382
  170SAPS   H4Y19303   0.361   3.614   6.334
  170SAPS   C3519304   0.320   3.765   6.176
  170SAPS   H5X19305   0.410   3.748   6.113
  170SAPS   H5Y19306   0.299   3.874   6.183
  170SAPS   C3619307   0.197   3.697   6.117
  170SAPS   H6X19308   0.171   3.753   6.025
  170SAPS   H6Y19309   0.102   3.704   6.174
  170SAPS   C3719310   0.215   3.549   6.073
  170SAPS   H7X19311   0.202   3.490   6.166
  170SAPS   H7Y19312   0.315   3.524   6.031
  170SAPS   C3819313   0.109   3.494   5.974
  170SAPS   H8X19314   0.001   3.511   5.995
  170SAPS   H8Y19315   0.104   3.384   5.984
  170SAPS   C3919316   0.142   3.528   5.826
  170SAPS   H9X19317   0.128   3.634   5.795
  170SAPS   H9Y19318   0.057   3.479   5.774
  170SAPS  C31019319   0.282   3.474   5.780
  170SAPS  H10X19320   0.283   3.376   5.832
  170SAPS  H10Y19321   0.363   3.532   5.829
  170SAPS  C31119322   0.298   3.465   5.632
  170SAPS  H11X19323   0.260   3.555   5.580
  170SAPS  H11Y19324   0.236   3.381   5.592
  170SAPS  C31219325   0.444   3.444   5.584
  170SAPS  H12X19326   0.489   3.354   5.630
  170SAPS  H12Y19327   0.499   3.524   5.638
  170SAPS  C31319328   0.468   3.459   5.436
  170SAPS  H13X19329   0.456   3.569   5.423
  170SAPS  H13Y19330   0.380   3.414   5.385
  170SAPS  C31419331   0.594   3.402   5.367
  170SAPS  H14X19332   0.611   3.299   5.406
  170SAPS  H14Y19333   0.685   3.460   5.394
  170SAPS  C31519334   0.583   3.406   5.213
  170SAPS  H15X19335   0.559   3.508   5.177
  170SAPS  H15Y19336   0.499   3.347   5.171
  170SAPS  C31619337   0.713   3.358   5.150
  170SAPS  H16X19338   0.701   3.247   5.149
  170SAPS  H16Y19339   0.797   3.384   5.218
  170SAPS  C31719340   0.740   3.416   5.014
  170SAPS  H17X19341   0.747   3.527   5.021
  170SAPS  H17Y19342   0.657   3.401   4.942
  170SAPS  C31819343   0.876   3.363   4.965
  170SAPS  H18X19344   0.956   3.384   5.039
  170SAPS  H18Y19345   0.901   3.405   4.864
  170SAPS  H18Z19346   0.864   3.253   4.958
  171SAPS     N19347   0.754   4.849   7.058
  171SAPS   HN119348   0.825   4.895   6.999
  171SAPS   HN219349   0.764   4.881   7.157
  171SAPS   HN319350   0.783   4.749   7.053
  171SAPS   C1219351   0.613   4.876   7.002
  171SAPS  H12A19352   0.545   4.846   7.081
  171SAPS   C1319353   0.572   5.029   6.991
  171SAPS  O13A19354   0.660   5.120   7.007
  171SAPS  O13B19355   0.460   5.069   6.946
  171SAPS   C1119356   0.602   4.820   6.855
  171SAPS  H11A19357   0.667   4.884   6.792
  171SAPS  H11B19358   0.502   4.840   6.811
  171SAPS     P19359   0.561   4.565   6.826
  171SAPS   O1319360   0.635   4.439   6.824
  171SAPS   O1419361   0.462   4.577   6.934
  171SAPS   O1219362   0.659   4.686   6.833
  171SAPS   O1119363   0.487   4.586   6.686
  171SAPS    C119364   0.554   4.658   6.584
  171SAPS    HA19365   0.525   4.763   6.606
  171SAPS    HB19366   0.664   4.641   6.580
  171SAPS    C219367   0.494   4.617   6.446
  171SAPS    HS19368   0.393   4.662   6.458
  171SAPS   O2119369   0.510   4.479   6.422
  171SAPS   C2119370   0.400   4.411   6.441
  171SAPS   O2219371   0.292   4.455   6.478
  171SAPS   C2219372   0.430   4.266   6.413
  171SAPS   H2R19373   0.513   4.243   6.483
  171SAPS   H2S19374   0.340   4.211   6.451
  171SAPS    C319375   0.558   4.707   6.342
  171SAPS    HX19376   0.667   4.690   6.334
  171SAPS    HY19377   0.543   4.813   6.372
  171SAPS   O3119378   0.492   4.698   6.213
  171SAPS   C3119379   0.367   4.734   6.191
  171SAPS   O3219380   0.284   4.759   6.274
  171SAPS   C3219381   0.346   4.753   6.039
  171SAPS   H2X19382   0.445   4.767   5.989
  171SAPS   H2Y19383   0.298   4.853   6.038
  171SAPS   C2319384   0.480   4.232   6.271
  171SAPS   H3R19385   0.508   4.125   6.262
  171SAPS   H3S19386   0.569   4.297   6.259
  171SAPS   C2419387   0.376   4.252   6.158
  171SAPS   H4R19388   0.330   4.351   6.176
  171SAPS   H4S19389   0.306   4.168   6.172
  171SAPS   C2519390   0.449   4.250   6.027
  171SAPS   H5R19391   0.558   4.235   6.029
  171SAPS   C2619392   0.389   4.261   5.909
  171SAPS   H6R19393   0.450   4.266   5.818
  171SAPS   C2719394   0.239   4.286   5.884
  171SAPS   H7R19395   0.225   4.379   5.826
  171SAPS   H7S19396   0.192   4.322   5.978
  171SAPS   C2819397   0.183   4.158   5.821
  171SAPS   H8R19398   0.214   4.065   5.871
  171SAPS   C2919399   0.115   4.148   5.709
  171SAPS   H9R19400   0.077   4.049   5.677
  171SAPS  C21019401   0.089   4.261   5.605
  171SAPS  H10R19402   0.078   4.211   5.507
  171SAPS  H10S19403   0.180   4.325   5.597
  171SAPS  C21119404  -0.032   4.342   5.641
  171SAPS  H11R19405  -0.026   4.396   5.736
  171SAPS  C21219406  -0.149   4.365   5.574
  171SAPS  H12R19407  -0.233   4.416   5.623
  171SAPS  C21319408  -0.187   4.311   5.437
  171SAPS  H13R19409  -0.296   4.321   5.418
  171SAPS  H13S19410  -0.175   4.200   5.439
  171SAPS  C21419411  -0.114   4.380   5.325
  171SAPS  H14R19412  -0.078   4.480   5.350
  171SAPS  C21519413  -0.084   4.333   5.203
  171SAPS  H15R19414  -0.030   4.398   5.133
  171SAPS  C21619415  -0.111   4.188   5.161
  171SAPS  H16R19416  -0.216   4.156   5.141
  171SAPS  H16S19417  -0.067   4.134   5.247
  171SAPS  C21719418  -0.030   4.148   5.033
  171SAPS  H17R19419   0.072   4.188   5.051
  171SAPS  H17S19420  -0.076   4.205   4.950
  171SAPS  C21819421  -0.042   4.001   5.000
  171SAPS  H18R19422  -0.146   3.964   5.011
  171SAPS  H18S19423   0.016   3.945   5.076
  171SAPS  C21919424   0.023   3.962   4.866
  171SAPS  H19R19425   0.125   4.003   4.877
  171SAPS  H19S19426  -0.031   4.013   4.783
  171SAPS  C22019427   0.025   3.808   4.841
  171SAPS  H20R19428  -0.056   3.786   4.768
  171SAPS  H20S19429   0.010   3.758   4.939
  171SAPS  H20T19430   0.125   3.774   4.810
  171SAPS   C3319431   0.269   4.647   5.949
  171SAPS   H3X19432   0.159   4.661   5.956
  171SAPS   H3Y19433   0.302   4.545   5.980
  171SAPS   C3419434   0.315   4.669   5.804
  171SAPS   H4X19435   0.329   4.779   5.795
  171SAPS   H4Y19436   0.236   4.643   5.731
  171SAPS   C3519437   0.443   4.591   5.770
  171SAPS   H5X19438   0.419   4.486   5.746
  171SAPS   H5Y19439   0.517   4.602   5.853
  171SAPS   C3619440   0.531   4.643   5.653
  171SAPS   H6X19441   0.469   4.676   5.567
  171SAPS   H6Y19442   0.611   4.570   5.628
  171SAPS   C3719443   0.594   4.779   5.685
  171SAPS   H7X19444   0.651   4.771   5.780
  171SAPS   H7Y19445   0.517   4.859   5.687
  171SAPS   C3819446   0.694   4.813   5.580
  171SAPS   H8X19447   0.753   4.720   5.567
  171SAPS   H8Y19448   0.768   4.889   5.612
  171SAPS   C3919449   0.635   4.874   5.442
  171SAPS   H9X19450   0.561   4.955   5.460
  171SAPS   H9Y19451   0.571   4.803   5.385
  171SAPS  C31019452   0.754   4.934   5.366
  171SAPS  H10X19453   0.824   4.850   5.350
  171SAPS  H10Y19454   0.815   5.002   5.430
  171SAPS  C31119455   0.717   5.014   5.235
  171SAPS  H11X19456   0.641   4.962   5.173
  171SAPS  H11Y19457   0.810   5.025   5.176
  171SAPS  C31219458   0.660   5.155   5.269
  171SAPS  H12X19459   0.735   5.215   5.325
  171SAPS  H12Y19460   0.574   5.145   5.339
  171SAPS  C31319461   0.612   5.235   5.145
  171SAPS  H13X19462   0.557   5.324   5.182
  171SAPS  H13Y19463   0.527   5.174   5.106
  171SAPS  C31419464   0.718   5.267   5.040
  171SAPS  H14X19465   0.662   5.333   4.970
  171SAPS  H14Y19466   0.759   5.190   4.971
  171SAPS  C31519467   0.832   5.355   5.104
  171SAPS  H15X19468   0.888   5.302   5.184
  171SAPS  H15Y19469   0.787   5.449   5.143
  171SAPS  C31619470   0.934   5.401   4.988
  171SAPS  H16X19471   0.961   5.312   4.927
  171SAPS  H16Y19472   1.016   5.448   5.045
  171SAPS  C31719473   0.877   5.503   4.895
  171SAPS  H17X19474   0.858   5.595   4.954
  171SAPS  H17Y19475   0.779   5.476   4.849
  171SAPS  C31819476   0.974   5.546   4.791
  171SAPS  H18X19477   1.064   5.599   4.829
  171SAPS  H18Y19478   0.921   5.607   4.714
  171SAPS  H18Z19479   1.017   5.457   4.740
  172SAPS     N19480   1.233   6.391   6.903
  172SAPS   HN119481   1.261   6.414   7.001
  172SAPS   HN219482   1.319   6.383   6.845
  172SAPS   HN319483   1.176   6.473   6.874
  172SAPS   C1219484   1.147   6.268   6.904
  172SAPS  H12A19485   1.188   6.203   6.980
  172SAPS   C1319486   0.999   6.281   6.940
  172SAPS  O13A19487   0.958   6.386   6.989
  172SAPS  O13B19488   0.942   6.172   6.963
  172SAPS   C1119489   1.151   6.192   6.770
  172SAPS  H11A19490   1.110   6.255   6.687
  172SAPS  H11B19491   1.087   6.102   6.778
  172SAPS     P19492   1.336   6.008   6.743
  172SAPS   O1319493   1.468   6.007   6.687
  172SAPS   O1419494   1.319   5.938   6.875
  172SAPS   O1219495   1.282   6.158   6.746
  172SAPS   O1119496   1.245   5.933   6.642
  172SAPS    C119497   1.189   5.987   6.520
  172SAPS    HA19498   1.080   5.973   6.502
  172SAPS    HB19499   1.206   6.097   6.510
  172SAPS    C219500   1.252   5.920   6.401
  172SAPS    HS19501   1.198   5.955   6.311
  172SAPS   O2119502   1.250   5.776   6.419
  172SAPS   C2119503   1.138   5.716   6.364
  172SAPS   O2219504   1.045   5.775   6.309
  172SAPS   C2219505   1.167   5.567   6.366
  172SAPS   H2R19506   1.268   5.546   6.325
  172SAPS   H2S19507   1.173   5.540   6.474
  172SAPS    C319508   1.405   5.958   6.390
  172SAPS    HX19509   1.461   5.898   6.466
  172SAPS    HY19510   1.419   6.066   6.412
  172SAPS   O3119511   1.448   5.921   6.251
  172SAPS   C3119512   1.510   5.818   6.226
  172SAPS   O3219513   1.547   5.726   6.295
  172SAPS   C3219514   1.536   5.807   6.070
  172SAPS   H2X19515   1.555   5.700   6.045
  172SAPS   H2Y19516   1.628   5.865   6.049
  172SAPS   C2319517   1.056   5.487   6.310
  172SAPS   H3R19518   1.065   5.499   6.200
  172SAPS   H3S19519   0.967   5.529   6.361
  172SAPS   C2419520   1.055   5.338   6.346
  172SAPS   H4R19521   1.092   5.315   6.449
  172SAPS   H4S19522   1.138   5.304   6.280
  172SAPS   C2519523   0.933   5.258   6.317
  172SAPS   H5R19524   0.840   5.313   6.298
  172SAPS   C2619525   0.934   5.124   6.290
  172SAPS   H6R19526   0.836   5.080   6.267
  172SAPS   C2719527   1.059   5.034   6.270
  172SAPS   H7R19528   1.135   5.060   6.346
  172SAPS   H7S19529   1.101   5.065   6.172
  172SAPS   C2819530   1.043   4.885   6.254
  172SAPS   H8R19531   1.086   4.821   6.333
  172SAPS   C2919532   0.995   4.830   6.141
  172SAPS   H9R19533   0.975   4.722   6.134
  172SAPS  C21019534   0.946   4.912   6.024
  172SAPS  H10R19535   1.010   4.899   5.934
  172SAPS  H10S19536   0.950   5.021   6.046
  172SAPS  C21119537   0.800   4.880   6.005
  172SAPS  H11R19538   0.773   4.773   6.011
  172SAPS  C21219539   0.700   4.957   5.974
  172SAPS  H12R19540   0.610   4.908   5.935
  172SAPS  C21319541   0.700   5.107   5.958
  172SAPS  H13R19542   0.780   5.151   6.022
  172SAPS  H13S19543   0.606   5.159   5.985
  172SAPS  C21419544   0.728   5.154   5.818
  172SAPS  H14R19545   0.835   5.178   5.804
  172SAPS  C21519546   0.641   5.164   5.712
  172SAPS  H15R19547   0.676   5.197   5.613
  172SAPS  C21619548   0.495   5.136   5.725
  172SAPS  H16R19549   0.474   5.075   5.815
  172SAPS  H16S19550   0.468   5.069   5.640
  172SAPS  C21719551   0.408   5.260   5.699
  172SAPS  H17R19552   0.449   5.306   5.606
  172SAPS  H17S19553   0.426   5.338   5.776
  172SAPS  C21819554   0.263   5.230   5.696
  172SAPS  H18R19555   0.220   5.332   5.683
  172SAPS  H18S19556   0.209   5.193   5.786
  172SAPS  C21919557   0.216   5.144   5.571
  172SAPS  H19R19558   0.106   5.130   5.579
  172SAPS  H19S19559   0.256   5.041   5.586
  172SAPS  C22019560   0.251   5.201   5.437
  172SAPS  H20R19561   0.241   5.119   5.363
  172SAPS  H20S19562   0.354   5.242   5.442
  172SAPS  H20T19563   0.184   5.288   5.417
  172SAPS   C3319564   1.417   5.859   5.992
  172SAPS   H3X19565   1.447   5.860   5.886
  172SAPS   H3Y19566   1.404   5.966   6.018
  172SAPS   C3419567   1.286   5.775   6.003
  172SAPS   H4X19568   1.214   5.848   5.960
  172SAPS   H4Y19569   1.263   5.751   6.109
  172SAPS   C3519570   1.313   5.646   5.922
  172SAPS   H5X19571   1.378   5.577   5.981
  172SAPS   H5Y19572   1.360   5.665   5.823
  172SAPS   C3619573   1.185   5.566   5.902
  172SAPS   H6X19574   1.106   5.623   5.850
  172SAPS   H6Y19575   1.136   5.551   6.001
  172SAPS   C3719576   1.199   5.424   5.841
  172SAPS   H7X19577   1.275   5.366   5.897
  172SAPS   H7Y19578   1.246   5.429   5.741
  172SAPS   C3819579   1.078   5.336   5.830
  172SAPS   H8X19580   0.998   5.386   5.771
  172SAPS   H8Y19581   1.044   5.314   5.933
  172SAPS   C3919582   1.118   5.219   5.744
  172SAPS   H9X19583   1.052   5.133   5.764
  172SAPS   H9Y19584   1.217   5.177   5.772
  172SAPS  C31019585   1.101   5.246   5.600
  172SAPS  H10X19586   1.182   5.314   5.567
  172SAPS  H10Y19587   1.004   5.291   5.568
  172SAPS  C31119588   1.119   5.111   5.527
  172SAPS  H11X19589   1.029   5.047   5.538
  172SAPS  H11Y19590   1.202   5.047   5.564
  172SAPS  C31219591   1.135   5.123   5.381
  172SAPS  H12X19592   1.230   5.179   5.368
  172SAPS  H12Y19593   1.056   5.189   5.340
  172SAPS  C31319594   1.143   4.996   5.301
  172SAPS  H13X19595   1.073   4.918   5.337
  172SAPS  H13Y19596   1.250   4.968   5.310
  172SAPS  C31419597   1.109   5.022   5.151
  172SAPS  H14X19598   1.178   5.102   5.116
  172SAPS  H14Y19599   1.008   5.063   5.135
  172SAPS  C31519600   1.135   4.902   5.061
  172SAPS  H15X19601   1.079   4.816   5.103
  172SAPS  H15Y19602   1.244   4.877   5.056
  172SAPS  C31619603   1.094   4.910   4.910
  172SAPS  H16X19604   0.989   4.942   4.895
  172SAPS  H16Y19605   1.162   4.982   4.859
  172SAPS  C31719606   1.107   4.780   4.830
  172SAPS  H17X19607   1.073   4.803   4.727
  172SAPS  H17Y19608   1.047   4.698   4.877
  172SAPS  C31819609   1.250   4.737   4.807
  172SAPS  H18X19610   1.257   4.655   4.732
  172SAPS  H18Y19611   1.299   4.701   4.900
  172SAPS  H18Z19612   1.307   4.813   4.749
  173SAPS     N19613   3.353   5.321   1.681
  173SAPS   HN119614   3.334   5.234   1.734
  173SAPS   HN219615   3.343   5.312   1.578
  173SAPS   HN319616   3.441   5.367   1.713
  173SAPS   C1219617   3.256   5.424   1.725
  173SAPS  H12A19618   3.275   5.517   1.672
  173SAPS   C1319619   3.114   5.380   1.689
  173SAPS  O13A19620   3.094   5.279   1.611
  173SAPS  O13B19621   3.015   5.457   1.717
  173SAPS   C1119622   3.263   5.451   1.884
  173SAPS  H11A19623   3.240   5.355   1.936
  173SAPS  H11B19624   3.179   5.515   1.920
  173SAPS     P19625   3.513   5.425   1.977
  173SAPS   O1319626   3.562   5.338   1.869
  173SAPS   O1419627   3.608   5.516   2.046
  173SAPS   O1219628   3.391   5.505   1.926
  173SAPS   O1119629   3.443   5.348   2.091
  173SAPS    C119630   3.421   5.418   2.215
  173SAPS    HA19631   3.451   5.525   2.210
  173SAPS    HB19632   3.310   5.420   2.229
  173SAPS    C219633   3.492   5.357   2.331
  173SAPS    HS19634   3.595   5.393   2.312
  173SAPS   O2119635   3.484   5.216   2.325
  173SAPS   C2119636   3.588   5.159   2.372
  173SAPS   O2219637   3.699   5.207   2.391
  173SAPS   C2219638   3.547   5.011   2.411
  173SAPS   H2R19639   3.444   5.022   2.453
  173SAPS   H2S19640   3.542   4.960   2.313
  173SAPS    C319641   3.447   5.425   2.467
  173SAPS    HX19642   3.339   5.405   2.483
  173SAPS    HY19643   3.461   5.535   2.466
  173SAPS   O3119644   3.511   5.361   2.581
  173SAPS   C3119645   3.622   5.422   2.615
  173SAPS   O3219646   3.673   5.523   2.565
  173SAPS   C3219647   3.660   5.353   2.749
  173SAPS   H2X19648   3.675   5.244   2.732
  173SAPS   H2Y19649   3.580   5.363   2.826
  173SAPS   C2319650   3.657   4.944   2.495
  173SAPS   H3R19651   3.668   4.994   2.594
  173SAPS   H3S19652   3.753   4.941   2.439
  173SAPS   C2419653   3.626   4.791   2.530
  173SAPS   H4R19654   3.720   4.759   2.580
  173SAPS   H4S19655   3.620   4.740   2.431
  173SAPS   C2519656   3.491   4.769   2.598
  173SAPS   H5R19657   3.399   4.775   2.538
  173SAPS   C2619658   3.478   4.742   2.726
  173SAPS   H6R19659   3.375   4.727   2.762
  173SAPS   C2719660   3.579   4.713   2.835
  173SAPS   H7R19661   3.670   4.771   2.808
  173SAPS   H7S19662   3.590   4.603   2.835
  173SAPS   C2819663   3.538   4.759   2.972
  173SAPS   H8R19664   3.539   4.866   2.997
  173SAPS   C2919665   3.475   4.682   3.058
  173SAPS   H9R19666   3.448   4.735   3.150
  173SAPS  C21019667   3.457   4.527   3.066
  173SAPS  H10R19668   3.487   4.475   2.973
  173SAPS  H10S19669   3.349   4.512   3.085
  173SAPS  C21119670   3.524   4.479   3.190
  173SAPS  H11R19671   3.475   4.510   3.283
  173SAPS  C21219672   3.632   4.405   3.195
  173SAPS  H12R19673   3.672   4.378   3.294
  173SAPS  C21319674   3.715   4.356   3.082
  173SAPS  H13R19675   3.641   4.323   3.006
  173SAPS  H13S19676   3.784   4.278   3.120
  173SAPS  C21419677   3.809   4.464   3.020
  173SAPS  H14R19678   3.786   4.564   3.058
  173SAPS  C21519679   3.907   4.439   2.933
  173SAPS  H15R19680   3.971   4.524   2.904
  173SAPS  C21619681   3.953   4.300   2.890
  173SAPS  H16R19682   3.876   4.234   2.846
  173SAPS  H16S19683   3.980   4.237   2.977
  173SAPS  C21719684   4.065   4.310   2.792
  173SAPS  H17R19685   4.161   4.352   2.827
  173SAPS  H17S19686   4.032   4.366   2.701
  173SAPS  C21819687   4.085   4.161   2.743
  173SAPS  H18R19688   3.996   4.132   2.684
  173SAPS  H18S19689   4.084   4.101   2.836
  173SAPS  C21919690   4.204   4.137   2.657
  173SAPS  H19R19691   4.207   4.036   2.611
  173SAPS  H19S19692   4.300   4.151   2.710
  173SAPS  C22019693   4.197   4.234   2.537
  173SAPS  H20R19694   4.100   4.220   2.486
  173SAPS  H20S19695   4.277   4.211   2.463
  173SAPS  H20T19696   4.203   4.341   2.565
  173SAPS   C3319697   3.790   5.405   2.802
  173SAPS   H3X19698   3.778   5.502   2.854
  173SAPS   H3Y19699   3.857   5.418   2.714
  173SAPS   C3419700   3.865   5.315   2.904
  173SAPS   H4X19701   3.882   5.220   2.848
  173SAPS   H4Y19702   3.796   5.293   2.988
  173SAPS   C3519703   3.980   5.388   2.965
  173SAPS   H5X19704   3.967   5.498   2.974
  173SAPS   H5Y19705   4.069   5.375   2.900
  173SAPS   C3619706   4.024   5.313   3.091
  173SAPS   H6X19707   4.044   5.207   3.069
  173SAPS   H6Y19708   3.940   5.315   3.164
  173SAPS   C3719709   4.159   5.366   3.162
  173SAPS   H7X19710   4.228   5.355   3.075
  173SAPS   H7Y19711   4.184   5.286   3.235
  173SAPS   C3819712   4.136   5.505   3.220
  173SAPS   H8X19713   4.060   5.562   3.163
  173SAPS   H8Y19714   4.228   5.568   3.215
  173SAPS   C3919715   4.107   5.505   3.372
  173SAPS   H9X19716   4.024   5.432   3.380
  173SAPS   H9Y19717   4.071   5.603   3.409
  173SAPS  C31019718   4.231   5.473   3.453
  173SAPS  H10X19719   4.302   5.556   3.433
  173SAPS  H10Y19720   4.277   5.380   3.412
  173SAPS  C31119721   4.215   5.458   3.604
  173SAPS  H11X19722   4.131   5.388   3.622
  173SAPS  H11Y19723   4.191   5.554   3.654
  173SAPS  C31219724   4.343   5.406   3.672
  173SAPS  H12X19725   4.430   5.474   3.664
  173SAPS  H12Y19726   4.371   5.315   3.614
  173SAPS  C31319727   4.305   5.352   3.817
  173SAPS  H13X19728   4.214   5.288   3.807
  173SAPS  H13Y19729   4.281   5.439   3.881
  173SAPS  C31419730   4.415   5.263   3.876
  173SAPS  H14X19731   4.520   5.288   3.847
  173SAPS  H14Y19732   4.394   5.163   3.833
  173SAPS  C31519733   4.411   5.260   4.030
  173SAPS  H15X19734   4.309   5.225   4.060
  173SAPS  H15Y19735   4.440   5.363   4.060
  173SAPS  C31619736   4.511   5.161   4.082
  173SAPS  H16X19737   4.527   5.176   4.191
  173SAPS  H16Y19738   4.610   5.161   4.033
  173SAPS  C31719739   4.457   5.023   4.070
  173SAPS  H17X19740   4.541   4.951   4.056
  173SAPS  H17Y19741   4.401   5.014   3.974
  173SAPS  C31819742   4.379   4.980   4.189
  173SAPS  H18X19743   4.433   4.991   4.285
  173SAPS  H18Y19744   4.352   4.872   4.188
  173SAPS  H18Z19745   4.288   5.042   4.204
  174SAPS     N19746   0.550   3.196   1.788
  174SAPS   HN119747   0.534   3.218   1.688
  174SAPS   HN219748   0.559   3.283   1.844
  174SAPS   HN319749   0.641   3.146   1.797
  174SAPS   C1219750   0.445   3.110   1.844
  174SAPS  H12A19751   0.357   3.167   1.820
  174SAPS   C1319752   0.426   2.970   1.767
  174SAPS  O13A19753   0.487   2.965   1.655
  174SAPS  O13B19754   0.336   2.894   1.802
  174SAPS   C1119755   0.468   3.089   1.991
  174SAPS  H11A19756   0.554   3.021   2.006
  174SAPS  H11B19757   0.378   3.038   2.032
  174SAPS     P19758   0.387   3.287   2.147
  174SAPS   O1319759   0.447   3.370   2.257
  174SAPS   O1419760   0.300   3.347   2.047
  174SAPS   O1219761   0.495   3.208   2.070
  174SAPS   O1119762   0.294   3.176   2.211
  174SAPS    C119763   0.339   3.073   2.303
  174SAPS    HA19764   0.281   2.982   2.278
  174SAPS    HB19765   0.447   3.051   2.297
  174SAPS    C219766   0.319   3.096   2.460
  174SAPS    HS19767   0.339   3.002   2.516
  174SAPS   O2119768   0.187   3.138   2.493
  174SAPS   C2119769   0.100   3.034   2.480
  174SAPS   O2219770   0.127   2.924   2.435
  174SAPS   C2219771  -0.031   3.085   2.542
  174SAPS   H2R19772  -0.052   3.185   2.496
  174SAPS   H2S19773  -0.114   3.013   2.526
  174SAPS    C319774   0.414   3.204   2.514
  174SAPS    HX19775   0.382   3.304   2.477
  174SAPS    HY19776   0.508   3.199   2.454
  174SAPS   O3119777   0.456   3.185   2.649
  174SAPS   C3119778   0.516   3.290   2.703
  174SAPS   O3219779   0.552   3.388   2.643
  174SAPS   C3219780   0.546   3.259   2.844
  174SAPS   H2X19781   0.644   3.301   2.874
  174SAPS   H2Y19782   0.550   3.148   2.845
  174SAPS   C2319783  -0.025   3.115   2.692
  174SAPS   H3R19784   0.053   3.188   2.723
  174SAPS   H3S19785   0.002   3.021   2.744
  174SAPS   C2419786  -0.168   3.171   2.731
  174SAPS   H4R19787  -0.240   3.096   2.691
  174SAPS   H4S19788  -0.191   3.264   2.676
  174SAPS   C2519789  -0.183   3.202   2.879
  174SAPS   H5R19790  -0.165   3.309   2.899
  174SAPS   C2619791  -0.213   3.109   2.974
  174SAPS   H6R19792  -0.236   3.136   3.078
  174SAPS   C2719793  -0.241   2.964   2.934
  174SAPS   H7R19794  -0.166   2.902   2.987
  174SAPS   H7S19795  -0.225   2.943   2.827
  174SAPS   C2819796  -0.385   2.928   2.970
  174SAPS   H8R19797  -0.465   2.984   2.919
  174SAPS   C2919798  -0.424   2.826   3.051
  174SAPS   H9R19799  -0.529   2.806   3.076
  174SAPS  C21019800  -0.319   2.725   3.101
  174SAPS  H10R19801  -0.251   2.759   3.182
  174SAPS  H10S19802  -0.243   2.705   3.023
  174SAPS  C21119803  -0.394   2.595   3.137
  174SAPS  H11R19804  -0.391   2.513   3.064
  174SAPS  C21219805  -0.458   2.565   3.257
  174SAPS  H12R19806  -0.507   2.468   3.274
  174SAPS  C21319807  -0.450   2.658   3.376
  174SAPS  H13R19808  -0.427   2.763   3.346
  174SAPS  H13S19809  -0.369   2.624   3.444
  174SAPS  C21419810  -0.591   2.670   3.443
  174SAPS  H14R19811  -0.669   2.704   3.374
  174SAPS  C21519812  -0.616   2.656   3.574
  174SAPS  H15R19813  -0.722   2.643   3.602
  174SAPS  C21619814  -0.521   2.600   3.678
  174SAPS  H16R19815  -0.426   2.658   3.675
  174SAPS  H16S19816  -0.498   2.493   3.660
  174SAPS  C21719817  -0.583   2.609   3.816
  174SAPS  H17R19818  -0.671   2.545   3.839
  174SAPS  H17S19819  -0.617   2.714   3.817
  174SAPS  C21819820  -0.474   2.595   3.915
  174SAPS  H18R19821  -0.403   2.682   3.917
  174SAPS  H18S19822  -0.414   2.504   3.896
  174SAPS  C21919823  -0.524   2.569   4.060
  174SAPS  H19R19824  -0.575   2.471   4.067
  174SAPS  H19S19825  -0.590   2.652   4.094
  174SAPS  C22019826  -0.396   2.554   4.143
  174SAPS  H20R19827  -0.330   2.643   4.131
  174SAPS  H20S19828  -0.340   2.461   4.122
  174SAPS  H20T19829  -0.426   2.553   4.250
  174SAPS   C3319830   0.437   3.320   2.942
  174SAPS   H3X19831   0.336   3.290   2.909
  174SAPS   H3Y19832   0.449   3.430   2.932
  174SAPS   C3419833   0.451   3.263   3.077
  174SAPS   H4X19834   0.442   3.153   3.092
  174SAPS   H4Y19835   0.365   3.305   3.133
  174SAPS   C3519836   0.568   3.316   3.158
  174SAPS   H5X19837   0.561   3.426   3.156
  174SAPS   H5Y19838   0.660   3.280   3.108
  174SAPS   C3619839   0.562   3.255   3.305
  174SAPS   H6X19840   0.583   3.146   3.297
  174SAPS   H6Y19841   0.455   3.269   3.332
  174SAPS   C3719842   0.669   3.334   3.389
  174SAPS   H7X19843   0.646   3.443   3.386
  174SAPS   H7Y19844   0.768   3.306   3.348
  174SAPS   C3819845   0.668   3.303   3.544
  174SAPS   H8X19846   0.732   3.381   3.592
  174SAPS   H8Y19847   0.688   3.197   3.568
  174SAPS   C3919848   0.526   3.327   3.609
  174SAPS   H9X19849   0.455   3.248   3.576
  174SAPS   H9Y19850   0.491   3.420   3.560
  174SAPS  C31019851   0.525   3.336   3.760
  174SAPS  H10X19852   0.424   3.375   3.782
  174SAPS  H10Y19853   0.600   3.412   3.794
  174SAPS  C31119854   0.549   3.203   3.834
  174SAPS  H11X19855   0.651   3.165   3.812
  174SAPS  H11Y19856   0.480   3.126   3.795
  174SAPS  C31219857   0.542   3.219   3.986
  174SAPS  H12X19858   0.535   3.114   4.021
  174SAPS  H12Y19859   0.441   3.264   3.997
  174SAPS  C31319860   0.650   3.302   4.057
  174SAPS  H13X19861   0.662   3.395   3.998
  174SAPS  H13Y19862   0.749   3.251   4.059
  174SAPS  C31419863   0.623   3.328   4.206
  174SAPS  H14X19864   0.630   3.231   4.260
  174SAPS  H14Y19865   0.517   3.350   4.230
  174SAPS  C31519866   0.715   3.431   4.275
  174SAPS  H15X19867   0.715   3.532   4.227
  174SAPS  H15Y19868   0.822   3.405   4.264
  174SAPS  C31619869   0.681   3.462   4.414
  174SAPS  H16X19870   0.589   3.525   4.415
  174SAPS  H16Y19871   0.751   3.528   4.469
  174SAPS  C31719872   0.659   3.337   4.505
  174SAPS  H17X19873   0.737   3.262   4.482
  174SAPS  H17Y19874   0.559   3.295   4.481
  174SAPS  C31819875   0.661   3.369   4.651
  174SAPS  H18X19876   0.656   3.275   4.710
  174SAPS  H18Y19877   0.564   3.417   4.678
  174SAPS  H18Z19878   0.751   3.427   4.680
  175SAPS     N19879   3.595   1.567   2.026
  175SAPS   HN119880   3.611   1.647   2.090
  175SAPS   HN219881   3.500   1.528   2.043
  175SAPS   HN319882   3.678   1.505   2.040
  175SAPS   C1219883   3.618   1.602   1.885
  175SAPS  H12A19884   3.725   1.616   1.871
  175SAPS   C1319885   3.588   1.487   1.784
  175SAPS  O13A19886   3.552   1.375   1.819
  175SAPS  O13B19887   3.596   1.518   1.664
  175SAPS   C1119888   3.532   1.725   1.843
  175SAPS  H11A19889   3.428   1.705   1.878
  175SAPS  H11B19890   3.536   1.733   1.733
  175SAPS     P19891   3.515   1.949   1.996
  175SAPS   O1319892   3.621   2.040   2.041
  175SAPS   O1419893   3.402   2.004   1.914
  175SAPS   O1219894   3.593   1.846   1.913
  175SAPS   O1119895   3.461   1.863   2.117
  175SAPS    C119896   3.335   1.888   2.183
  175SAPS    HA19897   3.257   1.897   2.105
  175SAPS    HB19898   3.310   1.800   2.245
  175SAPS    C219899   3.335   2.012   2.263
  175SAPS    HS19900   3.355   2.103   2.202
  175SAPS   O2119901   3.427   1.993   2.373
  175SAPS   C2119902   3.515   2.083   2.393
  175SAPS   O2219903   3.539   2.181   2.329
  175SAPS   C2219904   3.581   2.058   2.532
  175SAPS   H2R19905   3.500   2.055   2.609
  175SAPS   H2S19906   3.617   1.953   2.526
  175SAPS    C319907   3.198   2.035   2.316
  175SAPS    HX19908   3.160   1.942   2.364
  175SAPS    HY19909   3.127   2.048   2.231
  175SAPS   O3119910   3.197   2.131   2.422
  175SAPS   C3119911   3.163   2.254   2.377
  175SAPS   O3219912   3.116   2.270   2.269
  175SAPS   C3219913   3.178   2.353   2.486
  175SAPS   H2X19914   3.097   2.345   2.561
  175SAPS   H2Y19915   3.173   2.451   2.434
  175SAPS   C2319916   3.691   2.161   2.571
  175SAPS   H3R19917   3.640   2.259   2.573
  175SAPS   H3S19918   3.771   2.171   2.494
  175SAPS   C2419919   3.764   2.118   2.699
  175SAPS   H4R19920   3.839   2.039   2.675
  175SAPS   H4S19921   3.684   2.072   2.760
  175SAPS   C2519922   3.824   2.231   2.760
  175SAPS   H5R19923   3.843   2.312   2.688
  175SAPS   C2619924   3.840   2.264   2.888
  175SAPS   H6R19925   3.894   2.356   2.913
  175SAPS   C2719926   3.803   2.175   3.007
  175SAPS   H7R19927   3.702   2.134   2.985
  175SAPS   H7S19928   3.797   2.235   3.100
  175SAPS   C2819929   3.899   2.056   3.032
  175SAPS   H8R19930   3.976   2.042   2.955
  175SAPS   C2919931   3.892   1.982   3.144
  175SAPS   H9R19932   3.965   1.899   3.145
  175SAPS  C21019933   3.795   1.987   3.254
  175SAPS  H10R19934   3.747   1.888   3.270
  175SAPS  H10S19935   3.714   2.061   3.236
  175SAPS  C21119936   3.872   2.038   3.377
  175SAPS  H11R19937   3.920   2.135   3.358
  175SAPS  C21219938   3.885   1.981   3.500
  175SAPS  H12R19939   3.956   2.026   3.571
  175SAPS  C21319940   3.820   1.848   3.541
  175SAPS  H13R19941   3.770   1.780   3.469
  175SAPS  H13S19942   3.741   1.873   3.615
  175SAPS  C21419943   3.937   1.769   3.594
  175SAPS  H14R19944   3.991   1.725   3.509
  175SAPS  C21519945   3.954   1.730   3.721
  175SAPS  H15R19946   4.037   1.660   3.739
  175SAPS  C21619947   3.876   1.774   3.839
  175SAPS  H16R19948   3.781   1.715   3.845
  175SAPS  H16S19949   3.842   1.877   3.815
  175SAPS  C21719950   3.958   1.783   3.969
  175SAPS  H17R19951   3.901   1.857   4.028
  175SAPS  H17S19952   4.062   1.817   3.947
  175SAPS  C21819953   3.961   1.659   4.045
  175SAPS  H18R19954   3.986   1.576   3.975
  175SAPS  H18S19955   3.862   1.628   4.086
  175SAPS  C21919956   4.061   1.655   4.167
  175SAPS  H19R19957   4.162   1.691   4.136
  175SAPS  H19S19958   4.080   1.549   4.194
  175SAPS  C22019959   3.995   1.727   4.282
  175SAPS  H20R19960   4.054   1.712   4.375
  175SAPS  H20S19961   3.896   1.678   4.296
  175SAPS  H20T19962   3.991   1.835   4.259
  175SAPS   C3319963   3.316   2.340   2.554
  175SAPS   H3X19964   3.395   2.348   2.476
  175SAPS   H3Y19965   3.328   2.238   2.596
  175SAPS   C3419966   3.343   2.449   2.654
  175SAPS   H4X19967   3.275   2.437   2.741
  175SAPS   H4Y19968   3.311   2.550   2.620
  175SAPS   C3519969   3.490   2.460   2.684
  175SAPS   H5X19970   3.541   2.480   2.587
  175SAPS   H5Y19971   3.530   2.366   2.727
  175SAPS   C3619972   3.519   2.578   2.777
  175SAPS   H6X19973   3.455   2.667   2.757
  175SAPS   H6Y19974   3.626   2.607   2.777
  175SAPS   C3719975   3.495   2.551   2.928
  175SAPS   H7X19976   3.578   2.482   2.954
  175SAPS   H7Y19977   3.397   2.500   2.933
  175SAPS   C3819978   3.474   2.679   3.008
  175SAPS   H8X19979   3.368   2.713   3.001
  175SAPS   H8Y19980   3.527   2.762   2.957
  175SAPS   C3919981   3.503   2.650   3.155
  175SAPS   H9X19982   3.608   2.615   3.160
  175SAPS   H9Y19983   3.444   2.563   3.190
  175SAPS  C31019984   3.481   2.764   3.249
  175SAPS  H10X19985   3.373   2.788   3.255
  175SAPS  H10Y19986   3.535   2.852   3.207
  175SAPS  C31119987   3.530   2.738   3.391
  175SAPS  H11X19988   3.529   2.831   3.452
  175SAPS  H11Y19989   3.633   2.696   3.392
  175SAPS  C31219990   3.436   2.631   3.449
  175SAPS  H12X19991   3.381   2.555   3.389
  175SAPS  H12Y19992   3.354   2.687   3.498
  175SAPS  C31319993   3.504   2.561   3.570
  175SAPS  H13X19994   3.597   2.501   3.557
  175SAPS  H13Y19995   3.434   2.486   3.612
  175SAPS  C31419996   3.551   2.646   3.691
  175SAPS  H14X19997   3.551   2.575   3.777
  175SAPS  H14Y19998   3.490   2.736   3.716
  175SAPS  C31519999   3.702   2.684   3.689
  175SAPS  H15X20000   3.722   2.767   3.617
  175SAPS  H15Y20001   3.749   2.592   3.648
  175SAPS  C31620002   3.767   2.723   3.827
  175SAPS  H16X20003   3.766   2.636   3.895
  175SAPS  H16Y20004   3.705   2.804   3.872
  175SAPS  C31720005   3.910   2.772   3.793
  175SAPS  H17X20006   3.902   2.869   3.740
  175SAPS  H17Y20007   3.959   2.701   3.724
  175SAPS  C31820008   3.997   2.795   3.915
  175SAPS  H18X20009   4.012   2.700   3.972
  175SAPS  H18Y20010   3.936   2.873   3.965
  175SAPS  H18Z20011   4.098   2.840   3.904
  176SAPS     N20012   2.847   1.054   1.645
  176SAPS   HN120013   2.947   1.082   1.634
  176SAPS   HN220014   2.795   1.120   1.583
  176SAPS   HN320015   2.825   1.067   1.746
  176SAPS   C1220016   2.840   0.923   1.591
  176SAPS  H12A20017   2.744   0.878   1.611
  176SAPS   C1320018   2.849   0.910   1.434
  176SAPS  O13A20019   2.836   1.019   1.372
  176SAPS  O13B20020   2.822   0.797   1.388
  176SAPS   C1120021   2.961   0.845   1.653
  176SAPS  H11A20022   3.060   0.856   1.603
  176SAPS  H11B20023   2.938   0.739   1.631
  176SAPS     P20024   3.074   0.810   1.888
  176SAPS   O1320025   3.045   0.681   1.948
  176SAPS   O1420026   3.208   0.830   1.822
  176SAPS   O1220027   2.953   0.859   1.796
  176SAPS   O1120028   3.068   0.923   2.000
  176SAPS    C120029   2.952   0.946   2.078
  176SAPS    HA20030   2.908   1.046   2.058
  176SAPS    HB20031   2.867   0.881   2.047
  176SAPS    C220032   2.981   0.928   2.235
  176SAPS    HS20033   3.061   1.004   2.248
  176SAPS   O2120034   3.023   0.791   2.253
  176SAPS   C2120035   3.091   0.768   2.363
  176SAPS   O2220036   3.112   0.850   2.449
  176SAPS   C2220037   3.132   0.619   2.361
  176SAPS   H2R20038   3.045   0.551   2.354
  176SAPS   H2S20039   3.194   0.617   2.269
  176SAPS    C320040   2.860   0.958   2.328
  176SAPS    HX20041   2.790   0.873   2.318
  176SAPS    HY20042   2.806   1.045   2.283
  176SAPS   O3120043   2.883   0.992   2.466
  176SAPS   C3120044   2.825   0.909   2.551
  176SAPS   O3220045   2.772   0.803   2.526
  176SAPS   C3220046   2.832   0.987   2.686
  176SAPS   H2X20047   2.820   1.093   2.655
  176SAPS   H2Y20048   2.929   0.972   2.739
  176SAPS   C2320049   3.214   0.571   2.487
  176SAPS   H3R20050   3.284   0.656   2.501
  176SAPS   H3S20051   3.274   0.483   2.454
  176SAPS   C2420052   3.111   0.550   2.595
  176SAPS   H4R20053   3.060   0.455   2.568
  176SAPS   H4S20054   3.035   0.632   2.600
  176SAPS   C2520055   3.187   0.538   2.722
  176SAPS   H5R20056   3.260   0.455   2.732
  176SAPS   C2620057   3.178   0.627   2.827
  176SAPS   H6R20058   3.241   0.617   2.917
  176SAPS   C2720059   3.104   0.755   2.849
  176SAPS   H7R20060   3.082   0.799   2.750
  176SAPS   H7S20061   3.161   0.834   2.903
  176SAPS   C2820062   2.966   0.710   2.909
  176SAPS   H8R20063   2.894   0.678   2.832
  176SAPS   C2920064   2.925   0.746   3.035
  176SAPS   H9R20065   2.816   0.734   3.047
  176SAPS  C21020066   2.998   0.814   3.148
  176SAPS  H10R20067   3.042   0.908   3.107
  176SAPS  H10S20068   3.084   0.746   3.164
  176SAPS  C21120069   2.919   0.845   3.270
  176SAPS  H11R20070   2.828   0.899   3.241
  176SAPS  C21220071   2.948   0.799   3.398
  176SAPS  H12R20072   2.886   0.832   3.482
  176SAPS  C21320073   3.071   0.729   3.437
  176SAPS  H13R20074   3.122   0.674   3.354
  176SAPS  H13S20075   3.040   0.647   3.505
  176SAPS  C21420076   3.152   0.830   3.510
  176SAPS  H14R20077   3.208   0.900   3.447
  176SAPS  C21520078   3.186   0.824   3.639
  176SAPS  H15R20079   3.240   0.911   3.680
  176SAPS  C21620080   3.150   0.712   3.741
  176SAPS  H16R20081   3.243   0.680   3.793
  176SAPS  H16S20082   3.111   0.619   3.696
  176SAPS  C21720083   3.038   0.768   3.836
  176SAPS  H17R20084   2.940   0.757   3.785
  176SAPS  H17S20085   3.060   0.874   3.862
  176SAPS  C21820086   3.032   0.682   3.964
  176SAPS  H18R20087   2.967   0.734   4.037
  176SAPS  H18S20088   3.134   0.692   4.008
  176SAPS  C21920089   2.979   0.542   3.950
  176SAPS  H19R20090   3.053   0.480   3.896
  176SAPS  H19S20091   2.881   0.536   3.897
  176SAPS  C22020092   2.955   0.471   4.081
  176SAPS  H20R20093   3.044   0.452   4.144
  176SAPS  H20S20094   2.907   0.374   4.057
  176SAPS  H20T20095   2.878   0.533   4.133
  176SAPS   C3320096   2.716   0.951   2.779
  176SAPS   H3X20097   2.727   1.002   2.877
  176SAPS   H3Y20098   2.708   0.842   2.798
  176SAPS   C3420099   2.577   0.987   2.719
  176SAPS   H4X20100   2.544   0.951   2.619
  176SAPS   H4Y20101   2.578   1.098   2.712
  176SAPS   C3520102   2.474   0.936   2.818
  176SAPS   H5X20103   2.480   0.826   2.827
  176SAPS   H5Y20104   2.376   0.966   2.774
  176SAPS   C3620105   2.488   1.000   2.954
  176SAPS   H6X20106   2.512   1.107   2.936
  176SAPS   H6Y20107   2.574   0.955   3.006
  176SAPS   C3720108   2.371   0.984   3.047
  176SAPS   H7X20109   2.283   0.978   2.979
  176SAPS   H7Y20110   2.352   1.078   3.103
  176SAPS   C3820111   2.401   0.871   3.142
  176SAPS   H8X20112   2.499   0.893   3.191
  176SAPS   H8Y20113   2.406   0.771   3.093
  176SAPS   C3920114   2.299   0.859   3.253
  176SAPS   H9X20115   2.320   0.776   3.325
  176SAPS   H9Y20116   2.203   0.840   3.200
  176SAPS  C31020117   2.284   0.988   3.334
  176SAPS  H10X20118   2.236   1.062   3.267
  176SAPS  H10Y20119   2.382   1.016   3.377
  176SAPS  C31120120   2.175   0.981   3.448
  176SAPS  H11X20121   2.200   0.908   3.528
  176SAPS  H11Y20122   2.078   0.956   3.399
  176SAPS  C31220123   2.156   1.120   3.518
  176SAPS  H12X20124   2.064   1.112   3.578
  176SAPS  H12Y20125   2.143   1.201   3.443
  176SAPS  C31320126   2.271   1.160   3.617
  176SAPS  H13X20127   2.348   1.205   3.551
  176SAPS  H13Y20128   2.309   1.066   3.661
  176SAPS  C31420129   2.222   1.252   3.724
  176SAPS  H14X20130   2.123   1.222   3.763
  176SAPS  H14Y20131   2.209   1.357   3.689
  176SAPS  C31520132   2.315   1.252   3.842
  176SAPS  H15X20133   2.267   1.333   3.902
  176SAPS  H15Y20134   2.419   1.272   3.810
  176SAPS  C31620135   2.309   1.124   3.930
  176SAPS  H16X20136   2.356   1.036   3.880
  176SAPS  H16Y20137   2.200   1.103   3.937
  176SAPS  C31720138   2.347   1.135   4.069
  176SAPS  H17X20139   2.284   1.208   4.123
  176SAPS  H17Y20140   2.451   1.174   4.065
  176SAPS  C31820141   2.353   1.004   4.152
  176SAPS  H18X20142   2.260   0.943   4.145
  176SAPS  H18Y20143   2.363   1.026   4.260
  176SAPS  H18Z20144   2.443   0.943   4.127
  177SAPS     N20145   4.658   2.974   1.897
  177SAPS   HN120146   4.622   2.958   1.801
  177SAPS   HN220147   4.759   2.999   1.892
  177SAPS   HN320148   4.644   2.887   1.953
  177SAPS   C1220149   4.594   3.091   1.963
  177SAPS  H12A20150   4.633   3.173   1.904
  177SAPS   C1320151   4.442   3.102   1.945
  177SAPS  O13A20152   4.380   3.013   1.886
  177SAPS  O13B20153   4.382   3.202   1.994
  177SAPS   C1120154   4.645   3.103   2.106
  177SAPS  H11A20155   4.612   3.006   2.148
  177SAPS  H11B20156   4.580   3.179   2.155
  177SAPS     P20157   4.858   3.166   2.243
  177SAPS   O1320158   4.944   3.053   2.278
  177SAPS   O1420159   4.922   3.302   2.245
  177SAPS   O1220160   4.780   3.127   2.111
  177SAPS   O1120161   4.733   3.160   2.342
  177SAPS    C120162   4.688   3.279   2.400
  177SAPS    HA20163   4.697   3.370   2.336
  177SAPS    HB20164   4.577   3.272   2.409
  177SAPS    C220165   4.744   3.302   2.539
  177SAPS    HS20166   4.852   3.314   2.516
  177SAPS   O2120167   4.704   3.191   2.624
  177SAPS   C2120168   4.803   3.136   2.691
  177SAPS   O2220169   4.922   3.176   2.682
  177SAPS   C2220170   4.741   3.030   2.785
  177SAPS   H2R20171   4.676   2.976   2.713
  177SAPS   H2S20172   4.827   2.972   2.824
  177SAPS    C320173   4.702   3.434   2.609
  177SAPS    HX20174   4.591   3.437   2.598
  177SAPS    HY20175   4.747   3.515   2.548
  177SAPS   O3120176   4.745   3.450   2.744
  177SAPS   C3120177   4.876   3.482   2.758
  177SAPS   O3220178   4.951   3.486   2.666
  177SAPS   C3220179   4.911   3.512   2.901
  177SAPS   H2X20180   4.820   3.486   2.960
  177SAPS   H2Y20181   4.931   3.620   2.915
  177SAPS   C2320182   4.662   3.101   2.897
  177SAPS   H3R20183   4.572   3.143   2.848
  177SAPS   H3S20184   4.721   3.187   2.935
  177SAPS   C2420185   4.626   2.999   3.014
  177SAPS   H4R20186   4.618   3.057   3.108
  177SAPS   H4S20187   4.713   2.930   3.020
  177SAPS   C2520188   4.511   2.909   2.986
  177SAPS   H5R20189   4.475   2.912   2.882
  177SAPS   C2620190   4.436   2.852   3.083
  177SAPS   H6R20191   4.369   2.770   3.053
  177SAPS   C2720192   4.439   2.862   3.236
  177SAPS   H7R20193   4.339   2.886   3.278
  177SAPS   H7S20194   4.519   2.934   3.263
  177SAPS   C2820195   4.469   2.729   3.297
  177SAPS   H8R20196   4.504   2.654   3.224
  177SAPS   C2920197   4.485   2.720   3.431
  177SAPS   H9R20198   4.519   2.625   3.477
  177SAPS  C21020199   4.441   2.823   3.528
  177SAPS  H10R20200   4.347   2.790   3.577
  177SAPS  H10S20201   4.407   2.913   3.474
  177SAPS  C21120202   4.559   2.865   3.615
  177SAPS  H11R20203   4.631   2.939   3.577
  177SAPS  C21220204   4.590   2.816   3.733
  177SAPS  H12R20205   4.675   2.856   3.790
  177SAPS  C21320206   4.510   2.713   3.804
  177SAPS  H13R20207   4.576   2.624   3.801
  177SAPS  H13S20208   4.416   2.684   3.752
  177SAPS  C21420209   4.493   2.745   3.952
  177SAPS  H14R20210   4.543   2.835   3.991
  177SAPS  C21520211   4.449   2.659   4.050
  177SAPS  H15R20212   4.450   2.696   4.153
  177SAPS  C21620213   4.393   2.526   4.031
  177SAPS  H16R20214   4.463   2.455   4.081
  177SAPS  H16S20215   4.364   2.504   3.926
  177SAPS  C21720216   4.260   2.533   4.108
  177SAPS  H17R20217   4.200   2.602   4.044
  177SAPS  H17S20218   4.276   2.566   4.213
  177SAPS  C21820219   4.184   2.402   4.102
  177SAPS  H18R20220   4.171   2.374   3.995
  177SAPS  H18S20221   4.079   2.415   4.138
  177SAPS  C21920222   4.254   2.281   4.168
  177SAPS  H19R20223   4.290   2.305   4.270
  177SAPS  H19S20224   4.345   2.248   4.113
  177SAPS  C22020225   4.159   2.156   4.187
  177SAPS  H20R20226   4.073   2.166   4.257
  177SAPS  H20S20227   4.219   2.077   4.238
  177SAPS  H20T20228   4.114   2.120   4.092
  177SAPS   C3320229   5.021   3.411   2.939
  177SAPS   H3X20230   5.118   3.433   2.889
  177SAPS   H3Y20231   4.993   3.309   2.906
  177SAPS   C3420232   5.059   3.408   3.090
  177SAPS   H4X20233   5.114   3.504   3.104
  177SAPS   H4Y20234   5.129   3.324   3.113
  177SAPS   C3520235   4.944   3.409   3.189
  177SAPS   H5X20236   4.858   3.357   3.141
  177SAPS   H5Y20237   4.909   3.513   3.209
  177SAPS   C3620238   4.976   3.338   3.322
  177SAPS   H6X20239   5.030   3.249   3.285
  177SAPS   H6Y20240   4.885   3.301   3.374
  177SAPS   C3720241   5.059   3.417   3.426
  177SAPS   H7X20242   4.992   3.499   3.460
  177SAPS   H7Y20243   5.155   3.447   3.380
  177SAPS   C3820244   5.091   3.326   3.548
  177SAPS   H8X20245   5.158   3.240   3.527
  177SAPS   H8Y20246   4.990   3.292   3.578
  177SAPS   C3920247   5.166   3.410   3.666
  177SAPS   H9X20248   5.124   3.513   3.665
  177SAPS   H9Y20249   5.273   3.422   3.638
  177SAPS  C31020250   5.134   3.343   3.802
  177SAPS  H10X20251   5.197   3.252   3.789
  177SAPS  H10Y20252   5.028   3.313   3.811
  177SAPS  C31120253   5.175   3.443   3.914
  177SAPS  H11X20254   5.086   3.506   3.935
  177SAPS  H11Y20255   5.253   3.498   3.859
  177SAPS  C31220256   5.230   3.371   4.033
  177SAPS  H12X20257   5.255   3.458   4.098
  177SAPS  H12Y20258   5.324   3.317   4.007
  177SAPS  C31320259   5.124   3.275   4.102
  177SAPS  H13X20260   5.078   3.213   4.022
  177SAPS  H13Y20261   5.045   3.337   4.150
  177SAPS  C31420262   5.198   3.181   4.199
  177SAPS  H14X20263   5.128   3.161   4.283
  177SAPS  H14Y20264   5.289   3.228   4.242
  177SAPS  C31520265   5.237   3.052   4.138
  177SAPS  H15X20266   5.244   3.068   4.028
  177SAPS  H15Y20267   5.152   2.982   4.148
  177SAPS  C31620268   5.356   2.972   4.198
  177SAPS  H16X20269   5.345   2.946   4.305
  177SAPS  H16Y20270   5.442   3.042   4.191
  177SAPS  C31720271   5.379   2.846   4.119
  177SAPS  H17X20272   5.279   2.810   4.088
  177SAPS  H17Y20273   5.431   2.775   4.188
  177SAPS  C31820274   5.457   2.856   3.986
  177SAPS  H18X20275   5.399   2.906   3.906
  177SAPS  H18Y20276   5.482   2.759   3.937
  177SAPS  H18Z20277   5.554   2.906   4.004
  178SAPS     N20278   2.861   5.511   1.505
  178SAPS   HN120279   2.927   5.521   1.584
  178SAPS   HN220280   2.828   5.412   1.507
  178SAPS   HN320281   2.906   5.528   1.412
  178SAPS   C1220282   2.738   5.601   1.518
  178SAPS  H12A20283   2.731   5.681   1.446
  178SAPS   C1320284   2.606   5.520   1.510
  178SAPS  O13A20285   2.608   5.402   1.461
  178SAPS  O13B20286   2.500   5.573   1.558
  178SAPS   C1120287   2.756   5.665   1.667
  178SAPS  H11A20288   2.766   5.592   1.751
  178SAPS  H11B20289   2.664   5.726   1.679
  178SAPS     P20290   2.865   5.893   1.747
  178SAPS   O1320291   3.007   5.943   1.764
  178SAPS   O1420292   2.761   5.979   1.677
  178SAPS   O1220293   2.872   5.752   1.674
  178SAPS   O1120294   2.808   5.850   1.885
  178SAPS    C120295   2.876   5.747   1.956
  178SAPS    HA20296   2.817   5.652   1.959
  178SAPS    HB20297   2.975   5.714   1.920
  178SAPS    C220298   2.906   5.779   2.108
  178SAPS    HS20299   2.810   5.790   2.163
  178SAPS   O2120300   2.985   5.896   2.123
  178SAPS   C2120301   2.916   6.009   2.134
  178SAPS   O2220302   2.796   6.020   2.121
  178SAPS   C2220303   3.011   6.129   2.148
  178SAPS   H2R20304   3.114   6.097   2.119
  178SAPS   H2S20305   2.981   6.207   2.075
  178SAPS    C320306   2.985   5.663   2.176
  178SAPS    HX20307   3.086   5.650   2.131
  178SAPS    HY20308   2.928   5.571   2.149
  178SAPS   O3120309   2.998   5.683   2.318
  178SAPS   C3120310   3.116   5.699   2.368
  178SAPS   O3220311   3.223   5.687   2.315
  178SAPS   C3220312   3.096   5.734   2.519
  178SAPS   H2X20313   3.012   5.676   2.563
  178SAPS   H2Y20314   3.055   5.837   2.527
  178SAPS   C2320315   3.005   6.186   2.289
  178SAPS   H3R20316   3.030   6.107   2.364
  178SAPS   H3S20317   2.897   6.210   2.300
  178SAPS   C2420318   3.091   6.310   2.306
  178SAPS   H4R20319   3.056   6.380   2.385
  178SAPS   H4S20320   3.088   6.381   2.220
  178SAPS   C2520321   3.232   6.271   2.330
  178SAPS   H5R20322   3.290   6.230   2.245
  178SAPS   C2620323   3.293   6.251   2.448
  178SAPS   H6R20324   3.395   6.210   2.444
  178SAPS   C2720325   3.238   6.300   2.572
  178SAPS   H7R20326   3.127   6.298   2.571
  178SAPS   H7S20327   3.273   6.406   2.574
  178SAPS   C2820328   3.266   6.201   2.679
  178SAPS   H8R20329   3.248   6.096   2.649
  178SAPS   C2920330   3.293   6.226   2.810
  178SAPS   H9R20331   3.321   6.143   2.875
  178SAPS  C21020332   3.291   6.360   2.884
  178SAPS  H10R20333   3.355   6.431   2.827
  178SAPS  H10S20334   3.349   6.353   2.978
  178SAPS  C21120335   3.150   6.418   2.906
  178SAPS  H11R20336   3.065   6.392   2.841
  178SAPS  C21220337   3.116   6.506   3.008
  178SAPS  H12R20338   3.012   6.537   3.021
  178SAPS  C21320339   3.209   6.571   3.110
  178SAPS  H13R20340   3.222   6.681   3.098
  178SAPS  H13S20341   3.307   6.519   3.112
  178SAPS  C21420342   3.150   6.549   3.250
  178SAPS  H14R20343   3.084   6.628   3.290
  178SAPS  C21520344   3.164   6.438   3.337
  178SAPS  H15R20345   3.088   6.437   3.416
  178SAPS  C21620346   3.243   6.312   3.306
  178SAPS  H16R20347   3.279   6.298   3.202
  178SAPS  H16S20348   3.175   6.226   3.320
  178SAPS  C21720349   3.357   6.280   3.404
  178SAPS  H17R20350   3.437   6.356   3.413
  178SAPS  H17S20351   3.399   6.182   3.371
  178SAPS  C21820352   3.316   6.267   3.548
  178SAPS  H18R20353   3.221   6.209   3.550
  178SAPS  H18S20354   3.292   6.359   3.607
  178SAPS  C21920355   3.421   6.192   3.634
  178SAPS  H19R20356   3.511   6.258   3.635
  178SAPS  H19S20357   3.448   6.093   3.592
  178SAPS  C22020358   3.369   6.171   3.784
  178SAPS  H20R20359   3.304   6.082   3.786
  178SAPS  H20S20360   3.316   6.265   3.811
  178SAPS  H20T20361   3.451   6.145   3.854
  178SAPS   C3320362   3.226   5.711   2.612
  178SAPS   H3X20363   3.315   5.762   2.570
  178SAPS   H3Y20364   3.241   5.601   2.605
  178SAPS   C3420365   3.198   5.735   2.761
  178SAPS   H4X20366   3.094   5.701   2.784
  178SAPS   H4Y20367   3.191   5.844   2.779
  178SAPS   C3520368   3.293   5.664   2.857
  178SAPS   H5X20369   3.291   5.555   2.833
  178SAPS   H5Y20370   3.235   5.675   2.951
  178SAPS   C3620371   3.429   5.734   2.859
  178SAPS   H6X20372   3.425   5.840   2.891
  178SAPS   H6Y20373   3.447   5.748   2.750
  178SAPS   C3720374   3.546   5.660   2.915
  178SAPS   H7X20375   3.631   5.724   2.884
  178SAPS   H7Y20376   3.564   5.561   2.868
  178SAPS   C3820377   3.532   5.637   3.071
  178SAPS   H8X20378   3.448   5.567   3.089
  178SAPS   H8Y20379   3.508   5.737   3.115
  178SAPS   C3920380   3.651   5.562   3.135
  178SAPS   H9X20381   3.728   5.639   3.154
  178SAPS   H9Y20382   3.699   5.484   3.072
  178SAPS  C31020383   3.615   5.508   3.269
  178SAPS  H10X20384   3.574   5.405   3.256
  178SAPS  H10Y20385   3.543   5.565   3.332
  178SAPS  C31120386   3.732   5.488   3.362
  178SAPS  H11X20387   3.792   5.581   3.360
  178SAPS  H11Y20388   3.804   5.412   3.323
  178SAPS  C31220389   3.704   5.459   3.506
  178SAPS  H12X20390   3.617   5.391   3.518
  178SAPS  H12Y20391   3.681   5.553   3.562
  178SAPS  C31320392   3.820   5.396   3.578
  178SAPS  H13X20393   3.908   5.463   3.573
  178SAPS  H13Y20394   3.841   5.299   3.527
  178SAPS  C31420395   3.790   5.385   3.734
  178SAPS  H14X20396   3.695   5.327   3.742
  178SAPS  H14Y20397   3.782   5.489   3.773
  178SAPS  C31520398   3.908   5.311   3.807
  178SAPS  H15X20399   4.008   5.357   3.797
  178SAPS  H15Y20400   3.924   5.206   3.774
  178SAPS  C31620401   3.872   5.304   3.961
  178SAPS  H16X20402   3.772   5.256   3.969
  178SAPS  H16Y20403   3.865   5.405   4.008
  178SAPS  C31720404   3.975   5.226   4.037
  178SAPS  H17X20405   4.071   5.256   3.989
  178SAPS  H17Y20406   3.952   5.119   4.014
  178SAPS  C31820407   3.972   5.234   4.191
  178SAPS  H18X20408   4.002   5.338   4.217
  178SAPS  H18Y20409   4.026   5.152   4.243
  178SAPS  H18Z20410   3.873   5.215   4.239
  179SAPS     N20411   5.542   1.577   1.974
  179SAPS   HN120412   5.484   1.631   2.042
  179SAPS   HN220413   5.544   1.631   1.886
  179SAPS   HN320414   5.491   1.488   1.956
  179SAPS   C1220415   5.671   1.551   2.043
  179SAPS  H12A20416   5.714   1.465   1.994
  179SAPS   C1320417   5.778   1.660   2.023
  179SAPS  O13A20418   5.744   1.769   1.979
  179SAPS  O13B20419   5.874   1.647   2.104
  179SAPS   C1120420   5.642   1.536   2.199
  179SAPS  H11A20421   5.643   1.640   2.240
  179SAPS  H11B20422   5.727   1.481   2.245
  179SAPS     P20423   5.498   1.347   2.312
  179SAPS   O1320424   5.355   1.317   2.336
  179SAPS   O1420425   5.589   1.238   2.263
  179SAPS   O1220426   5.517   1.468   2.210
  179SAPS   O1120427   5.567   1.411   2.441
  179SAPS    C120428   5.501   1.417   2.564
  179SAPS    HA20429   5.454   1.517   2.561
  179SAPS    HB20430   5.426   1.337   2.580
  179SAPS    C220431   5.604   1.415   2.683
  179SAPS    HS20432   5.675   1.499   2.668
  179SAPS   O2120433   5.667   1.286   2.680
  179SAPS   C2120434   5.798   1.289   2.730
  179SAPS   O2220435   5.861   1.387   2.765
  179SAPS   C2220436   5.861   1.152   2.739
  179SAPS   H2R20437   5.858   1.109   2.637
  179SAPS   H2S20438   5.970   1.168   2.755
  179SAPS    C320439   5.528   1.434   2.808
  179SAPS    HX20440   5.482   1.336   2.834
  179SAPS    HY20441   5.462   1.523   2.798
  179SAPS   O3120442   5.624   1.461   2.914
  179SAPS   C3120443   5.557   1.486   3.031
  179SAPS   O3220444   5.442   1.501   3.047
  179SAPS   C3220445   5.668   1.516   3.130
  179SAPS   H2X20446   5.706   1.616   3.099
  179SAPS   H2Y20447   5.748   1.441   3.114
  179SAPS   C2320448   5.811   1.056   2.846
  179SAPS   H3R20449   5.884   0.972   2.837
  179SAPS   H3S20450   5.712   1.017   2.813
  179SAPS   C2420451   5.812   1.097   2.990
  179SAPS   H4R20452   5.756   1.193   2.997
  179SAPS   H4S20453   5.917   1.119   3.018
  179SAPS   C2520454   5.764   1.000   3.089
  179SAPS   H5R20455   5.814   0.905   3.067
  179SAPS   C2620456   5.655   1.009   3.173
  179SAPS   H6R20457   5.624   0.934   3.247
  179SAPS   C2720458   5.560   1.129   3.169
  179SAPS   H7R20459   5.552   1.162   3.063
  179SAPS   H7S20460   5.597   1.218   3.223
  179SAPS   C2820461   5.417   1.099   3.220
  179SAPS   H8R20462   5.338   1.074   3.147
  179SAPS   C2920463   5.383   1.083   3.346
  179SAPS   H9R20464   5.277   1.070   3.372
  179SAPS  C21020465   5.466   1.088   3.474
  179SAPS  H10R20466   5.569   1.107   3.439
  179SAPS  H10S20467   5.471   0.988   3.523
  179SAPS  C21120468   5.412   1.187   3.574
  179SAPS  H11R20469   5.416   1.292   3.540
  179SAPS  C21220470   5.362   1.159   3.692
  179SAPS  H12R20471   5.315   1.243   3.745
  179SAPS  C21320472   5.369   1.028   3.771
  179SAPS  H13R20473   5.391   1.057   3.875
  179SAPS  H13S20474   5.449   0.958   3.740
  179SAPS  C21420475   5.235   0.951   3.756
  179SAPS  H14R20476   5.169   0.967   3.669
  179SAPS  C21520477   5.184   0.874   3.855
  179SAPS  H15R20478   5.091   0.818   3.839
  179SAPS  C21620479   5.236   0.856   3.998
  179SAPS  H16R20480   5.334   0.908   4.006
  179SAPS  H16S20481   5.263   0.756   4.037
  179SAPS  C21720482   5.130   0.927   4.084
  179SAPS  H17R20483   5.097   1.024   4.040
  179SAPS  H17S20484   5.182   0.968   4.174
  179SAPS  C21820485   5.006   0.840   4.134
  179SAPS  H18R20486   5.035   0.775   4.219
  179SAPS  H18S20487   4.970   0.775   4.052
  179SAPS  C21920488   4.896   0.934   4.177
  179SAPS  H19R20489   4.848   0.991   4.095
  179SAPS  H19S20490   4.942   1.013   4.241
  179SAPS  C22020491   4.783   0.862   4.252
  179SAPS  H20R20492   4.702   0.931   4.285
  179SAPS  H20S20493   4.829   0.807   4.337
  179SAPS  H20T20494   4.728   0.786   4.193
  179SAPS   C3320495   5.620   1.519   3.283
  179SAPS   H3X20496   5.571   1.424   3.313
  179SAPS   H3Y20497   5.542   1.599   3.280
  179SAPS   C3420498   5.737   1.530   3.376
  179SAPS   H4X20499   5.705   1.572   3.474
  179SAPS   H4Y20500   5.812   1.604   3.340
  179SAPS   C3520501   5.811   1.394   3.399
  179SAPS   H5X20502   5.859   1.384   3.300
  179SAPS   H5Y20503   5.733   1.316   3.415
  179SAPS   C3620504   5.900   1.389   3.523
  179SAPS   H6X20505   5.960   1.482   3.530
  179SAPS   H6Y20506   5.968   1.304   3.505
  179SAPS   C3720507   5.810   1.368   3.646
  179SAPS   H7X20508   5.746   1.278   3.634
  179SAPS   H7Y20509   5.743   1.455   3.661
  179SAPS   C3820510   5.890   1.364   3.774
  179SAPS   H8X20511   5.913   1.471   3.794
  179SAPS   H8Y20512   5.985   1.306   3.766
  179SAPS   C3920513   5.818   1.295   3.896
  179SAPS   H9X20514   5.881   1.282   3.987
  179SAPS   H9Y20515   5.795   1.195   3.853
  179SAPS  C31020516   5.684   1.361   3.945
  179SAPS  H10X20517   5.615   1.384   3.861
  179SAPS  H10Y20518   5.703   1.463   3.985
  179SAPS  C31120519   5.625   1.279   4.048
  179SAPS  H11X20520   5.697   1.245   4.126
  179SAPS  H11Y20521   5.597   1.185   3.996
  179SAPS  C31220522   5.496   1.332   4.108
  179SAPS  H12X20523   5.462   1.243   4.164
  179SAPS  H12Y20524   5.423   1.357   4.028
  179SAPS  C31320525   5.509   1.451   4.204
  179SAPS  H13X20526   5.561   1.528   4.143
  179SAPS  H13Y20527   5.571   1.411   4.287
  179SAPS  C31420528   5.376   1.486   4.265
  179SAPS  H14X20529   5.303   1.403   4.273
  179SAPS  H14Y20530   5.334   1.559   4.193
  179SAPS  C31520531   5.379   1.546   4.413
  179SAPS  H15X20532   5.437   1.641   4.416
  179SAPS  H15Y20533   5.421   1.474   4.486
  179SAPS  C31620534   5.234   1.571   4.475
  179SAPS  H16X20535   5.242   1.620   4.575
  179SAPS  H16Y20536   5.198   1.469   4.498
  179SAPS  C31720537   5.121   1.643   4.393
  179SAPS  H17X20538   5.141   1.611   4.289
  179SAPS  H17Y20539   5.144   1.751   4.402
  179SAPS  C31820540   4.974   1.629   4.442
  179SAPS  H18X20541   4.972   1.661   4.549
  179SAPS  H18Y20542   4.949   1.521   4.433
  179SAPS  H18Z20543   4.904   1.686   4.377
  180SAPS     N20544   5.677   0.855   1.958
  180SAPS   HN120545   5.608   0.788   1.919
  180SAPS   HN220546   5.675   0.856   2.062
  180SAPS   HN320547   5.658   0.953   1.929
  180SAPS   C1220548   5.820   0.824   1.925
  180SAPS  H12A20549   5.826   0.722   1.891
  180SAPS   C1320550   5.886   0.902   1.806
  180SAPS  O13A20551   5.835   1.001   1.757
  180SAPS  O13B20552   5.993   0.858   1.760
  180SAPS   C1120553   5.909   0.846   2.049
  180SAPS  H11A20554   5.891   0.953   2.074
  180SAPS  H11B20555   6.018   0.844   2.027
  180SAPS     P20556   5.947   0.618   2.175
  180SAPS   O1320557   6.049   0.600   2.073
  180SAPS   O1420558   5.990   0.612   2.312
  180SAPS   O1220559   5.870   0.755   2.148
  180SAPS   O1120560   5.834   0.506   2.149
  180SAPS    C120561   5.695   0.520   2.155
  180SAPS    HA20562   5.654   0.622   2.138
  180SAPS    HB20563   5.654   0.464   2.068
  180SAPS    C220564   5.643   0.441   2.280
  180SAPS    HS20565   5.532   0.435   2.278
  180SAPS   O2120566   5.699   0.490   2.407
  180SAPS   C2120567   5.644   0.604   2.440
  180SAPS   O2220568   5.554   0.660   2.378
  180SAPS   C2220569   5.711   0.659   2.574
  180SAPS   H2R20570   5.810   0.701   2.544
  180SAPS   H2S20571   5.640   0.742   2.594
  180SAPS    C320572   5.672   0.285   2.264
  180SAPS    HX20573   5.782   0.283   2.282
  180SAPS    HY20574   5.645   0.252   2.162
  180SAPS   O3120575   5.596   0.210   2.360
  180SAPS   C3120576   5.665   0.178   2.472
  180SAPS   O3220577   5.784   0.200   2.488
  180SAPS   C3220578   5.577   0.101   2.575
  180SAPS   H2X20579   5.611  -0.003   2.594
  180SAPS   H2Y20580   5.482   0.082   2.522
  180SAPS   C2320581   5.711   0.550   2.673
  180SAPS   H3R20582   5.744   0.456   2.625
  180SAPS   H3S20583   5.610   0.527   2.713
  180SAPS   C2420584   5.788   0.590   2.807
  180SAPS   H4R20585   5.711   0.642   2.867
  180SAPS   H4S20586   5.876   0.658   2.796
  180SAPS   C2520587   5.836   0.469   2.881
  180SAPS   H5R20588   5.912   0.410   2.829
  180SAPS   C2620589   5.795   0.438   3.007
  180SAPS   H6R20590   5.858   0.364   3.059
  180SAPS   C2720591   5.684   0.499   3.093
  180SAPS   H7R20592   5.639   0.419   3.155
  180SAPS   H7S20593   5.602   0.542   3.032
  180SAPS   C2820594   5.734   0.612   3.173
  180SAPS   H8R20595   5.732   0.708   3.119
  180SAPS   C2920596   5.754   0.613   3.307
  180SAPS   H9R20597   5.797   0.701   3.355
  180SAPS  C21020598   5.731   0.498   3.401
  180SAPS  H10R20599   5.654   0.428   3.362
  180SAPS  H10S20600   5.691   0.527   3.501
  180SAPS  C21120601   5.870   0.429   3.417
  180SAPS  H11R20602   5.911   0.382   3.326
  180SAPS  C21220603   5.942   0.422   3.533
  180SAPS  H12R20604   6.030   0.356   3.542
  180SAPS  C21320605   5.898   0.475   3.664
  180SAPS  H13R20606   5.790   0.503   3.666
  180SAPS  H13S20607   5.942   0.577   3.669
  180SAPS  C21420608   5.937   0.386   3.782
  180SAPS  H14R20609   5.882   0.292   3.775
  180SAPS  C21520610   6.016   0.424   3.889
  180SAPS  H15R20611   6.027   0.348   3.968
  180SAPS  C21620612   6.082   0.556   3.916
  180SAPS  H16R20613   6.024   0.637   3.866
  180SAPS  H16S20614   6.185   0.549   3.874
  180SAPS  C21720615   6.091   0.608   4.064
  180SAPS  H17R20616   5.986   0.595   4.098
  180SAPS  H17S20617   6.133   0.711   4.062
  180SAPS  C21820618   6.181   0.527   4.165
  180SAPS  H18R20619   6.276   0.511   4.111
  180SAPS  H18S20620   6.131   0.430   4.183
  180SAPS  C21920621   6.197   0.610   4.297
  180SAPS  H19R20622   6.098   0.626   4.343
  180SAPS  H19S20623   6.254   0.702   4.276
  180SAPS  C22020624   6.281   0.535   4.408
  180SAPS  H20R20625   6.213   0.459   4.451
  180SAPS  H20S20626   6.369   0.478   4.371
  180SAPS  H20T20627   6.300   0.609   4.489
  180SAPS   C3320628   5.569   0.177   2.711
  180SAPS   H3X20629   5.515   0.274   2.698
  180SAPS   H3Y20630   5.669   0.209   2.746
  180SAPS   C3420631   5.492   0.100   2.826
  180SAPS   H4X20632   5.534  -0.003   2.825
  180SAPS   H4Y20633   5.389   0.094   2.785
  180SAPS   C3520634   5.524   0.163   2.965
  180SAPS   H5X20635   5.490   0.269   2.967
  180SAPS   H5Y20636   5.634   0.172   2.980
  180SAPS   C3620637   5.469   0.085   3.082
  180SAPS   H6X20638   5.489  -0.024   3.091
  180SAPS   H6Y20639   5.362   0.081   3.054
  180SAPS   C3720640   5.507   0.168   3.206
  180SAPS   H7X20641   5.447   0.261   3.212
  180SAPS   H7Y20642   5.616   0.189   3.213
  180SAPS   C3820643   5.458   0.108   3.335
  180SAPS   H8X20644   5.433   0.002   3.313
  180SAPS   H8Y20645   5.355   0.148   3.350
  180SAPS   C3920646   5.554   0.133   3.451
  180SAPS   H9X20647   5.566   0.243   3.463
  180SAPS   H9Y20648   5.656   0.091   3.439
  180SAPS  C31020649   5.510   0.069   3.586
  180SAPS  H10X20650   5.500  -0.042   3.579
  180SAPS  H10Y20651   5.409   0.111   3.602
  180SAPS  C31120652   5.617   0.091   3.701
  180SAPS  H11X20653   5.649   0.196   3.717
  180SAPS  H11Y20654   5.710   0.042   3.667
  180SAPS  C31220655   5.561   0.030   3.833
  180SAPS  H12X20656   5.528  -0.073   3.810
  180SAPS  H12Y20657   5.464   0.080   3.854
  180SAPS  C31320658   5.676   0.031   3.941
  180SAPS  H13X20659   5.713   0.136   3.951
  180SAPS  H13Y20660   5.751  -0.041   3.902
  180SAPS  C31420661   5.632  -0.023   4.080
  180SAPS  H14X20662   5.606  -0.131   4.081
  180SAPS  H14Y20663   5.543   0.037   4.110
  180SAPS  C31520664   5.742  -0.007   4.188
  180SAPS  H15X20665   5.762   0.102   4.197
  180SAPS  H15Y20666   5.839  -0.042   4.149
  180SAPS  C31620667   5.690  -0.075   4.314
  180SAPS  H16X20668   5.699  -0.181   4.280
  180SAPS  H16Y20669   5.586  -0.039   4.329
  180SAPS  C31720670   5.781  -0.059   4.434
  180SAPS  H17X20671   5.756  -0.137   4.509
  180SAPS  H17Y20672   5.770   0.039   4.485
  180SAPS  C31820673   5.931  -0.085   4.412
  180SAPS  H18X20674   5.951  -0.170   4.343
  180SAPS  H18Y20675   5.985  -0.106   4.507
  180SAPS  H18Z20676   5.976   0.011   4.378
  181POPC     N20677   4.104   0.807   6.800
  181POPC   C1220678   4.144   0.821   6.662
  181POPC  H12A20679   4.059   0.850   6.602
  181POPC  H12B20680   4.174   0.727   6.618
  181POPC   C1320681   4.041   0.933   6.848
  181POPC  H13A20682   4.028   0.920   6.954
  181POPC  H13B20683   4.105   1.017   6.826
  181POPC  H13C20684   3.953   0.954   6.789
  181POPC   C1420685   4.004   0.695   6.789
  181POPC  H14A20686   4.044   0.608   6.739
  181POPC  H14B20687   3.988   0.651   6.886
  181POPC  H14C20688   3.913   0.733   6.744
  181POPC   C1520689   4.202   0.775   6.903
  181POPC  H15A20690   4.250   0.681   6.880
  181POPC  H15B20691   4.161   0.766   7.002
  181POPC  H15C20692   4.278   0.851   6.904
  181POPC   C1120693   4.255   0.926   6.627
  181POPC  H11A20694   4.283   0.903   6.522
  181POPC  H11B20695   4.345   0.897   6.685
  181POPC     P20696   4.121   1.138   6.571
  181POPC   O1320697   4.040   1.219   6.664
  181POPC   O1420698   4.053   1.046   6.479
  181POPC   O1220699   4.223   1.060   6.655
  181POPC   O1120700   4.210   1.244   6.494
  181POPC    C120701   4.173   1.278   6.356
  181POPC    HA20702   4.153   1.387   6.361
  181POPC    HB20703   4.078   1.235   6.317
  181POPC    C220704   4.305   1.262   6.266
  181POPC    HS20705   4.363   1.354   6.285
  181POPC   O2120706   4.263   1.246   6.130
  181POPC   C2120707   4.226   1.362   6.074
  181POPC   O2220708   4.230   1.472   6.133
  181POPC   C2220709   4.201   1.330   5.928
  181POPC   H2R20710   4.158   1.228   5.922
  181POPC   H2S20711   4.303   1.340   5.887
  181POPC    C320712   4.393   1.140   6.300
  181POPC    HX20713   4.332   1.047   6.302
  181POPC    HY20714   4.423   1.137   6.407
  181POPC   O3120715   4.502   1.119   6.213
  181POPC   C3120716   4.612   1.183   6.253
  181POPC   O3220717   4.628   1.256   6.350
  181POPC   C3220718   4.727   1.150   6.151
  181POPC   H2X20719   4.701   1.043   6.130
  181POPC   H2Y20720   4.831   1.169   6.182
  181POPC   C2320721   4.114   1.435   5.864
  181POPC   H3R20722   4.146   1.539   5.885
  181POPC   H3S20723   4.009   1.431   5.901
  181POPC   C2420724   4.118   1.416   5.710
  181POPC   H4R20725   4.099   1.310   5.680
  181POPC   H4S20726   4.211   1.460   5.667
  181POPC   C2520727   4.010   1.495   5.635
  181POPC   H5R20728   4.004   1.602   5.664
  181POPC   H5S20729   3.919   1.435   5.658
  181POPC   C2620730   4.029   1.487   5.486
  181POPC   H6R20731   4.030   1.381   5.454
  181POPC   H6S20732   4.126   1.527   5.450
  181POPC   C2720733   3.906   1.553   5.422
  181POPC   H7R20734   3.899   1.654   5.468
  181POPC   H7S20735   3.818   1.490   5.448
  181POPC   C2820736   3.905   1.552   5.263
  181POPC   H8R20737   3.809   1.594   5.223
  181POPC   H8S20738   3.904   1.446   5.229
  181POPC   C2920739   4.030   1.619   5.201
  181POPC   H9120740   4.105   1.667   5.266
  181POPC  C21020741   4.051   1.614   5.069
  181POPC  H10120742   4.144   1.659   5.030
  181POPC  C21120743   3.958   1.572   4.954
  181POPC  H11R20744   3.939   1.463   4.951
  181POPC  H11S20745   4.011   1.600   4.861
  181POPC  C21220746   3.824   1.638   4.937
  181POPC  H12R20747   3.801   1.721   5.008
  181POPC  H12S20748   3.744   1.562   4.951
  181POPC  C21320749   3.808   1.692   4.795
  181POPC  H13R20750   3.809   1.608   4.722
  181POPC  H13S20751   3.895   1.754   4.765
  181POPC  C21420752   3.676   1.777   4.796
  181POPC  H14R20753   3.689   1.861   4.868
  181POPC  H14S20754   3.589   1.718   4.830
  181POPC  C21520755   3.652   1.841   4.657
  181POPC  H15R20756   3.568   1.913   4.667
  181POPC  H15S20757   3.632   1.768   4.576
  181POPC  C21620758   3.769   1.935   4.619
  181POPC  H16R20759   3.861   1.879   4.592
  181POPC  H16S20760   3.792   1.993   4.711
  181POPC  C21720761   3.743   2.036   4.498
  181POPC  H17R20762   3.674   2.111   4.544
  181POPC  H17S20763   3.678   1.984   4.425
  181POPC  C21820764   3.865   2.092   4.428
  181POPC  H18R20765   3.926   2.025   4.364
  181POPC  H18S20766   3.920   2.143   4.509
  181POPC  H18T20767   3.837   2.175   4.359
  181POPC   C3320768   4.689   1.239   6.025
  181POPC   H3X20769   4.584   1.219   5.992
  181POPC   H3Y20770   4.753   1.205   5.941
  181POPC   C3420771   4.710   1.389   6.041
  181POPC   H4X20772   4.814   1.402   6.079
  181POPC   H4Y20773   4.639   1.432   6.116
  181POPC   C3520774   4.683   1.465   5.913
  181POPC   H5X20775   4.588   1.431   5.867
  181POPC   H5Y20776   4.768   1.451   5.842
  181POPC   C3620777   4.660   1.611   5.940
  181POPC   H6X20778   4.746   1.661   5.890
  181POPC   H6Y20779   4.667   1.630   6.049
  181POPC   C3720780   4.516   1.661   5.896
  181POPC   H7X20781   4.513   1.763   5.939
  181POPC   H7Y20782   4.439   1.600   5.950
  181POPC   C3820783   4.490   1.674   5.745
  181POPC   H8X20784   4.471   1.577   5.695
  181POPC   H8Y20785   4.575   1.725   5.696
  181POPC   C3920786   4.369   1.769   5.717
  181POPC   H9X20787   4.400   1.875   5.729
  181POPC   H9Y20788   4.303   1.737   5.801
  181POPC  C31020789   4.314   1.758   5.578
  181POPC  H10X20790   4.210   1.794   5.564
  181POPC  H10Y20791   4.306   1.648   5.567
  181POPC  C31120792   4.415   1.819   5.474
  181POPC  H11X20793   4.519   1.785   5.492
  181POPC  H11Y20794   4.426   1.930   5.478
  181POPC  C31220795   4.372   1.781   5.331
  181POPC  H12X20796   4.262   1.787   5.316
  181POPC  H12Y20797   4.379   1.670   5.324
  181POPC  C31320798   4.451   1.846   5.221
  181POPC  H13X20799   4.458   1.772   5.139
  181POPC  H13Y20800   4.555   1.855   5.260
  181POPC  C31420801   4.393   1.977   5.160
  181POPC  H14X20802   4.419   2.055   5.234
  181POPC  H14Y20803   4.285   1.964   5.138
  181POPC  C31520804   4.472   2.013   5.033
  181POPC  H15X20805   4.469   1.938   4.951
  181POPC  H15Y20806   4.572   2.035   5.076
  181POPC  C31620807   4.422   2.151   4.984
  181POPC  H16X20808   4.494   2.192   4.910
  181POPC  H16Y20809   4.418   2.220   5.071
  181POPC  H16Z20810   4.319   2.136   4.946
  182POPC     N20811   1.753   0.448   7.026
  182POPC   C1220812   1.613   0.448   6.974
  182POPC  H12A20813   1.565   0.481   7.065
  182POPC  H12B20814   1.573   0.349   6.962
  182POPC   C1320815   1.750   0.362   7.148
  182POPC  H13A20816   1.693   0.410   7.226
  182POPC  H13B20817   1.699   0.267   7.148
  182POPC  H13C20818   1.851   0.335   7.175
  182POPC   C1420819   1.841   0.371   6.930
  182POPC  H14A20820   1.947   0.374   6.954
  182POPC  H14B20821   1.805   0.270   6.923
  182POPC  H14C20822   1.826   0.407   6.829
  182POPC   C1520823   1.809   0.580   7.053
  182POPC  H15A20824   1.811   0.643   6.965
  182POPC  H15B20825   1.909   0.573   7.092
  182POPC  H15C20826   1.753   0.633   7.130
  182POPC   C1120827   1.561   0.545   6.869
  182POPC  H11A20828   1.571   0.649   6.909
  182POPC  H11B20829   1.453   0.524   6.855
  182POPC     P20830   1.617   0.413   6.651
  182POPC   O1320831   1.476   0.421   6.602
  182POPC   O1420832   1.657   0.284   6.711
  182POPC   O1220833   1.644   0.539   6.747
  182POPC   O1120834   1.712   0.449   6.526
  182POPC    C120835   1.772   0.349   6.448
  182POPC    HA20836   1.695   0.279   6.409
  182POPC    HB20837   1.843   0.294   6.512
  182POPC    C220838   1.853   0.415   6.331
  182POPC    HS20839   1.932   0.480   6.374
  182POPC   O2120840   1.763   0.484   6.245
  182POPC   C2120841   1.818   0.600   6.197
  182POPC   O2220842   1.929   0.639   6.219
  182POPC   C2220843   1.710   0.666   6.107
  182POPC   H2R20844   1.623   0.680   6.175
  182POPC   H2S20845   1.664   0.589   6.042
  182POPC    C320846   1.922   0.301   6.256
  182POPC    HX20847   1.838   0.261   6.195
  182POPC    HY20848   1.952   0.216   6.321
  182POPC   O3120849   2.026   0.350   6.171
  182POPC   C3120850   2.049   0.287   6.057
  182POPC   O3220851   1.983   0.187   6.022
  182POPC   C3220852   2.161   0.355   5.968
  182POPC   H2X20853   2.250   0.362   6.033
  182POPC   H2Y20854   2.132   0.461   5.947
  182POPC   C2320855   1.767   0.793   6.047
  182POPC   H3R20856   1.816   0.859   6.122
  182POPC   H3S20857   1.686   0.848   5.993
  182POPC   C2420858   1.870   0.760   5.937
  182POPC   H4R20859   1.967   0.724   5.977
  182POPC   H4S20860   1.892   0.858   5.890
  182POPC   C2520861   1.820   0.661   5.830
  182POPC   H5R20862   1.720   0.690   5.791
  182POPC   H5S20863   1.810   0.558   5.871
  182POPC   C2620864   1.918   0.677   5.713
  182POPC   H6R20865   2.010   0.645   5.767
  182POPC   H6S20866   1.940   0.779   5.675
  182POPC   C2720867   1.885   0.589   5.592
  182POPC   H7R20868   1.854   0.488   5.625
  182POPC   H7S20869   1.983   0.583   5.539
  182POPC   C2820870   1.767   0.653   5.517
  182POPC   H8R20871   1.788   0.757   5.484
  182POPC   H8S20872   1.683   0.661   5.589
  182POPC   C2920873   1.725   0.575   5.396
  182POPC   H9120874   1.670   0.482   5.419
  182POPC  C21020875   1.753   0.604   5.264
  182POPC  H10120876   1.727   0.540   5.178
  182POPC  C21120877   1.841   0.720   5.225
  182POPC  H11R20878   1.934   0.715   5.285
  182POPC  H11S20879   1.785   0.815   5.241
  182POPC  C21220880   1.883   0.708   5.076
  182POPC  H12R20881   1.954   0.622   5.073
  182POPC  H12S20882   1.937   0.799   5.042
  182POPC  C21320883   1.771   0.702   4.966
  182POPC  H13R20884   1.686   0.753   5.015
  182POPC  H13S20885   1.730   0.599   4.959
  182POPC  C21420886   1.796   0.764   4.829
  182POPC  H14R20887   1.895   0.732   4.790
  182POPC  H14S20888   1.796   0.875   4.837
  182POPC  C21520889   1.694   0.721   4.720
  182POPC  H15R20890   1.589   0.732   4.752
  182POPC  H15S20891   1.711   0.615   4.693
  182POPC  C21620892   1.707   0.790   4.582
  182POPC  H16R20893   1.809   0.769   4.543
  182POPC  H16S20894   1.685   0.898   4.588
  182POPC  C21720895   1.621   0.721   4.477
  182POPC  H17R20896   1.514   0.725   4.506
  182POPC  H17S20897   1.649   0.614   4.466
  182POPC  C21820898   1.635   0.776   4.335
  182POPC  H18R20899   1.621   0.886   4.347
  182POPC  H18S20900   1.558   0.733   4.268
  182POPC  H18T20901   1.726   0.747   4.279
  182POPC   C3320902   2.210   0.289   5.842
  182POPC   H3X20903   2.241   0.185   5.865
  182POPC   H3Y20904   2.300   0.348   5.811
  182POPC   C3420905   2.120   0.289   5.720
  182POPC   H4X20906   2.108   0.397   5.695
  182POPC   H4Y20907   2.018   0.249   5.743
  182POPC   C3520908   2.164   0.215   5.589
  182POPC   H5X20909   2.175   0.106   5.604
  182POPC   H5Y20910   2.261   0.267   5.574
  182POPC   C3620911   2.063   0.247   5.484
  182POPC   H6X20912   2.025   0.351   5.497
  182POPC   H6Y20913   1.973   0.185   5.506
  182POPC   C3720914   2.127   0.238   5.346
  182POPC   H7X20915   2.173   0.139   5.328
  182POPC   H7Y20916   2.208   0.314   5.354
  182POPC   C3820917   2.032   0.287   5.235
  182POPC   H8X20918   2.003   0.390   5.264
  182POPC   H8Y20919   1.941   0.224   5.244
  182POPC   C3920920   2.094   0.291   5.094
  182POPC   H9X20921   2.112   0.183   5.073
  182POPC   H9Y20922   2.188   0.349   5.097
  182POPC  C31020923   1.993   0.336   4.992
  182POPC  H10X20924   1.973   0.444   5.004
  182POPC  H10Y20925   1.895   0.283   4.994
  182POPC  C31120926   2.027   0.312   4.847
  182POPC  H11X20927   1.933   0.328   4.790
  182POPC  H11Y20928   2.042   0.203   4.828
  182POPC  C31220929   2.142   0.395   4.806
  182POPC  H12X20930   2.240   0.358   4.844
  182POPC  H12Y20931   2.130   0.499   4.846
  182POPC  C31320932   2.155   0.403   4.650
  182POPC  H13X20933   2.105   0.315   4.605
  182POPC  H13Y20934   2.264   0.404   4.629
  182POPC  C31420935   2.086   0.529   4.587
  182POPC  H14X20936   2.100   0.620   4.650
  182POPC  H14Y20937   1.977   0.510   4.586
  182POPC  C31520938   2.134   0.547   4.448
  182POPC  H15X20939   2.245   0.544   4.445
  182POPC  H15Y20940   2.093   0.645   4.415
  182POPC  C31620941   2.087   0.424   4.354
  182POPC  H16X20942   2.132   0.327   4.383
  182POPC  H16Y20943   2.099   0.431   4.244
  182POPC  H16Z20944   1.979   0.408   4.375
  183POPC     N20945   3.250   4.832   6.548
  183POPC   C1220946   3.388   4.888   6.508
  183POPC  H12A20947   3.451   4.803   6.529
  183POPC  H12B20948   3.424   4.969   6.571
  183POPC   C1320949   3.145   4.926   6.505
  183POPC  H13A20950   3.044   4.886   6.505
  183POPC  H13B20951   3.155   5.018   6.561
  183POPC  H13C20952   3.158   4.957   6.403
  183POPC   C1420953   3.247   4.698   6.486
  183POPC  H14A20954   3.283   4.707   6.384
  183POPC  H14B20955   3.314   4.627   6.532
  183POPC  H14C20956   3.154   4.643   6.495
  183POPC   C1520957   3.240   4.821   6.691
  183POPC  H15A20958   3.160   4.761   6.732
  183POPC  H15B20959   3.255   4.916   6.741
  183POPC  H15C20960   3.322   4.757   6.719
  183POPC   C1120961   3.417   4.923   6.355
  183POPC  H11A20962   3.345   5.000   6.318
  183POPC  H11B20963   3.396   4.832   6.295
  183POPC     P20964   3.611   5.104   6.326
  183POPC   O1320965   3.757   5.084   6.354
  183POPC   O1420966   3.544   5.200   6.407
  183POPC   O1220967   3.552   4.962   6.347
  183POPC   O1120968   3.589   5.138   6.169
  183POPC    C120969   3.593   5.035   6.065
  183POPC    HA20970   3.552   5.073   5.969
  183POPC    HB20971   3.541   4.942   6.097
  183POPC    C220972   3.737   4.994   6.028
  183POPC    HS20973   3.791   4.969   6.122
  183POPC   O2120974   3.789   5.107   5.962
  183POPC   C2120975   3.921   5.129   5.967
  183POPC   O2220976   4.001   5.078   6.042
  183POPC   C2220977   3.953   5.236   5.862
  183POPC   H2R20978   3.947   5.334   5.914
  183POPC   H2S20979   3.878   5.224   5.781
  183POPC    C320980   3.738   4.870   5.938
  183POPC    HX20981   3.701   4.782   5.994
  183POPC    HY20982   3.845   4.850   5.918
  183POPC   O3120983   3.661   4.882   5.820
  183POPC   C3120984   3.726   4.918   5.710
  183POPC   O3220985   3.848   4.925   5.697
  183POPC   C3220986   3.618   4.945   5.606
  183POPC   H2X20987   3.550   5.027   5.638
  183POPC   H2Y20988   3.550   4.858   5.616
  183POPC   C2320989   4.094   5.216   5.791
  183POPC   H3R20990   4.114   5.109   5.771
  183POPC   H3S20991   4.175   5.264   5.849
  183POPC   C2420992   4.092   5.295   5.662
  183POPC   H4R20993   4.068   5.399   5.690
  183POPC   H4S20994   4.007   5.267   5.596
  183POPC   C2520995   4.229   5.284   5.585
  183POPC   H5R20996   4.240   5.177   5.559
  183POPC   H5S20997   4.312   5.305   5.656
  183POPC   C2620998   4.256   5.390   5.478
  183POPC   H6R20999   4.229   5.486   5.526
  183POPC   H6S21000   4.191   5.381   5.389
  183POPC   C2721001   4.403   5.377   5.437
  183POPC   H7R21002   4.401   5.267   5.419
  183POPC   H7S21003   4.471   5.395   5.522
  183POPC   C2821004   4.450   5.457   5.318
  183POPC   H8R21005   4.375   5.437   5.239
  183POPC   H8S21006   4.547   5.413   5.289
  183POPC   C2921007   4.457   5.608   5.316
  183POPC   H9121008   4.393   5.656   5.391
  183POPC  C21021009   4.534   5.692   5.244
  183POPC  H10121010   4.515   5.800   5.249
  183POPC  C21121011   4.633   5.655   5.135
  183POPC  H11R21012   4.643   5.544   5.134
  183POPC  H11S21013   4.725   5.701   5.174
  183POPC  C21221014   4.589   5.703   5.000
  183POPC  H12R21015   4.579   5.814   5.008
  183POPC  H12S21016   4.488   5.660   4.980
  183POPC  C21321017   4.682   5.651   4.889
  183POPC  H13R21018   4.716   5.547   4.908
  183POPC  H13S21019   4.773   5.715   4.879
  183POPC  C21421020   4.628   5.640   4.745
  183POPC  H14R21021   4.717   5.640   4.679
  183POPC  H14S21022   4.571   5.734   4.728
  183POPC  C21521023   4.552   5.513   4.719
  183POPC  H15R21024   4.451   5.512   4.765
  183POPC  H15S21025   4.598   5.428   4.775
  183POPC  C21621026   4.535   5.473   4.576
  183POPC  H16R21027   4.629   5.470   4.518
  183POPC  H16S21028   4.461   5.545   4.534
  183POPC  C21721029   4.469   5.331   4.559
  183POPC  H17R21030   4.404   5.321   4.649
  183POPC  H17S21031   4.547   5.253   4.571
  183POPC  C21821032   4.394   5.298   4.437
  183POPC  H18R21033   4.360   5.193   4.424
  183POPC  H18S21034   4.474   5.306   4.360
  183POPC  H18T21035   4.307   5.362   4.410
  183POPC   C3321036   3.671   4.969   5.467
  183POPC   H3X21037   3.740   4.887   5.440
  183POPC   H3Y21038   3.722   5.068   5.461
  183POPC   C3421039   3.563   4.961   5.360
  183POPC   H4X21040   3.491   5.042   5.383
  183POPC   H4Y21041   3.513   4.863   5.379
  183POPC   C3521042   3.618   4.980   5.213
  183POPC   H5X21043   3.707   4.915   5.200
  183POPC   H5Y21044   3.654   5.085   5.205
  183POPC   C3621045   3.514   4.943   5.111
  183POPC   H6X21046   3.413   4.985   5.129
  183POPC   H6Y21047   3.513   4.832   5.108
  183POPC   C3721048   3.555   4.996   4.968
  183POPC   H7X21049   3.651   4.954   4.931
  183POPC   H7Y21050   3.551   5.107   4.970
  183POPC   C3821051   3.448   4.959   4.866
  183POPC   H8X21052   3.346   4.972   4.908
  183POPC   H8Y21053   3.458   4.850   4.850
  183POPC   C3921054   3.464   5.025   4.727
  183POPC   H9X21055   3.566   5.000   4.691
  183POPC   H9Y21056   3.451   5.134   4.739
  183POPC  C31021057   3.352   4.972   4.634
  183POPC  H10X21058   3.256   4.969   4.688
  183POPC  H10Y21059   3.371   4.864   4.613
  183POPC  C31121060   3.345   5.058   4.512
  183POPC  H11X21061   3.445   5.068   4.465
  183POPC  H11Y21062   3.322   5.164   4.536
  183POPC  C31221063   3.241   4.999   4.414
  183POPC  H12X21064   3.142   5.021   4.461
  183POPC  H12Y21065   3.251   4.888   4.420
  183POPC  C31321066   3.234   5.054   4.276
  183POPC  H13X21067   3.215   5.161   4.299
  183POPC  H13Y21068   3.142   5.015   4.228
  183POPC  C31421069   3.361   5.051   4.195
  183POPC  H14X21070   3.369   4.955   4.140
  183POPC  H14Y21071   3.456   5.048   4.254
  183POPC  C31521072   3.367   5.171   4.103
  183POPC  H15X21073   3.469   5.162   4.060
  183POPC  H15Y21074   3.363   5.267   4.159
  183POPC  C31621075   3.258   5.158   4.000
  183POPC  H16X21076   3.270   5.236   3.922
  183POPC  H16Y21077   3.156   5.168   4.043
  183POPC  H16Z21078   3.272   5.061   3.949
  184POPC     N21079   3.817   5.511   6.412
  184POPC   C1221080   3.855   5.640   6.338
  184POPC  H12A21081   3.879   5.627   6.234
  184POPC  H12B21082   3.947   5.679   6.379
  184POPC   C1321083   3.929   5.411   6.397
  184POPC  H13A21084   3.938   5.361   6.302
  184POPC  H13B21085   4.030   5.443   6.419
  184POPC  H13C21086   3.910   5.336   6.473
  184POPC   C1421087   3.795   5.551   6.556
  184POPC  H14A21088   3.890   5.585   6.596
  184POPC  H14B21089   3.715   5.623   6.562
  184POPC  H14C21090   3.751   5.469   6.611
  184POPC   C1521091   3.689   5.463   6.366
  184POPC  H15A21092   3.687   5.442   6.260
  184POPC  H15B21093   3.610   5.533   6.388
  184POPC  H15C21094   3.662   5.372   6.418
  184POPC   C1121095   3.763   5.746   6.342
  184POPC  H11A21096   3.738   5.776   6.446
  184POPC  H11B21097   3.670   5.709   6.294
  184POPC     P21098   3.935   5.939   6.322
  184POPC   O1321099   4.024   5.854   6.403
  184POPC   O1421100   3.883   6.056   6.393
  184POPC   O1221101   3.815   5.854   6.270
  184POPC   O1121102   4.013   5.996   6.190
  184POPC    C121103   4.022   5.921   6.070
  184POPC    HA21104   3.959   5.969   5.992
  184POPC    HB21105   3.972   5.823   6.083
  184POPC    C221106   4.172   5.917   6.031
  184POPC    HS21107   4.192   5.876   5.929
  184POPC   O2121108   4.245   5.853   6.137
  184POPC   C2121109   4.231   5.723   6.140
  184POPC   O2221110   4.171   5.649   6.065
  184POPC   C2221111   4.306   5.674   6.260
  184POPC   H2R21112   4.284   5.567   6.282
  184POPC   H2S21113   4.275   5.738   6.344
  184POPC    C321114   4.224   6.062   6.016
  184POPC    HX21115   4.185   6.108   6.109
  184POPC    HY21116   4.167   6.114   5.936
  184POPC   O3121117   4.368   6.067   5.996
  184POPC   C3121118   4.439   6.136   6.081
  184POPC   O3221119   4.401   6.209   6.168
  184POPC   C3221120   4.592   6.108   6.067
  184POPC   H2X21121   4.603   6.000   6.047
  184POPC   H2Y21122   4.633   6.108   6.170
  184POPC   C2321123   4.458   5.698   6.259
  184POPC   H3R21124   4.489   5.706   6.365
  184POPC   H3S21125   4.491   5.790   6.205
  184POPC   C2421126   4.541   5.582   6.197
  184POPC   H4R21127   4.524   5.491   6.258
  184POPC   H4S21128   4.646   5.614   6.182
  184POPC   C2521129   4.505   5.541   6.051
  184POPC   H5R21130   4.402   5.500   6.047
  184POPC   H5S21131   4.570   5.455   6.024
  184POPC   C2621132   4.517   5.644   5.944
  184POPC   H6R21133   4.621   5.682   5.952
  184POPC   H6S21134   4.450   5.731   5.958
  184POPC   C2721135   4.480   5.586   5.813
  184POPC   H7R21136   4.379   5.538   5.818
  184POPC   H7S21137   4.553   5.507   5.785
  184POPC   C2821138   4.474   5.685   5.690
  184POPC   H8R21139   4.497   5.627   5.597
  184POPC   H8S21140   4.562   5.752   5.697
  184POPC   C2921141   4.340   5.749   5.674
  184POPC   H9121142   4.256   5.694   5.718
  184POPC  C21021143   4.306   5.866   5.617
  184POPC  H10121144   4.200   5.895   5.619
  184POPC  C21121145   4.388   5.969   5.549
  184POPC  H11R21146   4.496   5.946   5.561
  184POPC  H11S21147   4.375   6.065   5.603
  184POPC  C21221148   4.347   5.991   5.405
  184POPC  H12R21149   4.239   6.014   5.389
  184POPC  H12S21150   4.355   5.891   5.359
  184POPC  C21321151   4.444   6.078   5.327
  184POPC  H13R21152   4.544   6.039   5.356
  184POPC  H13S21153   4.449   6.185   5.357
  184POPC  C21421154   4.440   6.060   5.171
  184POPC  H14R21155   4.410   5.959   5.135
  184POPC  H14S21156   4.536   6.096   5.129
  184POPC  C21521157   4.347   6.163   5.108
  184POPC  H15R21158   4.335   6.258   5.165
  184POPC  H15S21159   4.243   6.124   5.104
  184POPC  C21621160   4.385   6.205   4.966
  184POPC  H16R21161   4.496   6.199   4.965
  184POPC  H16S21162   4.359   6.313   4.963
  184POPC  C21721163   4.343   6.105   4.851
  184POPC  H17R21164   4.314   6.010   4.902
  184POPC  H17S21165   4.430   6.087   4.785
  184POPC  C21821166   4.245   6.175   4.756
  184POPC  H18R21167   4.154   6.214   4.806
  184POPC  H18S21168   4.213   6.100   4.680
  184POPC  H18T21169   4.300   6.255   4.702
  184POPC   C3321170   4.659   6.187   5.960
  184POPC   H3X21171   4.767   6.186   5.985
  184POPC   H3Y21172   4.613   6.289   5.959
  184POPC   C3421173   4.638   6.129   5.817
  184POPC   H4X21174   4.529   6.131   5.795
  184POPC   H4Y21175   4.678   6.025   5.824
  184POPC   C3521176   4.727   6.202   5.708
  184POPC   H5X21177   4.832   6.190   5.743
  184POPC   H5Y21178   4.697   6.309   5.699
  184POPC   C3621179   4.726   6.125   5.571
  184POPC   H6X21180   4.634   6.151   5.514
  184POPC   H6Y21181   4.727   6.016   5.594
  184POPC   C3721182   4.852   6.161   5.494
  184POPC   H7X21183   4.942   6.160   5.560
  184POPC   H7Y21184   4.845   6.266   5.460
  184POPC   C3821185   4.890   6.065   5.378
  184POPC   H8X21186   4.868   5.959   5.404
  184POPC   H8Y21187   5.001   6.069   5.370
  184POPC   C3921188   4.832   6.103   5.244
  184POPC   H9X21189   4.826   6.214   5.235
  184POPC   H9Y21190   4.729   6.066   5.259
  184POPC  C31021191   4.909   6.040   5.120
  184POPC  H10X21192   4.937   5.938   5.151
  184POPC  H10Y21193   5.005   6.095   5.114
  184POPC  C31121194   4.816   6.042   4.994
  184POPC  H11X21195   4.718   6.083   5.026
  184POPC  H11Y21196   4.787   5.937   4.975
  184POPC  C31221197   4.888   6.088   4.873
  184POPC  H12X21198   4.945   5.995   4.853
  184POPC  H12Y21199   4.955   6.176   4.886
  184POPC  C31321200   4.800   6.115   4.754
  184POPC  H13X21201   4.856   6.147   4.663
  184POPC  H13Y21202   4.731   6.197   4.785
  184POPC  C31421203   4.706   5.993   4.723
  184POPC  H14X21204   4.634   5.981   4.806
  184POPC  H14Y21205   4.776   5.907   4.712
  184POPC  C31521206   4.629   6.021   4.597
  184POPC  H15X21207   4.595   6.126   4.595
  184POPC  H15Y21208   4.538   5.959   4.583
  184POPC  C31621209   4.699   6.005   4.457
  184POPC  H16X21210   4.645   6.057   4.375
  184POPC  H16Y21211   4.722   5.899   4.430
  184POPC  H16Z21212   4.803   6.045   4.457
  185POPC     N21213   2.336   3.299   1.631
  185POPC   C1221214   2.386   3.324   1.772
  185POPC  H12A21215   2.457   3.405   1.766
  185POPC  H12B21216   2.437   3.233   1.797
  185POPC   C1321217   2.289   3.429   1.572
  185POPC  H13A21218   2.211   3.478   1.628
  185POPC  H13B21219   2.369   3.502   1.575
  185POPC  H13C21220   2.244   3.429   1.474
  185POPC   C1421221   2.455   3.246   1.558
  185POPC  H14A21222   2.461   3.139   1.573
  185POPC  H14B21223   2.435   3.262   1.453
  185POPC  H14C21224   2.546   3.298   1.585
  185POPC   C1521225   2.224   3.203   1.626
  185POPC  H15A21226   2.181   3.182   1.530
  185POPC  H15B21227   2.142   3.235   1.689
  185POPC  H15C21228   2.251   3.110   1.674
  185POPC   C1121229   2.303   3.375   1.893
  185POPC  H11A21230   2.352   3.347   1.988
  185POPC  H11B21231   2.211   3.314   1.902
  185POPC     P21232   2.360   3.621   1.908
  185POPC   O1321233   2.298   3.754   1.905
  185POPC   O1421234   2.483   3.598   1.835
  185POPC   O1221235   2.261   3.508   1.875
  185POPC   O1121236   2.385   3.589   2.060
  185POPC    C121237   2.301   3.632   2.165
  185POPC    HA21238   2.207   3.574   2.161
  185POPC    HB21239   2.270   3.738   2.148
  185POPC    C221240   2.369   3.616   2.304
  185POPC    HS21241   2.277   3.600   2.364
  185POPC   O2121242   2.444   3.732   2.335
  185POPC   C2121243   2.382   3.824   2.404
  185POPC   O2221244   2.261   3.819   2.430
  185POPC   C2221245   2.487   3.934   2.443
  185POPC   H2R21246   2.495   4.009   2.361
  185POPC   H2S21247   2.581   3.877   2.457
  185POPC    C321248   2.450   3.490   2.329
  185POPC    HX21249   2.544   3.495   2.269
  185POPC    HY21250   2.395   3.401   2.291
  185POPC   O3121251   2.487   3.469   2.466
  185POPC   C3121252   2.388   3.445   2.552
  185POPC   O3221253   2.275   3.427   2.522
  185POPC   C3221254   2.438   3.445   2.699
  185POPC   H2X21255   2.454   3.554   2.717
  185POPC   H2Y21256   2.543   3.408   2.694
  185POPC   C2321257   2.447   4.010   2.570
  185POPC   H3R21258   2.343   4.048   2.568
  185POPC   H3S21259   2.507   4.103   2.577
  185POPC   C2421260   2.466   3.925   2.695
  185POPC   H4R21261   2.569   3.886   2.684
  185POPC   H4S21262   2.394   3.840   2.687
  185POPC   C2521263   2.443   4.014   2.824
  185POPC   H5R21264   2.341   4.055   2.811
  185POPC   H5S21265   2.520   4.093   2.835
  185POPC   C2621266   2.440   3.943   2.960
  185POPC   H6R21267   2.541   3.904   2.984
  185POPC   H6S21268   2.373   3.854   2.959
  185POPC   C2721269   2.386   4.050   3.064
  185POPC   H7R21270   2.286   4.087   3.032
  185POPC   H7S21271   2.467   4.125   3.061
  185POPC   C2821272   2.384   3.997   3.213
  185POPC   H8R21273   2.491   3.976   3.236
  185POPC   H8S21274   2.331   3.900   3.218
  185POPC   C2921275   2.326   4.109   3.294
  185POPC   H9121276   2.308   4.197   3.231
  185POPC  C21021277   2.269   4.098   3.417
  185POPC  H10121278   2.225   4.182   3.474
  185POPC  C21121279   2.272   3.972   3.498
  185POPC  H11R21280   2.295   3.884   3.433
  185POPC  H11S21281   2.174   3.953   3.545
  185POPC  C21221282   2.374   3.955   3.613
  185POPC  H12R21283   2.473   3.969   3.565
  185POPC  H12S21284   2.365   3.853   3.655
  185POPC  C21321285   2.353   4.052   3.729
  185POPC  H13R21286   2.389   4.151   3.692
  185POPC  H13S21287   2.435   4.033   3.801
  185POPC  C21421288   2.213   4.047   3.789
  185POPC  H14R21289   2.187   3.947   3.832
  185POPC  H14S21290   2.145   4.071   3.705
  185POPC  C21521291   2.193   4.139   3.910
  185POPC  H15R21292   2.216   4.242   3.875
  185POPC  H15S21293   2.266   4.126   3.992
  185POPC  C21621294   2.048   4.147   3.959
  185POPC  H16R21295   1.990   4.096   3.879
  185POPC  H16S21296   2.021   4.255   3.966
  185POPC  C21721297   2.039   4.075   4.099
  185POPC  H17R21298   2.122   4.116   4.160
  185POPC  H17S21299   2.051   3.967   4.075
  185POPC  C21821300   1.898   4.094   4.159
  185POPC  H18R21301   1.819   4.057   4.090
  185POPC  H18S21302   1.881   4.200   4.189
  185POPC  H18T21303   1.896   4.029   4.250
  185POPC   C3321304   2.356   3.363   2.797
  185POPC   H3X21305   2.344   3.261   2.756
  185POPC   H3Y21306   2.254   3.407   2.804
  185POPC   C3421307   2.430   3.363   2.930
  185POPC   H4X21308   2.539   3.347   2.915
  185POPC   H4Y21309   2.386   3.287   2.997
  185POPC   C3521310   2.413   3.487   3.012
  185POPC   H5X21311   2.312   3.531   3.002
  185POPC   H5Y21312   2.482   3.563   2.970
  185POPC   C3621313   2.434   3.462   3.164
  185POPC   H6X21314   2.541   3.466   3.191
  185POPC   H6Y21315   2.382   3.373   3.206
  185POPC   C3721316   2.384   3.576   3.260
  185POPC   H7X21317   2.273   3.583   3.254
  185POPC   H7Y21318   2.428   3.672   3.225
  185POPC   C3821319   2.421   3.562   3.406
  185POPC   H8X21320   2.392   3.661   3.447
  185POPC   H8Y21321   2.526   3.531   3.426
  185POPC   C3921322   2.322   3.464   3.477
  185POPC   H9X21323   2.349   3.360   3.450
  185POPC   H9Y21324   2.217   3.490   3.449
  185POPC  C31021325   2.329   3.492   3.630
  185POPC  H10X21326   2.256   3.416   3.667
  185POPC  H10Y21327   2.300   3.597   3.650
  185POPC  C31121328   2.467   3.463   3.701
  185POPC  H11X21329   2.522   3.559   3.707
  185POPC  H11Y21330   2.523   3.389   3.640
  185POPC  C31221331   2.461   3.411   3.848
  185POPC  H12X21332   2.415   3.310   3.843
  185POPC  H12Y21333   2.388   3.478   3.898
  185POPC  C31321334   2.587   3.428   3.935
  185POPC  H13X21335   2.555   3.407   4.039
  185POPC  H13Y21336   2.620   3.533   3.919
  185POPC  C31421337   2.692   3.328   3.894
  185POPC  H14X21338   2.735   3.342   3.793
  185POPC  H14Y21339   2.652   3.224   3.896
  185POPC  C31521340   2.811   3.329   3.984
  185POPC  H15X21341   2.890   3.262   3.943
  185POPC  H15Y21342   2.799   3.276   4.081
  185POPC  C31621343   2.881   3.460   3.985
  185POPC  H16X21344   2.848   3.531   4.064
  185POPC  H16Y21345   2.883   3.503   3.883
  185POPC  H16Z21346   2.989   3.438   4.002
  186POPC     N21347   5.455   6.457   1.996
  186POPC   C1221348   5.382   6.439   2.127
  186POPC  H12A21349   5.399   6.527   2.187
  186POPC  H12B21350   5.428   6.354   2.175
  186POPC   C1321351   5.415   6.364   1.887
  186POPC  H13A21352   5.483   6.366   1.803
  186POPC  H13B21353   5.427   6.265   1.928
  186POPC  H13C21354   5.313   6.376   1.854
  186POPC   C1421355   5.432   6.596   1.947
  186POPC  H14A21356   5.493   6.663   2.007
  186POPC  H14B21357   5.470   6.605   1.846
  186POPC  H14C21358   5.330   6.631   1.948
  186POPC   C1521359   5.610   6.445   2.028
  186POPC  H15A21360   5.650   6.458   1.928
  186POPC  H15B21361   5.631   6.356   2.085
  186POPC  H15C21362   5.654   6.524   2.088
  186POPC   C1121363   5.229   6.414   2.122
  186POPC  H11A21364   5.191   6.488   2.049
  186POPC  H11B21365   5.186   6.444   2.220
  186POPC     P21366   5.213   6.160   2.168
  186POPC   O1321367   5.354   6.151   2.206
  186POPC   O1421368   5.156   6.030   2.117
  186POPC   O1221369   5.189   6.285   2.072
  186POPC   O1121370   5.133   6.223   2.286
  186POPC    C121371   4.991   6.228   2.277
  186POPC    HA21372   4.946   6.143   2.222
  186POPC    HB21373   4.962   6.320   2.220
  186POPC    C221374   4.931   6.220   2.421
  186POPC    HS21375   4.960   6.313   2.474
  186POPC   O2121376   5.008   6.118   2.490
  186POPC   C2121377   4.997   5.991   2.446
  186POPC   O2221378   4.927   5.948   2.351
  186POPC   C2221379   5.108   5.912   2.511
  186POPC   H2R21380   5.153   5.864   2.422
  186POPC   H2S21381   5.062   5.830   2.569
  186POPC    C321382   4.779   6.197   2.445
  186POPC    HX21383   4.743   6.115   2.380
  186POPC    HY21384   4.742   6.296   2.409
  186POPC   O3121385   4.744   6.161   2.579
  186POPC   C3121386   4.764   6.249   2.676
  186POPC   O3221387   4.786   6.367   2.665
  186POPC   C3221388   4.762   6.176   2.813
  186POPC   H2X21389   4.851   6.113   2.835
  186POPC   H2Y21390   4.689   6.093   2.807
  186POPC   C2321391   5.217   5.988   2.603
  186POPC   H3R21392   5.247   6.081   2.551
  186POPC   H3S21393   5.305   5.920   2.614
  186POPC   C2421394   5.166   6.019   2.740
  186POPC   H4R21395   5.082   5.950   2.763
  186POPC   H4S21396   5.119   6.116   2.715
  186POPC   C2521397   5.275   6.030   2.836
  186POPC   H5R21398   5.349   6.098   2.787
  186POPC   H5S21399   5.334   5.938   2.856
  186POPC   C2621400   5.227   6.094   2.964
  186POPC   H6R21401   5.165   6.183   2.942
  186POPC   H6S21402   5.319   6.124   3.018
  186POPC   C2721403   5.137   6.004   3.055
  186POPC   H7R21404   5.179   5.903   3.075
  186POPC   H7S21405   5.040   5.997   3.002
  186POPC   C2821406   5.118   6.067   3.193
  186POPC   H8R21407   5.029   6.040   3.254
  186POPC   H8S21408   5.088   6.172   3.174
  186POPC   C2921409   5.244   6.064   3.277
  186POPC   H9121410   5.333   6.025   3.226
  186POPC  C21021411   5.241   6.088   3.417
  186POPC  H10121412   5.331   6.073   3.478
  186POPC  C21121413   5.123   6.132   3.506
  186POPC  H11R21414   5.038   6.157   3.439
  186POPC  H11S21415   5.153   6.228   3.553
  186POPC  C21221416   5.073   6.031   3.606
  186POPC  H12R21417   5.032   5.945   3.548
  186POPC  H12S21418   4.993   6.083   3.663
  186POPC  C21321419   5.182   5.976   3.697
  186POPC  H13R21420   5.257   6.050   3.731
  186POPC  H13S21421   5.233   5.899   3.634
  186POPC  C21421422   5.122   5.898   3.814
  186POPC  H14R21423   5.195   5.824   3.853
  186POPC  H14S21424   5.029   5.851   3.778
  186POPC  C21521425   5.109   5.975   3.951
  186POPC  H15R21426   5.208   5.994   3.997
  186POPC  H15S21427   5.060   5.908   4.025
  186POPC  C21621428   5.023   6.103   3.937
  186POPC  H16R21429   4.929   6.079   3.885
  186POPC  H16S21430   5.076   6.170   3.865
  186POPC  C21721431   4.979   6.171   4.068
  186POPC  H17R21432   5.062   6.178   4.142
  186POPC  H17S21433   4.917   6.101   4.128
  186POPC  C21821434   4.922   6.318   4.059
  186POPC  H18R21435   4.994   6.386   4.010
  186POPC  H18S21436   4.832   6.322   3.994
  186POPC  H18T21437   4.899   6.358   4.160
  186POPC   C3321438   4.737   6.270   2.934
  186POPC   H3X21439   4.642   6.327   2.923
  186POPC   H3Y21440   4.826   6.336   2.945
  186POPC   C3421441   4.717   6.199   3.064
  186POPC   H4X21442   4.791   6.116   3.068
  186POPC   H4Y21443   4.611   6.167   3.059
  186POPC   C3521444   4.733   6.291   3.192
  186POPC   H5X21445   4.648   6.362   3.196
  186POPC   H5Y21446   4.830   6.344   3.183
  186POPC   C3621447   4.747   6.201   3.325
  186POPC   H6X21448   4.846   6.153   3.343
  186POPC   H6Y21449   4.669   6.124   3.314
  186POPC   C3721450   4.712   6.278   3.453
  186POPC   H7X21451   4.623   6.339   3.425
  186POPC   H7Y21452   4.796   6.342   3.487
  186POPC   C3821453   4.697   6.177   3.560
  186POPC   H8X21454   4.793   6.124   3.574
  186POPC   H8Y21455   4.619   6.104   3.528
  186POPC   C3921456   4.650   6.230   3.698
  186POPC   H9X21457   4.562   6.296   3.684
  186POPC   H9Y21458   4.735   6.285   3.743
  186POPC  C31021459   4.615   6.115   3.796
  186POPC  H10X21460   4.699   6.043   3.808
  186POPC  H10Y21461   4.527   6.058   3.760
  186POPC  C31121462   4.565   6.174   3.929
  186POPC  H11X21463   4.478   6.242   3.919
  186POPC  H11Y21464   4.645   6.240   3.968
  186POPC  C31221465   4.542   6.066   4.043
  186POPC  H12X21466   4.597   6.093   4.136
  186POPC  H12Y21467   4.584   5.979   3.989
  186POPC  C31321468   4.392   6.047   4.080
  186POPC  H13X21469   4.344   6.148   4.076
  186POPC  H13Y21470   4.387   6.011   4.184
  186POPC  C31421471   4.323   5.947   3.977
  186POPC  H14X21472   4.345   5.989   3.876
  186POPC  H14Y21473   4.213   5.949   3.995
  186POPC  C31521474   4.359   5.802   3.991
  186POPC  H15X21475   4.466   5.794   3.964
  186POPC  H15Y21476   4.304   5.746   3.912
  186POPC  C31621477   4.331   5.739   4.129
  186POPC  H16X21478   4.332   5.628   4.123
  186POPC  H16Y21479   4.233   5.780   4.162
  186POPC  H16Z21480   4.400   5.783   4.203
  187POPC     N21481   1.748   3.674   2.023
  187POPC   C1221482   1.809   3.654   2.161
  187POPC  H12A21483   1.733   3.644   2.237
  187POPC  H12B21484   1.860   3.742   2.198
  187POPC   C1321485   1.666   3.547   1.993
  187POPC  H13A21486   1.732   3.461   1.988
  187POPC  H13B21487   1.599   3.527   2.075
  187POPC  H13C21488   1.611   3.553   1.900
  187POPC   C1421489   1.660   3.789   2.023
  187POPC  H14A21490   1.724   3.855   2.080
  187POPC  H14B21491   1.634   3.828   1.925
  187POPC  H14C21492   1.568   3.761   2.072
  187POPC   C1521493   1.856   3.698   1.924
  187POPC  H15A21494   1.921   3.611   1.926
  187POPC  H15B21495   1.906   3.789   1.952
  187POPC  H15C21496   1.824   3.727   1.825
  187POPC   C1121497   1.907   3.536   2.179
  187POPC  H11A21498   1.982   3.560   2.258
  187POPC  H11B21499   1.965   3.515   2.087
  187POPC     P21500   1.751   3.401   2.342
  187POPC   O1321501   1.744   3.256   2.380
  187POPC   O1421502   1.628   3.472   2.305
  187POPC   O1221503   1.849   3.414   2.216
  187POPC   O1121504   1.822   3.479   2.455
  187POPC    C121505   1.950   3.436   2.500
  187POPC    HA21506   2.026   3.473   2.428
  187POPC    HB21507   1.953   3.325   2.511
  187POPC    C221508   1.989   3.493   2.642
  187POPC    HS21509   2.088   3.453   2.671
  187POPC   O2121510   1.882   3.461   2.730
  187POPC   C2121511   1.908   3.410   2.852
  187POPC   O2221512   2.014   3.415   2.908
  187POPC   C2221513   1.780   3.344   2.904
  187POPC   H2R21514   1.781   3.241   2.863
  187POPC   H2S21515   1.691   3.400   2.869
  187POPC    C321516   2.011   3.647   2.632
  187POPC    HX21517   1.925   3.700   2.586
  187POPC    HY21518   2.093   3.680   2.564
  187POPC   O3121519   2.049   3.696   2.761
  187POPC   C3121520   1.954   3.727   2.844
  187POPC   O3221521   1.834   3.732   2.827
  187POPC   C3221522   2.029   3.778   2.969
  187POPC   H2X21523   2.064   3.878   2.934
  187POPC   H2Y21524   2.124   3.722   2.982
  187POPC   C2321525   1.778   3.335   3.059
  187POPC   H3R21526   1.676   3.341   3.104
  187POPC   H3S21527   1.834   3.420   3.105
  187POPC   C2421528   1.837   3.204   3.116
  187POPC   H4R21529   1.943   3.201   3.081
  187POPC   H4S21530   1.791   3.114   3.069
  187POPC   C2521531   1.823   3.201   3.269
  187POPC   H5R21532   1.844   3.102   3.315
  187POPC   H5S21533   1.716   3.218   3.290
  187POPC   C2621534   1.900   3.314   3.345
  187POPC   H6R21535   1.866   3.415   3.313
  187POPC   H6S21536   2.005   3.306   3.311
  187POPC   C2721537   1.895   3.292   3.501
  187POPC   H7R21538   1.980   3.344   3.551
  187POPC   H7S21539   1.911   3.183   3.511
  187POPC   C2821540   1.763   3.338   3.562
  187POPC   H8R21541   1.676   3.286   3.516
  187POPC   H8S21542   1.733   3.439   3.528
  187POPC   C2921543   1.768   3.338   3.715
  187POPC   H9121544   1.847   3.406   3.751
  187POPC  C21021545   1.692   3.254   3.789
  187POPC  H10121546   1.702   3.255   3.899
  187POPC  C21121547   1.589   3.151   3.737
  187POPC  H11R21548   1.557   3.189   3.638
  187POPC  H11S21549   1.501   3.131   3.801
  187POPC  C21221550   1.657   3.009   3.723
  187POPC  H12R21551   1.759   3.018   3.681
  187POPC  H12S21552   1.587   2.950   3.660
  187POPC  C21321553   1.678   2.935   3.855
  187POPC  H13R21554   1.774   2.974   3.894
  187POPC  H13S21555   1.702   2.829   3.833
  187POPC  C21421556   1.561   2.921   3.940
  187POPC  H14R21557   1.491   2.855   3.885
  187POPC  H14S21558   1.513   3.019   3.964
  187POPC  C21521559   1.588   2.839   4.073
  187POPC  H15R21560   1.651   2.901   4.140
  187POPC  H15S21561   1.652   2.752   4.045
  187POPC  C21621562   1.462   2.791   4.137
  187POPC  H16R21563   1.417   2.712   4.072
  187POPC  H16S21564   1.396   2.879   4.151
  187POPC  C21721565   1.490   2.733   4.276
  187POPC  H17R21566   1.598   2.713   4.285
  187POPC  H17S21567   1.437   2.636   4.274
  187POPC  C21821568   1.432   2.807   4.401
  187POPC  H18R21569   1.425   2.744   4.492
  187POPC  H18S21570   1.329   2.837   4.369
  187POPC  H18T21571   1.495   2.894   4.429
  187POPC   C3321572   1.940   3.799   3.093
  187POPC   H3X21573   1.872   3.711   3.097
  187POPC   H3Y21574   1.872   3.885   3.077
  187POPC   C3421575   2.016   3.819   3.227
  187POPC   H4X21576   2.076   3.912   3.221
  187POPC   H4Y21577   2.088   3.735   3.225
  187POPC   C3521578   1.931   3.815   3.353
  187POPC   H5X21579   1.826   3.814   3.319
  187POPC   H5Y21580   1.967   3.901   3.414
  187POPC   C3621581   1.950   3.688   3.443
  187POPC   H6X21582   2.056   3.659   3.423
  187POPC   H6Y21583   1.895   3.601   3.400
  187POPC   C3721584   1.921   3.707   3.592
  187POPC   H7X21585   1.822   3.664   3.619
  187POPC   H7Y21586   1.901   3.814   3.614
  187POPC   C3821587   2.033   3.653   3.680
  187POPC   H8X21588   2.117   3.718   3.647
  187POPC   H8Y21589   2.059   3.548   3.653
  187POPC   C3921590   2.013   3.673   3.832
  187POPC   H9X21591   1.924   3.611   3.858
  187POPC   H9Y21592   1.993   3.780   3.854
  187POPC  C31021593   2.133   3.624   3.913
  187POPC  H10X21594   2.216   3.696   3.898
  187POPC  H10Y21595   2.162   3.527   3.867
  187POPC  C31121596   2.082   3.607   4.059
  187POPC  H11X21597   2.025   3.513   4.075
  187POPC  H11Y21598   2.015   3.691   4.088
  187POPC  C31221599   2.198   3.607   4.157
  187POPC  H12X21600   2.263   3.697   4.163
  187POPC  H12Y21601   2.272   3.531   4.123
  187POPC  C31321602   2.159   3.558   4.294
  187POPC  H13X21603   2.134   3.450   4.288
  187POPC  H13Y21604   2.069   3.609   4.334
  187POPC  C31421605   2.283   3.582   4.389
  187POPC  H14X21606   2.323   3.686   4.387
  187POPC  H14Y21607   2.377   3.531   4.359
  187POPC  C31521608   2.242   3.576   4.534
  187POPC  H15X21609   2.217   3.471   4.560
  187POPC  H15Y21610   2.142   3.624   4.546
  187POPC  C31621611   2.336   3.643   4.635
  187POPC  H16X21612   2.437   3.598   4.627
  187POPC  H16Y21613   2.310   3.633   4.743
  187POPC  H16Z21614   2.356   3.750   4.611
  188POPC     N21615   4.389   3.563   2.115
  188POPC   C1221616   4.406   3.710   2.131
  188POPC  H12A21617   4.341   3.760   2.061
  188POPC  H12B21618   4.503   3.740   2.093
  188POPC   C1321619   4.254   3.514   2.147
  188POPC  H13A21620   4.231   3.522   2.252
  188POPC  H13B21621   4.181   3.586   2.114
  188POPC  H13C21622   4.235   3.418   2.102
  188POPC   C1421623   4.421   3.538   1.974
  188POPC  H14A21624   4.525   3.557   1.952
  188POPC  H14B21625   4.405   3.437   1.939
  188POPC  H14C21626   4.354   3.600   1.916
  188POPC   C1521627   4.486   3.490   2.195
  188POPC  H15A21628   4.576   3.549   2.187
  188POPC  H15B21629   4.508   3.391   2.160
  188POPC  H15C21630   4.453   3.487   2.298
  188POPC   C1121631   4.405   3.772   2.270
  188POPC  H11A21632   4.311   3.744   2.322
  188POPC  H11B21633   4.401   3.883   2.262
  188POPC     P21634   4.661   3.756   2.333
  188POPC   O1321635   4.659   3.896   2.291
  188POPC   O1421636   4.726   3.652   2.255
  188POPC   O1221637   4.511   3.716   2.356
  188POPC   O1121638   4.723   3.768   2.477
  188POPC    C121639   4.641   3.773   2.597
  188POPC    HA21640   4.679   3.715   2.683
  188POPC    HB21641   4.536   3.741   2.578
  188POPC    C221642   4.613   3.919   2.642
  188POPC    HS21643   4.622   3.979   2.550
  188POPC   O2121644   4.707   3.968   2.733
  188POPC   C2121645   4.720   4.109   2.734
  188POPC   O2221646   4.685   4.180   2.640
  188POPC   C2221647   4.789   4.158   2.862
  188POPC   H2R21648   4.763   4.262   2.892
  188POPC   H2S21649   4.898   4.148   2.844
  188POPC    C321650   4.473   3.949   2.693
  188POPC    HX21651   4.397   3.924   2.615
  188POPC    HY21652   4.471   4.059   2.709
  188POPC   O3121653   4.440   3.885   2.817
  188POPC   C3121654   4.397   3.759   2.819
  188POPC   O3221655   4.352   3.702   2.721
  188POPC   C3221656   4.408   3.695   2.963
  188POPC   H2X21657   4.410   3.584   2.953
  188POPC   H2Y21658   4.313   3.724   3.012
  188POPC   C2321659   4.753   4.063   2.976
  188POPC   H3R21660   4.801   3.964   2.964
  188POPC   H3S21661   4.643   4.044   2.977
  188POPC   C2421662   4.793   4.116   3.108
  188POPC   H4R21663   4.900   4.147   3.111
  188POPC   H4S21664   4.787   4.044   3.192
  188POPC   C2521665   4.718   4.236   3.169
  188POPC   H5R21666   4.611   4.215   3.190
  188POPC   H5S21667   4.711   4.320   3.098
  188POPC   C2621668   4.781   4.289   3.299
  188POPC   H6R21669   4.756   4.396   3.314
  188POPC   H6S21670   4.892   4.285   3.298
  188POPC   C2721671   4.727   4.216   3.422
  188POPC   H7R21672   4.712   4.113   3.384
  188POPC   H7S21673   4.641   4.268   3.470
  188POPC   C2821674   4.833   4.200   3.536
  188POPC   H8R21675   4.922   4.157   3.486
  188POPC   H8S21676   4.793   4.144   3.623
  188POPC   C2921677   4.865   4.344   3.582
  188POPC   H9121678   4.888   4.412   3.499
  188POPC  C21021679   4.865   4.397   3.706
  188POPC  H10121680   4.902   4.500   3.707
  188POPC  C21121681   4.856   4.327   3.843
  188POPC  H11R21682   4.839   4.219   3.820
  188POPC  H11S21683   4.765   4.353   3.901
  188POPC  C21221684   4.979   4.337   3.929
  188POPC  H12R21685   4.973   4.443   3.963
  188POPC  H12S21686   5.061   4.307   3.860
  188POPC  C21321687   4.982   4.258   4.059
  188POPC  H13R21688   4.973   4.150   4.037
  188POPC  H13S21689   4.889   4.268   4.119
  188POPC  C21421690   5.112   4.286   4.147
  188POPC  H14R21691   5.150   4.388   4.123
  188POPC  H14S21692   5.185   4.204   4.130
  188POPC  C21521693   5.084   4.308   4.298
  188POPC  H15R21694   5.035   4.211   4.320
  188POPC  H15S21695   5.012   4.391   4.308
  188POPC  C21621696   5.206   4.330   4.381
  188POPC  H16R21697   5.257   4.419   4.336
  188POPC  H16S21698   5.265   4.236   4.371
  188POPC  C21721699   5.171   4.361   4.526
  188POPC  H17R21700   5.087   4.434   4.527
  188POPC  H17S21701   5.256   4.404   4.583
  188POPC  C21821702   5.128   4.241   4.613
  188POPC  H18R21703   5.053   4.184   4.554
  188POPC  H18S21704   5.078   4.269   4.709
  188POPC  H18T21705   5.219   4.180   4.629
  188POPC   C3321706   4.537   3.729   3.042
  188POPC   H3X21707   4.544   3.840   3.049
  188POPC   H3Y21708   4.626   3.684   2.992
  188POPC   C3421709   4.527   3.680   3.190
  188POPC   H4X21710   4.542   3.570   3.196
  188POPC   H4Y21711   4.422   3.692   3.224
  188POPC   C3521712   4.636   3.736   3.283
  188POPC   H5X21713   4.635   3.843   3.252
  188POPC   H5Y21714   4.733   3.711   3.235
  188POPC   C3621715   4.617   3.708   3.433
  188POPC   H6X21716   4.635   3.600   3.448
  188POPC   H6Y21717   4.512   3.735   3.456
  188POPC   C3721718   4.723   3.799   3.515
  188POPC   H7X21719   4.700   3.906   3.497
  188POPC   H7Y21720   4.822   3.773   3.472
  188POPC   C3821721   4.720   3.771   3.666
  188POPC   H8X21722   4.737   3.662   3.680
  188POPC   H8Y21723   4.619   3.799   3.704
  188POPC   C3921724   4.818   3.856   3.743
  188POPC   H9X21725   4.842   3.947   3.683
  188POPC   H9Y21726   4.918   3.807   3.732
  188POPC  C31021727   4.790   3.899   3.892
  188POPC  H10X21728   4.689   3.944   3.890
  188POPC  H10Y21729   4.871   3.965   3.929
  188POPC  C31121730   4.793   3.780   3.973
  188POPC  H11X21731   4.885   3.719   3.984
  188POPC  H11Y21732   4.718   3.715   3.923
  188POPC  C31221733   4.739   3.787   4.117
  188POPC  H12X21734   4.650   3.853   4.109
  188POPC  H12Y21735   4.805   3.847   4.182
  188POPC  C31321736   4.689   3.660   4.189
  188POPC  H13X21737   4.774   3.587   4.187
  188POPC  H13Y21738   4.601   3.616   4.138
  188POPC  C31421739   4.646   3.684   4.334
  188POPC  H14X21740   4.554   3.747   4.329
  188POPC  H14Y21741   4.718   3.745   4.391
  188POPC  C31521742   4.635   3.557   4.419
  188POPC  H15X21743   4.624   3.588   4.525
  188POPC  H15Y21744   4.731   3.500   4.415
  188POPC  C31621745   4.506   3.477   4.380
  188POPC  H16X21746   4.416   3.539   4.358
  188POPC  H16Y21747   4.476   3.395   4.449
  188POPC  H16Z21748   4.526   3.442   4.276
  189SAPI   C1221749   3.725   0.946   6.511
  189SAPI    H221750   3.763   0.969   6.410
  189SAPI    O221751   3.812   1.008   6.604
  189SAPI   HO221752   3.898   1.019   6.562
  189SAPI   C1321753   3.580   1.005   6.533
  189SAPI    H321754   3.527   0.981   6.438
  189SAPI    O321755   3.567   1.145   6.536
  189SAPI   HO321756   3.504   1.183   6.475
  189SAPI   C1421757   3.494   0.947   6.647
  189SAPI    H421758   3.540   0.997   6.735
  189SAPI    O421759   3.355   0.983   6.632
  189SAPI   HO421760   3.349   1.056   6.694
  189SAPI   C1521761   3.513   0.798   6.670
  189SAPI    H521762   3.460   0.745   6.588
  189SAPI    O521763   3.455   0.765   6.797
  189SAPI   HO521764   3.361   0.785   6.797
  189SAPI   C1621765   3.657   0.762   6.670
  189SAPI    H621766   3.700   0.827   6.749
  189SAPI    O621767   3.691   0.625   6.700
  189SAPI   HO621768   3.682   0.575   6.619
  189SAPI   C1121769   3.723   0.795   6.536
  189SAPI    H121770   3.660   0.751   6.455
  189SAPI     P21771   3.898   0.600   6.453
  189SAPI   O1321772   3.773   0.517   6.434
  189SAPI   O1421773   4.009   0.546   6.524
  189SAPI   O1221774   3.853   0.751   6.515
  189SAPI   O1121775   3.958   0.641   6.315
  189SAPI    C121776   4.026   0.762   6.270
  189SAPI    HA21777   4.038   0.834   6.354
  189SAPI    HB21778   4.132   0.742   6.244
  189SAPI    C221779   3.946   0.836   6.155
  189SAPI    HS21780   3.846   0.821   6.200
  189SAPI   O2121781   3.976   0.759   6.039
  189SAPI   C2121782   3.864   0.724   5.970
  189SAPI   O2221783   3.749   0.741   6.009
  189SAPI   C2221784   3.891   0.654   5.838
  189SAPI   H2R21785   3.971   0.580   5.864
  189SAPI   H2S21786   3.798   0.605   5.801
  189SAPI    C321787   3.989   0.988   6.141
  189SAPI    HX21788   4.095   0.978   6.106
  189SAPI    HY21789   3.984   1.054   6.230
  189SAPI   O3121790   3.907   1.048   6.036
  189SAPI   C3121791   3.806   1.126   6.075
  189SAPI   O3221792   3.766   1.149   6.192
  189SAPI   C3221793   3.755   1.216   5.950
  189SAPI   H2X21794   3.840   1.236   5.880
  189SAPI   H2Y21795   3.724   1.314   5.990
  189SAPI   C2321796   3.942   0.755   5.728
  189SAPI   H3R21797   4.003   0.835   5.777
  189SAPI   H3S21798   3.853   0.801   5.681
  189SAPI   C2421799   4.028   0.682   5.622
  189SAPI   H4R21800   3.962   0.603   5.580
  189SAPI   H4S21801   4.108   0.624   5.672
  189SAPI   C2521802   4.094   0.776   5.527
  189SAPI   H5R21803   4.162   0.854   5.563
  189SAPI   C2621804   4.081   0.771   5.395
  189SAPI   H6R21805   4.130   0.846   5.332
  189SAPI   C2721806   3.993   0.679   5.315
  189SAPI   H7R21807   3.892   0.701   5.357
  189SAPI   H7S21808   4.002   0.572   5.345
  189SAPI   C2821809   3.986   0.690   5.166
  189SAPI   H8R21810   3.903   0.746   5.121
  189SAPI   C2921811   4.082   0.638   5.079
  189SAPI   H9R21812   4.072   0.665   4.973
  189SAPI  C21021813   4.207   0.566   5.118
  189SAPI  H10R21814   4.188   0.457   5.104
  189SAPI  H10S21815   4.207   0.565   5.229
  189SAPI  C21121816   4.334   0.610   5.049
  189SAPI  H11R21817   4.342   0.573   4.945
  189SAPI  C21221818   4.446   0.650   5.113
  189SAPI  H12R21819   4.533   0.692   5.060
  189SAPI  C21321820   4.443   0.689   5.258
  189SAPI  H13R21821   4.473   0.596   5.311
  189SAPI  H13S21822   4.337   0.705   5.289
  189SAPI  C21421823   4.536   0.803   5.306
  189SAPI  H14R21824   4.590   0.866   5.235
  189SAPI  C21521825   4.553   0.830   5.435
  189SAPI  H15R21826   4.623   0.907   5.469
  189SAPI  C21621827   4.476   0.757   5.546
  189SAPI  H16R21828   4.371   0.731   5.523
  189SAPI  H16S21829   4.478   0.821   5.637
  189SAPI  C21721830   4.554   0.633   5.584
  189SAPI  H17R21831   4.589   0.583   5.491
  189SAPI  H17S21832   4.472   0.572   5.626
  189SAPI  C21821833   4.650   0.662   5.699
  189SAPI  H18R21834   4.591   0.700   5.785
  189SAPI  H18S21835   4.716   0.746   5.668
  189SAPI  C21921836   4.734   0.543   5.722
  189SAPI  H19R21837   4.792   0.516   5.630
  189SAPI  H19S21838   4.676   0.451   5.745
  189SAPI  C22021839   4.829   0.562   5.834
  189SAPI  H20R21840   4.901   0.645   5.821
  189SAPI  H20S21841   4.897   0.476   5.849
  189SAPI  H20T21842   4.771   0.578   5.928
  189SAPI   C3321843   3.650   1.146   5.865
  189SAPI   H3X21844   3.578   1.215   5.816
  189SAPI   H3Y21845   3.582   1.083   5.927
  189SAPI   C3421846   3.716   1.062   5.750
  189SAPI   H4X21847   3.628   1.015   5.700
  189SAPI   H4Y21848   3.771   0.983   5.805
  189SAPI   C3521849   3.804   1.144   5.656
  189SAPI   H5X21850   3.904   1.151   5.704
  189SAPI   H5Y21851   3.758   1.244   5.643
  189SAPI   C3621852   3.807   1.060   5.519
  189SAPI   H6X21853   3.712   1.061   5.461
  189SAPI   H6Y21854   3.829   0.956   5.554
  189SAPI   C3721855   3.923   1.113   5.427
  189SAPI   H7X21856   4.020   1.082   5.470
  189SAPI   H7Y21857   3.921   1.224   5.440
  189SAPI   C3821858   3.900   1.075   5.281
  189SAPI   H8X21859   3.802   1.113   5.246
  189SAPI   H8Y21860   3.891   0.965   5.271
  189SAPI   C3921861   4.012   1.123   5.189
  189SAPI   H9X21862   4.110   1.092   5.231
  189SAPI   H9Y21863   4.009   1.234   5.199
  189SAPI  C31021864   4.000   1.073   5.046
  189SAPI  H10X21865   3.915   1.123   4.994
  189SAPI  H10Y21866   3.967   0.967   5.054
  189SAPI  C31121867   4.119   1.100   4.964
  189SAPI  H11X21868   4.213   1.045   4.986
  189SAPI  H11Y21869   4.133   1.205   4.931
  189SAPI  C31221870   4.096   1.034   4.820
  189SAPI  H12X21871   3.999   1.065   4.775
  189SAPI  H12Y21872   4.099   0.924   4.834
  189SAPI  C31321873   4.204   1.077   4.718
  189SAPI  H13X21874   4.305   1.034   4.734
  189SAPI  H13Y21875   4.213   1.188   4.709
  189SAPI  C31421876   4.163   1.054   4.574
  189SAPI  H14X21877   4.072   1.112   4.547
  189SAPI  H14Y21878   4.140   0.950   4.542
  189SAPI  C31521879   4.272   1.090   4.467
  189SAPI  H15X21880   4.362   1.030   4.492
  189SAPI  H15Y21881   4.296   1.197   4.480
  189SAPI  C31621882   4.233   1.062   4.320
  189SAPI  H16X21883   4.156   1.136   4.290
  189SAPI  H16Y21884   4.190   0.961   4.306
  189SAPI  C31721885   4.353   1.069   4.222
  189SAPI  H17X21886   4.419   0.982   4.243
  189SAPI  H17Y21887   4.417   1.151   4.262
  189SAPI  C31821888   4.322   1.079   4.075
  189SAPI  H18X21889   4.394   1.042   4.000
  189SAPI  H18Y21890   4.302   1.183   4.041
  189SAPI  H18Z21891   4.222   1.034   4.056
  190SAPI   C1221892   3.246   6.188   6.485
  190SAPI    H221893   3.269   6.281   6.541
  190SAPI    O221894   3.353   6.101   6.511
  190SAPI   HO221895   3.394   6.074   6.428
  190SAPI   C1321896   3.117   6.129   6.534
  190SAPI    H321897   3.034   6.202   6.519
  190SAPI    O321898   3.108   6.102   6.673
  190SAPI   HO321899   3.019   6.086   6.705
  190SAPI   C1421900   3.071   5.997   6.454
  190SAPI    H421901   3.153   5.925   6.476
  190SAPI    O421902   2.949   5.938   6.489
  190SAPI   HO421903   2.888   6.000   6.447
  190SAPI   C1521904   3.089   6.016   6.301
  190SAPI    H521905   2.994   6.056   6.258
  190SAPI    O521906   3.106   5.892   6.231
  190SAPI   HO521907   3.026   5.842   6.247
  190SAPI   C1621908   3.194   6.120   6.252
  190SAPI    H621909   3.287   6.060   6.246
  190SAPI    O621910   3.159   6.171   6.121
  190SAPI   HO621911   3.217   6.245   6.103
  190SAPI   C1121912   3.235   6.234   6.344
  190SAPI    H121913   3.150   6.305   6.347
  190SAPI     P21914   3.367   6.412   6.181
  190SAPI   O1321915   3.460   6.515   6.213
  190SAPI   O1421916   3.228   6.447   6.146
  190SAPI   O1221917   3.364   6.297   6.302
  190SAPI   O1121918   3.414   6.331   6.057
  190SAPI    C121919   3.517   6.241   6.071
  190SAPI    HA21920   3.612   6.277   6.027
  190SAPI    HB21921   3.539   6.215   6.176
  190SAPI    C221922   3.476   6.112   5.992
  190SAPI    HS21923   3.390   6.066   6.045
  190SAPI   O2121924   3.590   6.022   5.990
  190SAPI   C2121925   3.562   5.892   5.966
  190SAPI   O2221926   3.444   5.853   5.955
  190SAPI   C2221927   3.678   5.804   5.951
  190SAPI   H2R21928   3.748   5.861   5.886
  190SAPI   H2S21929   3.719   5.789   6.053
  190SAPI    C321930   3.432   6.135   5.847
  190SAPI    HX21931   3.326   6.168   5.848
  190SAPI    HY21932   3.429   6.045   5.783
  190SAPI   O3121933   3.511   6.244   5.791
  190SAPI   C3121934   3.476   6.270   5.662
  190SAPI   O3221935   3.389   6.214   5.601
  190SAPI   C3221936   3.582   6.358   5.597
  190SAPI   H2X21937   3.683   6.317   5.614
  190SAPI   H2Y21938   3.587   6.460   5.642
  190SAPI   C2321939   3.649   5.666   5.901
  190SAPI   H3R21940   3.600   5.662   5.801
  190SAPI   H3S21941   3.590   5.614   5.979
  190SAPI   C2421942   3.782   5.582   5.886
  190SAPI   H4R21943   3.760   5.483   5.842
  190SAPI   H4S21944   3.831   5.557   5.983
  190SAPI   C2521945   3.878   5.658   5.797
  190SAPI   H5R21946   3.945   5.724   5.854
  190SAPI   C2621947   3.901   5.646   5.664
  190SAPI   H6R21948   3.984   5.710   5.632
  190SAPI   C2721949   3.821   5.567   5.561
  190SAPI   H7R21950   3.725   5.549   5.615
  190SAPI   H7S21951   3.852   5.464   5.534
  190SAPI   C2821952   3.800   5.654   5.441
  190SAPI   H8R21953   3.705   5.710   5.441
  190SAPI   C2921954   3.876   5.678   5.330
  190SAPI   H9R21955   3.837   5.749   5.256
  190SAPI  C21021956   4.014   5.618   5.303
  190SAPI  H10R21957   4.009   5.534   5.229
  190SAPI  H10S21958   4.054   5.579   5.399
  190SAPI  C21121959   4.123   5.715   5.254
  190SAPI  H11R21960   4.171   5.765   5.339
  190SAPI  C21221961   4.151   5.749   5.128
  190SAPI  H12R21962   4.235   5.817   5.106
  190SAPI  C21321963   4.094   5.698   4.999
  190SAPI  H13R21964   4.125   5.768   4.919
  190SAPI  H13S21965   3.983   5.706   5.002
  190SAPI  C21421966   4.135   5.557   4.953
  190SAPI  H14R21967   4.153   5.489   5.038
  190SAPI  C21521968   4.133   5.506   4.825
  190SAPI  H15R21969   4.173   5.406   4.798
  190SAPI  C21621970   4.087   5.588   4.711
  190SAPI  H16R21971   4.035   5.678   4.749
  190SAPI  H16S21972   4.013   5.536   4.647
  190SAPI  C21721973   4.209   5.614   4.616
  190SAPI  H17R21974   4.229   5.515   4.570
  190SAPI  H17S21975   4.299   5.645   4.674
  190SAPI  C21821976   4.185   5.717   4.508
  190SAPI  H18R21977   4.083   5.712   4.464
  190SAPI  H18S21978   4.264   5.696   4.432
  190SAPI  C21921979   4.213   5.857   4.563
  190SAPI  H19R21980   4.315   5.841   4.602
  190SAPI  H19S21981   4.158   5.885   4.656
  190SAPI  C22021982   4.199   5.961   4.461
  190SAPI  H20R21983   4.254   6.048   4.502
  190SAPI  H20S21984   4.094   5.991   4.438
  190SAPI  H20T21985   4.253   5.931   4.368
  190SAPI   C3321986   3.564   6.356   5.450
  190SAPI   H3X21987   3.457   6.366   5.422
  190SAPI   H3Y21988   3.601   6.254   5.423
  190SAPI   C3421989   3.639   6.470   5.373
  190SAPI   H4X21990   3.738   6.465   5.424
  190SAPI   H4Y21991   3.590   6.568   5.391
  190SAPI   C3521992   3.655   6.453   5.221
  190SAPI   H5X21993   3.741   6.392   5.188
  190SAPI   H5Y21994   3.663   6.559   5.190
  190SAPI   C3621995   3.531   6.411   5.142
  190SAPI   H6X21996   3.442   6.457   5.190
  190SAPI   H6Y21997   3.508   6.303   5.156
  190SAPI   C3721998   3.535   6.458   4.989
  190SAPI   H7X21999   3.435   6.444   4.944
  190SAPI   H7Y22000   3.608   6.388   4.942
  190SAPI   C3822001   3.586   6.606   4.965
  190SAPI   H8X22002   3.696   6.613   4.978
  190SAPI   H8Y22003   3.541   6.681   5.033
  190SAPI   C3922004   3.554   6.665   4.826
  190SAPI   H9X22005   3.598   6.767   4.833
  190SAPI   H9Y22006   3.443   6.674   4.826
  190SAPI  C31022007   3.611   6.603   4.702
  190SAPI  H10X22008   3.584   6.495   4.692
  190SAPI  H10Y22009   3.721   6.591   4.709
  190SAPI  C31122010   3.590   6.685   4.581
  190SAPI  H11X22011   3.600   6.790   4.616
  190SAPI  H11Y22012   3.483   6.678   4.552
  190SAPI  C31222013   3.689   6.650   4.461
  190SAPI  H12X22014   3.636   6.594   4.381
  190SAPI  H12Y22015   3.760   6.572   4.496
  190SAPI  C31322016   3.768   6.766   4.404
  190SAPI  H13X22017   3.837   6.798   4.485
  190SAPI  H13Y22018   3.697   6.849   4.384
  190SAPI  C31422019   3.861   6.749   4.284
  190SAPI  H14X22020   3.810   6.686   4.208
  190SAPI  H14Y22021   3.955   6.694   4.307
  190SAPI  C31522022   3.890   6.883   4.203
  190SAPI  H15X22023   3.936   6.948   4.281
  190SAPI  H15Y22024   3.789   6.919   4.175
  190SAPI  C31622025   3.989   6.872   4.092
  190SAPI  H16X22026   4.093   6.881   4.130
  190SAPI  H16Y22027   3.976   6.961   4.027
  190SAPI  C31722028   3.980   6.746   4.003
  190SAPI  H17X22029   3.876   6.716   3.977
  190SAPI  H17Y22030   4.008   6.663   4.071
  190SAPI  C31822031   4.055   6.759   3.873
  190SAPI  H18X22032   4.041   6.673   3.803
  190SAPI  H18Y22033   4.164   6.746   3.891
  190SAPI  H18Z22034   4.019   6.852   3.826
  191SAPI   C1222035   6.784   6.392   1.919
  191SAPI    H222036   6.826   6.466   1.991
  191SAPI    O222037   6.663   6.350   1.979
  191SAPI   HO222038   6.624   6.418   2.033
  191SAPI   C1322039   6.761   6.458   1.785
  191SAPI    H322040   6.857   6.500   1.748
  191SAPI    O322041   6.670   6.573   1.804
  191SAPI   HO322042   6.693   6.605   1.891
  191SAPI   C1422043   6.732   6.366   1.659
  191SAPI    H422044   6.626   6.333   1.664
  191SAPI    O422045   6.754   6.445   1.538
  191SAPI   HO422046   6.848   6.452   1.525
  191SAPI   C1522047   6.798   6.233   1.659
  191SAPI    H522048   6.901   6.244   1.619
  191SAPI    O522049   6.730   6.140   1.567
  191SAPI   HO522050   6.743   6.170   1.476
  191SAPI   C1622051   6.832   6.175   1.795
  191SAPI    H622052   6.737   6.130   1.830
  191SAPI    O622053   6.927   6.071   1.786
  191SAPI   HO622054   6.908   6.012   1.860
  191SAPI   C1122055   6.875   6.268   1.904
  191SAPI    H122056   6.971   6.306   1.861
  191SAPI     P22057   7.002   6.271   2.145
  191SAPI   O1322058   7.079   6.389   2.091
  191SAPI   O1422059   7.077   6.160   2.209
  191SAPI   O1222060   6.906   6.202   2.025
  191SAPI   O1122061   6.889   6.326   2.238
  191SAPI    C122062   6.884   6.448   2.311
  191SAPI    HA22063   6.903   6.534   2.243
  191SAPI    HB22064   6.785   6.458   2.362
  191SAPI    C222065   6.981   6.445   2.427
  191SAPI    HS22066   6.947   6.525   2.497
  191SAPI   O2122067   7.121   6.450   2.393
  191SAPI   C2122068   7.168   6.559   2.344
  191SAPI   O2222069   7.103   6.663   2.337
  191SAPI   C2222070   7.301   6.542   2.278
  191SAPI   H2R22071   7.319   6.433   2.275
  191SAPI   H2S22072   7.281   6.580   2.176
  191SAPI    C322073   6.945   6.321   2.521
  191SAPI    HX22074   6.970   6.229   2.463
  191SAPI    HY22075   6.835   6.309   2.535
  191SAPI   O3122076   7.015   6.339   2.642
  191SAPI   C3122077   7.107   6.247   2.673
  191SAPI   O3222078   7.135   6.156   2.604
  191SAPI   C3222079   7.155   6.282   2.801
  191SAPI   H2X22080   7.091   6.228   2.874
  191SAPI   H2Y22081   7.163   6.393   2.810
  191SAPI   C2322082   7.407   6.621   2.357
  191SAPI   H3R22083   7.361   6.716   2.391
  191SAPI   H3S22084   7.485   6.662   2.289
  191SAPI   C2422085   7.465   6.544   2.475
  191SAPI   H4R22086   7.526   6.457   2.445
  191SAPI   H4S22087   7.389   6.486   2.531
  191SAPI   C2522088   7.536   6.644   2.571
  191SAPI   H5R22089   7.602   6.716   2.521
  191SAPI   C2622090   7.509   6.672   2.698
  191SAPI   H6R22091   7.560   6.760   2.740
  191SAPI   C2722092   7.388   6.629   2.781
  191SAPI   H7R22093   7.421   6.576   2.873
  191SAPI   H7S22094   7.343   6.555   2.712
  191SAPI   C2822095   7.285   6.741   2.798
  191SAPI   H8R22096   7.249   6.772   2.699
  191SAPI   C2922097   7.273   6.810   2.910
  191SAPI   H9R22098   7.203   6.895   2.904
  191SAPI  C21022099   7.340   6.788   3.039
  191SAPI  H10R22100   7.397   6.694   3.060
  191SAPI  H10S22101   7.272   6.803   3.125
  191SAPI  C21122102   7.450   6.893   3.046
  191SAPI  H11R22103   7.520   6.895   2.962
  191SAPI  C21222104   7.473   6.974   3.150
  191SAPI  H12R22105   7.547   7.052   3.127
  191SAPI  C21322106   7.392   6.978   3.275
  191SAPI  H13R22107   7.400   6.877   3.321
  191SAPI  H13S22108   7.284   6.994   3.256
  191SAPI  C21422109   7.456   7.075   3.367
  191SAPI  H14R22110   7.528   7.146   3.325
  191SAPI  C21522111   7.449   7.074   3.500
  191SAPI  H15R22112   7.511   7.151   3.550
  191SAPI  C21622113   7.365   6.985   3.591
  191SAPI  H16R22114   7.431   6.918   3.651
  191SAPI  H16S22115   7.283   6.933   3.537
  191SAPI  C21722116   7.303   7.082   3.698
  191SAPI  H17R22117   7.243   7.011   3.760
  191SAPI  H17S22118   7.227   7.150   3.654
  191SAPI  C21822119   7.391   7.169   3.786
  191SAPI  H18R22120   7.433   7.255   3.730
  191SAPI  H18S22121   7.476   7.105   3.817
  191SAPI  C21922122   7.318   7.226   3.911
  191SAPI  H19R22123   7.228   7.284   3.882
  191SAPI  H19S22124   7.393   7.298   3.949
  191SAPI  C22022125   7.292   7.124   4.025
  191SAPI  H20R22126   7.385   7.064   4.029
  191SAPI  H20S22127   7.213   7.051   3.998
  191SAPI  H20T22128   7.269   7.173   4.122
  191SAPI   C3322129   7.302   6.234   2.819
  191SAPI   H3X22130   7.363   6.268   2.733
  191SAPI   H3Y22131   7.313   6.124   2.811
  191SAPI   C3422132   7.371   6.274   2.951
  191SAPI   H4X22133   7.342   6.380   2.965
  191SAPI   H4Y22134   7.481   6.271   2.945
  191SAPI   C3522135   7.320   6.186   3.070
  191SAPI   H5X22136   7.373   6.089   3.081
  191SAPI   H5Y22137   7.211   6.170   3.070
  191SAPI   C3622138   7.351   6.250   3.204
  191SAPI   H6X22139   7.328   6.358   3.203
  191SAPI   H6Y22140   7.459   6.241   3.229
  191SAPI   C3722141   7.269   6.181   3.320
  191SAPI   H7X22142   7.291   6.074   3.303
  191SAPI   H7Y22143   7.160   6.199   3.307
  191SAPI   C3822144   7.320   6.236   3.453
  191SAPI   H8X22145   7.327   6.347   3.449
  191SAPI   H8Y22146   7.425   6.198   3.456
  191SAPI   C3922147   7.247   6.200   3.578
  191SAPI   H9X22148   7.242   6.089   3.583
  191SAPI   H9Y22149   7.143   6.236   3.592
  191SAPI  C31022150   7.316   6.242   3.707
  191SAPI  H10X22151   7.356   6.345   3.700
  191SAPI  H10Y22152   7.402   6.176   3.730
  191SAPI  C31122153   7.219   6.238   3.827
  191SAPI  H11X22154   7.196   6.131   3.846
  191SAPI  H11Y22155   7.131   6.302   3.802
  191SAPI  C31222156   7.295   6.285   3.961
  191SAPI  H12X22157   7.291   6.396   3.961
  191SAPI  H12Y22158   7.399   6.246   3.957
  191SAPI  C31322159   7.229   6.238   4.089
  191SAPI  H13X22160   7.235   6.127   4.086
  191SAPI  H13Y22161   7.125   6.275   4.093
  191SAPI  C31422162   7.295   6.275   4.222
  191SAPI  H14X22163   7.278   6.385   4.231
  191SAPI  H14Y22164   7.406   6.272   4.217
  191SAPI  C31522165   7.247   6.194   4.345
  191SAPI  H15X22166   7.270   6.087   4.327
  191SAPI  H15Y22167   7.138   6.218   4.347
  191SAPI  C31622168   7.310   6.231   4.484
  191SAPI  H16X22169   7.421   6.230   4.473
  191SAPI  H16Y22170   7.282   6.151   4.555
  191SAPI  C31722171   7.281   6.379   4.533
  191SAPI  H17X22172   7.207   6.424   4.465
  191SAPI  H17Y22173   7.373   6.441   4.521
  191SAPI  C31822174   7.212   6.387   4.668
  191SAPI  H18X22175   7.209   6.489   4.712
  191SAPI  H18Y22176   7.265   6.322   4.741
  191SAPI  H18Z22177   7.108   6.349   4.671
  192SAPI   C1222178   2.247   0.057   2.134
  192SAPI    H222179   2.195  -0.027   2.082
  192SAPI    O222180   2.298   0.125   2.016
  192SAPI   HO222181   2.222   0.141   1.961
  192SAPI   C1322182   2.146   0.143   2.211
  192SAPI    H322183   2.093   0.072   2.278
  192SAPI    O322184   2.043   0.192   2.123
  192SAPI   HO322185   1.973   0.220   2.183
  192SAPI   C1422186   2.213   0.254   2.284
  192SAPI    H422187   2.213   0.333   2.206
  192SAPI    O422188   2.130   0.303   2.396
  192SAPI   HO422189   2.112   0.396   2.379
  192SAPI   C1522190   2.358   0.223   2.327
  192SAPI    H522191   2.362   0.217   2.438
  192SAPI    O522192   2.432   0.343   2.305
  192SAPI   HO522193   2.463   0.370   2.392
  192SAPI   C1622194   2.436   0.100   2.275
  192SAPI    H622195   2.498   0.141   2.193
  192SAPI    O622196   2.519   0.048   2.377
  192SAPI   HO622197   2.603   0.023   2.338
  192SAPI   C1122198   2.348  -0.002   2.221
  192SAPI    H122199   2.286  -0.046   2.302
  192SAPI     P22200   2.365  -0.259   2.129
  192SAPI   O1322201   2.407  -0.305   1.999
  192SAPI   O1422202   2.216  -0.262   2.155
  192SAPI   O1222203   2.429  -0.105   2.156
  192SAPI   O1122204   2.441  -0.340   2.242
  192SAPI    C122205   2.430  -0.296   2.385
  192SAPI    HA22206   2.476  -0.197   2.404
  192SAPI    HB22207   2.325  -0.270   2.413
  192SAPI    C222208   2.475  -0.402   2.488
  192SAPI    HS22209   2.420  -0.497   2.472
  192SAPI   O2122210   2.468  -0.339   2.615
  192SAPI   C2122211   2.427  -0.410   2.711
  192SAPI   O2222212   2.392  -0.525   2.702
  192SAPI   C2222213   2.441  -0.334   2.839
  192SAPI   H2R22214   2.387  -0.240   2.817
  192SAPI   H2S22215   2.388  -0.392   2.919
  192SAPI    C322216   2.629  -0.438   2.452
  192SAPI    HX22217   2.678  -0.339   2.453
  192SAPI    HY22218   2.627  -0.481   2.350
  192SAPI   O3122219   2.681  -0.527   2.551
  192SAPI   C3122220   2.673  -0.656   2.522
  192SAPI   O3222221   2.638  -0.705   2.419
  192SAPI   C3222222   2.719  -0.742   2.635
  192SAPI   H2X22223   2.724  -0.848   2.601
  192SAPI   H2Y22224   2.636  -0.736   2.709
  192SAPI   C2322225   2.583  -0.312   2.878
  192SAPI   H3R22226   2.581  -0.221   2.942
  192SAPI   H3S22227   2.648  -0.301   2.788
  192SAPI   C2422228   2.624  -0.442   2.954
  192SAPI   H4R22229   2.628  -0.525   2.880
  192SAPI   H4S22230   2.552  -0.468   3.035
  192SAPI   C2522231   2.762  -0.435   3.001
  192SAPI   H5R22232   2.835  -0.381   2.938
  192SAPI   C2622233   2.814  -0.481   3.119
  192SAPI   H6R22234   2.923  -0.481   3.133
  192SAPI   C2722235   2.748  -0.561   3.225
  192SAPI   H7R22236   2.746  -0.669   3.203
  192SAPI   H7S22237   2.640  -0.532   3.224
  192SAPI   C2822238   2.813  -0.535   3.361
  192SAPI   H8R22239   2.780  -0.447   3.419
  192SAPI   C2922240   2.894  -0.609   3.433
  192SAPI   H9R22241   2.885  -0.599   3.542
  192SAPI  C21022242   2.944  -0.741   3.394
  192SAPI  H10R22243   3.051  -0.737   3.423
  192SAPI  H10S22244   2.936  -0.757   3.284
  192SAPI  C21122245   2.900  -0.869   3.463
  192SAPI  H11R22246   2.877  -0.947   3.388
  192SAPI  C21222247   2.888  -0.900   3.592
  192SAPI  H12R22248   2.893  -1.007   3.618
  192SAPI  C21322249   2.912  -0.811   3.717
  192SAPI  H13R22250   2.823  -0.750   3.743
  192SAPI  H13S22251   2.982  -0.730   3.689
  192SAPI  C21422252   2.961  -0.880   3.844
  192SAPI  H14R22253   2.978  -0.989   3.842
  192SAPI  C21522254   2.983  -0.814   3.954
  192SAPI  H15R22255   3.015  -0.881   4.035
  192SAPI  C21622256   2.969  -0.668   3.977
  192SAPI  H16R22257   2.941  -0.653   4.084
  192SAPI  H16S22258   2.874  -0.629   3.935
  192SAPI  C21722259   3.098  -0.573   3.954
  192SAPI  H17R22260   3.128  -0.587   3.848
  192SAPI  H17S22261   3.180  -0.620   4.012
  192SAPI  C21822262   3.070  -0.424   3.985
  192SAPI  H18R22263   3.012  -0.388   3.897
  192SAPI  H18S22264   3.170  -0.376   3.974
  192SAPI  C21922265   2.996  -0.382   4.109
  192SAPI  H19R22266   2.899  -0.433   4.124
  192SAPI  H19S22267   2.974  -0.273   4.105
  192SAPI  C22022268   3.085  -0.406   4.233
  192SAPI  H20R22269   3.042  -0.372   4.330
  192SAPI  H20S22270   3.181  -0.352   4.222
  192SAPI  H20T22271   3.109  -0.513   4.247
  192SAPI   C3322272   2.849  -0.684   2.704
  192SAPI   H3X22273   2.840  -0.576   2.730
  192SAPI   H3Y22274   2.928  -0.707   2.630
  192SAPI   C3422275   2.865  -0.766   2.829
  192SAPI   H4X22276   2.862  -0.870   2.791
  192SAPI   H4Y22277   2.787  -0.750   2.906
  192SAPI   C3522278   3.007  -0.743   2.899
  192SAPI   H5X22279   3.012  -0.641   2.943
  192SAPI   H5Y22280   3.082  -0.759   2.819
  192SAPI   C3622281   3.023  -0.846   3.009
  192SAPI   H6X22282   3.016  -0.947   2.964
  192SAPI   H6Y22283   2.938  -0.839   3.081
  192SAPI   C3722284   3.146  -0.833   3.092
  192SAPI   H7X22285   3.131  -0.738   3.147
  192SAPI   H7Y22286   3.239  -0.820   3.033
  192SAPI   C3822287   3.161  -0.944   3.198
  192SAPI   H8X22288   3.168  -1.047   3.157
  192SAPI   H8Y22289   3.073  -0.942   3.265
  192SAPI   C3922290   3.280  -0.923   3.284
  192SAPI   H9X22291   3.271  -0.818   3.321
  192SAPI   H9Y22292   3.381  -0.939   3.239
  192SAPI  C31022293   3.277  -1.032   3.400
  192SAPI  H10X22294   3.296  -1.133   3.358
  192SAPI  H10Y22295   3.178  -1.024   3.450
  192SAPI  C31122296   3.378  -1.019   3.516
  192SAPI  H11X22297   3.377  -0.916   3.558
  192SAPI  H11Y22298   3.479  -1.032   3.471
  192SAPI  C31222299   3.352  -1.126   3.624
  192SAPI  H12X22300   3.357  -1.227   3.577
  192SAPI  H12Y22301   3.248  -1.124   3.663
  192SAPI  C31322302   3.455  -1.122   3.742
  192SAPI  H13X22303   3.463  -1.014   3.768
  192SAPI  H13Y22304   3.554  -1.161   3.710
  192SAPI  C31422305   3.409  -1.205   3.861
  192SAPI  H14X22306   3.492  -1.224   3.931
  192SAPI  H14Y22307   3.360  -1.295   3.818
  192SAPI  C31522308   3.303  -1.125   3.945
  192SAPI  H15X22309   3.227  -1.187   3.997
  192SAPI  H15Y22310   3.244  -1.054   3.882
  192SAPI  C31622311   3.377  -1.048   4.048
  192SAPI  H16X22312   3.460  -0.994   3.997
  192SAPI  H16Y22313   3.418  -1.116   4.126
  192SAPI  C31722314   3.292  -0.935   4.109
  192SAPI  H17X22315   3.205  -0.980   4.161
  192SAPI  H17Y22316   3.243  -0.872   4.031
  192SAPI  C31822317   3.368  -0.838   4.184
  192SAPI  H18X22318   3.296  -0.759   4.215
  192SAPI  H18Y22319   3.448  -0.794   4.120
  192SAPI  H18Z22320   3.421  -0.868   4.277
  193SOD    SOD22321   2.699   6.722   6.893
  194SOD    SOD22322   4.583   5.739   8.549
  195SOD    SOD22323   6.638   2.537   8.691
  196SOD    SOD22324   0.212   4.591   1.306
  197SOD    SOD22325   1.743   4.304   2.320
  198SOD    SOD22326   4.266   5.782   0.386
  199SOD    SOD22327   0.849   5.119   7.414
  200SOD    SOD22328   4.975   5.721   1.881
  201SOD    SOD22329   4.203   3.397   8.746
  202SOD    SOD22330   3.689   5.290   0.639
  203SOD    SOD22331   5.410   0.471   6.533
  204SOD    SOD22332   0.433   4.810   8.966
  205SOD    SOD22333   5.569   1.517   7.425
  206SOD    SOD22334   2.992   1.668   1.604
  207SOD    SOD22335   1.705   2.786   1.373
  208SOD    SOD22336   2.410   5.345   1.592
  209SOD    SOD22337   1.436   2.450   6.537
  210SOD    SOD22338   0.146   4.436   7.149
  211SOD    SOD22339   1.253   4.826   7.304
  212SOD    SOD22340   1.727   0.875   2.431
  213SOD    SOD22341   5.796   0.931   0.720
  214SOD    SOD22342   0.074   1.117   1.779
  215SOD    SOD22343   6.116   3.569   1.836
  216SOD    SOD22344   5.323   3.122   7.689
  217SOD    SOD22345   5.451   6.037   6.567
  218SOD    SOD22346   4.834   2.193   7.528
  219SOD    SOD22347   2.588   6.137   8.795
  220SOD    SOD22348   5.425   0.957   0.234
  221SOD    SOD22349   3.973   5.912   7.601
  222SOD    SOD22350   5.143   3.879   6.951
  223SOD    SOD22351   4.799   5.485   1.274
  224SOD    SOD22352   3.986   4.360   7.057
  225SOD    SOD22353   4.782   0.773   2.002
  226SOD    SOD22354   1.401   5.574   0.111
  227SOD    SOD22355   5.569   5.897   1.035
  228SOD    SOD22356   2.496   0.820   6.567
  229SOD    SOD22357   0.920   4.997   2.463
  230CLA    CLA22358   0.898   3.599   1.881
  231CLA    CLA22359   1.255   4.305   7.458
  232CLA    CLA22360   5.674   4.188   7.834
  233CLA    CLA22361   3.857   5.784   8.261
  234CLA    CLA22362   0.512   0.027   0.572
  235CLA    CLA22363   6.335   2.503   8.154
  236CLA    CLA22364   6.289   3.473   0.818
  237CLA    CLA22365   1.688   6.720   7.420
  238CLA    CLA22366   2.497   0.340   6.905
  239CLA    CLA22367   1.179   2.441   8.851
  240CLA    CLA22368   3.591   3.877   8.844
  241CLA    CLA22369   0.269   5.308   8.818
  242CLA    CLA22370   5.959   6.253   8.023
  243CLA    CLA22371   3.627   3.162   7.926
  244CLA    CLA22372   1.604   3.204   1.594
  245CLA    CLA22373   5.306   5.248   1.614
  246CLA    CLA22374   1.019   4.867   8.770
  247TIP3   OH222375   1.278   4.146   7.722
  247TIP3    H122376   1.255   4.186   7.638
  247TIP3    H222377   1.217   4.073   7.732
  248TIP3   OH222378   1.309   3.273   7.003
  248TIP3    H122379   1.376   3.297   7.067
  248TIP3    H222380   1.344   3.303   6.919
  249TIP3   OH222381   1.966   3.726   8.394
  249TIP3    H122382   1.921   3.750   8.313
  249TIP3    H222383   1.985   3.633   8.384
  250TIP3   OH222384   2.000   5.415   1.712
  250TIP3    H122385   2.017   5.352   1.783
  250TIP3    H222386   2.084   5.457   1.697
  251TIP3   OH222387   3.220   1.048   0.142
  251TIP3    H122388   3.265   1.128   0.114
  251TIP3    H222389   3.148   1.038   0.080
  252TIP3   OH222390   2.659   4.490   8.472
  252TIP3    H122391   2.579   4.456   8.512
  252TIP3    H222392   2.730   4.449   8.522
  253TIP3   OH222393   6.538   3.115   6.277
  253TIP3    H122394   6.535   3.038   6.334
  253TIP3    H222395   6.618   3.161   6.303
  254TIP3   OH222396   4.642   0.124   0.322
  254TIP3    H122397   4.583   0.079   0.383
  254TIP3    H222398   4.671   0.202   0.370
  255TIP3   OH222399   4.843   5.033   7.858
  255TIP3    H122400   4.857   4.964   7.794
  255TIP3    H222401   4.757   5.015   7.895
  256TIP3   OH222402   3.365   0.969   8.406
  256TIP3    H122403   3.298   1.030   8.374
  256TIP3    H222404   3.447   1.016   8.394
  257TIP3   OH222405   3.846   6.304   8.111
  257TIP3    H122406   3.865   6.323   8.203
  257TIP3    H222407   3.809   6.216   8.112
  258TIP3   OH222408   5.594   1.315   7.276
  258TIP3    H122409   5.632   1.349   7.195
  258TIP3    H222410   5.627   1.225   7.282
  259TIP3   OH222411   6.101   6.027   7.665
  259TIP3    H122412   6.107   6.103   7.723
  259TIP3    H222413   6.139   5.955   7.716
  260TIP3   OH222414   6.538   6.546   0.834
  260TIP3    H122415   6.460   6.549   0.778
  260TIP3    H222416   6.525   6.469   0.889
  261TIP3   OH222417   4.473   0.871   8.145
  261TIP3    H122418   4.494   0.931   8.074
  261TIP3    H222419   4.450   0.789   8.101
  262TIP3   OH222420   5.322   4.525   1.431
  262TIP3    H122421   5.365   4.440   1.443
  262TIP3    H222422   5.277   4.517   1.347
  263TIP3   OH222423   4.615   1.763   1.930
  263TIP3    H122424   4.613   1.859   1.927
  263TIP3    H222425   4.686   1.743   1.991
  264TIP3   OH222426   4.384   3.254   8.672
  264TIP3    H122427   4.437   3.285   8.598
  264TIP3    H222428   4.435   3.183   8.711
  265TIP3   OH222429   0.108   0.989   7.714
  265TIP3    H122430   0.198   0.976   7.684
  265TIP3    H222431   0.114   0.986   7.810
  266TIP3   OH222432   0.304   0.913   0.078
  266TIP3    H122433   0.384   0.874   0.113
  266TIP3    H222434   0.280   0.980   0.143
  267TIP3   OH222435   4.739   5.241   7.473
  267TIP3    H122436   4.675   5.209   7.537
  267TIP3    H222437   4.824   5.230   7.517
  268TIP3   OH222438   3.965   5.140   2.428
  268TIP3    H122439   3.879   5.166   2.461
  268TIP3    H222440   3.966   5.168   2.337
  269TIP3   OH222441   1.688   3.631   8.511
  269TIP3    H122442   1.773   3.674   8.524
  269TIP3    H222443   1.700   3.577   8.433
  270TIP3   OH222444   0.809   5.713   2.254
  270TIP3    H122445   0.806   5.801   2.216
  270TIP3    H222446   0.778   5.724   2.343
  271TIP3   OH222447   4.396   2.306   8.361
  271TIP3    H122448   4.340   2.235   8.393
  271TIP3    H222449   4.335   2.368   8.320
  272TIP3   OH222450   6.312   0.045   0.140
  272TIP3    H122451   6.331  -0.047   0.120
  272TIP3    H222452   6.389   0.092   0.108
  273TIP3   OH222453   2.292   5.544   1.420
  273TIP3    H122454   2.241   5.596   1.483
  273TIP3    H222455   2.383   5.568   1.437
  274TIP3   OH222456   6.777   6.140   8.913
  274TIP3    H122457   6.849   6.186   8.956
  274TIP3    H222458   6.809   6.051   8.901
  275TIP3   OH222459   2.492   6.231   7.150
  275TIP3    H122460   2.483   6.211   7.243
  275TIP3    H222461   2.481   6.326   7.144
  276TIP3   OH222462   6.609   1.669   2.280
  276TIP3    H122463   6.555   1.747   2.265
  276TIP3    H222464   6.552   1.609   2.329
  277TIP3   OH222465   6.150   2.860   2.483
  277TIP3    H122466   6.167   2.885   2.574
  277TIP3    H222467   6.148   2.943   2.436
  278TIP3   OH222468   2.855   0.581   2.087
  278TIP3    H122469   2.877   0.499   2.043
  278TIP3    H222470   2.915   0.646   2.051
  279TIP3   OH222471   0.100   0.662   2.045
  279TIP3    H122472   0.157   0.647   1.970
  279TIP3    H222473   0.149   0.629   2.120
  280TIP3   OH222474   3.338   3.218   7.499
  280TIP3    H122475   3.363   3.127   7.517
  280TIP3    H222476   3.254   3.211   7.454
  281TIP3   OH222477   1.581   0.222   8.713
  281TIP3    H122478   1.572   0.189   8.802
  281TIP3    H222479   1.673   0.244   8.704
  282TIP3   OH222480   0.356   1.371   0.809
  282TIP3    H122481   0.263   1.387   0.798
  282TIP3    H222482   0.372   1.385   0.902
  283TIP3   OH222483   2.811   1.796   7.292
  283TIP3    H122484   2.757   1.875   7.283
  283TIP3    H222485   2.789   1.743   7.215
  284TIP3   OH222486   4.699   4.318   1.168
  284TIP3    H122487   4.794   4.326   1.161
  284TIP3    H222488   4.665   4.394   1.120
  285TIP3   OH222489   3.272   4.520   6.829
  285TIP3    H122490   3.278   4.444   6.773
  285TIP3    H222491   3.359   4.561   6.823
  286TIP3   OH222492   3.034   2.813   6.659
  286TIP3    H122493   3.022   2.871   6.734
  286TIP3    H222494   3.116   2.842   6.619
  287TIP3   OH222495   0.021   3.130   0.162
  287TIP3    H122496   0.101   3.077   0.164
  287TIP3    H222497   0.052   3.219   0.144
  288TIP3   OH222498   4.791   5.250   1.259
  288TIP3    H122499   4.791   5.164   1.303
  288TIP3    H222500   4.781   5.229   1.166
  289TIP3   OH222501   0.981   2.606   0.464
  289TIP3    H122502   1.022   2.682   0.424
  289TIP3    H222503   0.929   2.567   0.393
  290TIP3   OH222504   6.625   1.244   7.210
  290TIP3    H122505   6.569   1.280   7.142
  290TIP3    H222506   6.680   1.317   7.238
  291TIP3   OH222507   0.441   5.421   8.318
  291TIP3    H122508   0.407   5.458   8.236
  291TIP3    H222509   0.370   5.432   8.381
  292TIP3   OH222510   5.264   4.403   1.029
  292TIP3    H122511   5.235   4.485   1.071
  292TIP3    H222512   5.198   4.387   0.962
  293TIP3   OH222513   3.921   5.247   0.004
  293TIP3    H122514   3.866   5.198   0.066
  293TIP3    H222515   3.952   5.180  -0.058
  294TIP3   OH222516   5.679   1.725   7.076
  294TIP3    H122517   5.667   1.755   6.986
  294TIP3    H222518   5.616   1.777   7.127
  295TIP3   OH222519   5.131   2.760   7.428
  295TIP3    H122520   5.092   2.761   7.516
  295TIP3    H222521   5.219   2.725   7.441
  296TIP3   OH222522   2.760   4.084   8.413
  296TIP3    H122523   2.734   4.122   8.497
  296TIP3    H222524   2.791   3.996   8.435
  297TIP3   OH222525   1.910   2.147   7.944
  297TIP3    H122526   1.999   2.182   7.943
  297TIP3    H222527   1.860   2.208   7.998
  298TIP3   OH222528   4.187   0.512   8.759
  298TIP3    H122529   4.138   0.438   8.722
  298TIP3    H222530   4.122   0.581   8.769
  299TIP3   OH222531   2.988   0.797   1.182
  299TIP3    H122532   2.921   0.832   1.240
  299TIP3    H222533   3.034   0.731   1.235
  300TIP3   OH222534   5.048   6.304   0.170
  300TIP3    H122535   5.045   6.350   0.086
  300TIP3    H222536   5.105   6.359   0.225
  301TIP3   OH222537   6.056   2.707   8.539
  301TIP3    H122538   6.152   2.704   8.533
  301TIP3    H222539   6.034   2.795   8.509
  302TIP3   OH222540   3.153   1.810   1.113
  302TIP3    H122541   3.106   1.818   1.030
  302TIP3    H222542   3.099   1.859   1.175
  303TIP3   OH222543   5.376   4.221   8.797
  303TIP3    H122544   5.381   4.189   8.888
  303TIP3    H222545   5.413   4.150   8.745
  304TIP3   OH222546   0.239   3.328   0.278
  304TIP3    H122547   0.243   3.405   0.221
  304TIP3    H222548   0.288   3.261   0.231
  305TIP3   OH222549   4.951   1.859   6.738
  305TIP3    H122550   4.905   1.886   6.817
  305TIP3    H222551   4.921   1.770   6.721
  306TIP3   OH222552   5.080   2.423   8.381
  306TIP3    H122553   4.986   2.418   8.398
  306TIP3    H222554   5.120   2.413   8.468
  307TIP3   OH222555   3.331   0.215   1.197
  307TIP3    H122556   3.332   0.245   1.288
  307TIP3    H222557   3.359   0.124   1.202
  308TIP3   OH222558   5.604   4.132   2.108
  308TIP3    H122559   5.514   4.162   2.122
  308TIP3    H222560   5.632   4.175   2.027
  309TIP3   OH222561   2.607   1.653   1.566
  309TIP3    H122562   2.648   1.575   1.605
  309TIP3    H222563   2.608   1.635   1.472
  310TIP3   OH222564   4.527   2.505   8.790
  310TIP3    H122565   4.537   2.540   8.879
  310TIP3    H222566   4.441   2.465   8.790
  311TIP3   OH222567   1.573   1.173   0.183
  311TIP3    H122568   1.493   1.121   0.174
  311TIP3    H222569   1.571   1.232   0.108
  312TIP3   OH222570   3.832   1.758   1.670
  312TIP3    H122571   3.918   1.735   1.635
  312TIP3    H222572   3.770   1.722   1.606
  313TIP3   OH222573   1.121   0.680   1.021
  313TIP3    H122574   1.075   0.622   0.961
  313TIP3    H222575   1.075   0.670   1.105
  314TIP3   OH222576   3.304   0.170   8.595
  314TIP3    H122577   3.235   0.221   8.553
  314TIP3    H222578   3.335   0.226   8.666
  315TIP3   OH222579   3.167   4.373   2.209
  315TIP3    H122580   3.079   4.399   2.183
  315TIP3    H222581   3.171   4.279   2.191
  316TIP3   OH222582   6.345   4.664   0.646
  316TIP3    H122583   6.332   4.666   0.551
  316TIP3    H222584   6.291   4.737   0.679
  317TIP3   OH222585   1.872   6.532   0.391
  317TIP3    H122586   1.816   6.456   0.380
  317TIP3    H222587   1.880   6.542   0.486
  318TIP3   OH222588   5.891   3.429   7.703
  318TIP3    H122589   5.845   3.355   7.663
  318TIP3    H222590   5.821   3.482   7.742
  319TIP3   OH222591   2.037   5.914   0.948
  319TIP3    H122592   2.016   5.825   0.976
  319TIP3    H222593   2.129   5.926   0.973
  320TIP3   OH222594   5.860   0.007   1.917
  320TIP3    H122595   5.883   0.098   1.932
  320TIP3    H222596   5.806  -0.017   1.992
  321TIP3   OH222597   0.997   6.330   0.534
  321TIP3    H122598   1.055   6.274   0.585
  321TIP3    H222599   0.982   6.406   0.589
  322TIP3   OH222600   2.671   6.766   8.729
  322TIP3    H122601   2.679   6.815   8.811
  322TIP3    H222602   2.640   6.831   8.665
  323TIP3   OH222603   3.093   3.284   7.365
  323TIP3    H122604   3.149   3.313   7.293
  323TIP3    H222605   3.006   3.316   7.343
  324TIP3   OH222606   0.430   1.022   1.476
  324TIP3    H122607   0.486   1.032   1.399
  324TIP3    H222608   0.417   1.111   1.508
  325TIP3   OH222609   2.826   0.378   7.754
  325TIP3    H122610   2.834   0.466   7.717
  325TIP3    H222611   2.916   0.351   7.770
  326TIP3   OH222612   6.271   2.305   1.492
  326TIP3    H122613   6.247   2.398   1.487
  326TIP3    H222614   6.211   2.268   1.557
  327TIP3   OH222615   0.754   3.543   1.201
  327TIP3    H122616   0.776   3.450   1.193
  327TIP3    H222617   0.659   3.544   1.212
  328TIP3   OH222618   2.886   6.592   6.819
  328TIP3    H122619   2.969   6.587   6.867
  328TIP3    H222620   2.871   6.502   6.789
  329TIP3   OH222621   5.560   5.047   0.467
  329TIP3    H122622   5.573   4.952   0.467
  329TIP3    H222623   5.556   5.071   0.375
  330TIP3   OH222624   6.105   1.600   1.061
  330TIP3    H122625   6.072   1.585   1.150
  330TIP3    H222626   6.116   1.512   1.025
  331TIP3   OH222627   4.171   4.224   0.604
  331TIP3    H122628   4.122   4.188   0.678
  331TIP3    H222629   4.162   4.319   0.614
  332TIP3   OH222630   3.835   6.606   0.023
  332TIP3    H122631   3.898   6.677   0.037
  332TIP3    H222632   3.760   6.648  -0.018
  333TIP3   OH222633   5.830   6.459   7.789
  333TIP3    H122634   5.865   6.402   7.856
  333TIP3    H222635   5.791   6.400   7.724
  334TIP3   OH222636   1.985   2.844   2.155
  334TIP3    H122637   2.024   2.864   2.071
  334TIP3    H222638   2.006   2.752   2.170
  335TIP3   OH222639   5.764   1.414   8.937
  335TIP3    H122640   5.703   1.357   8.889
  335TIP3    H222641   5.762   1.497   8.889
  336TIP3   OH222642   4.160   2.917   8.373
  336TIP3    H122643   4.140   3.011   8.372
  336TIP3    H222644   4.080   2.876   8.405
  337TIP3   OH222645   5.189   6.413   7.810
  337TIP3    H122646   5.268   6.413   7.755
  337TIP3    H222647   5.134   6.482   7.774
  338TIP3   OH222648   5.505   0.323   6.696
  338TIP3    H122649   5.451   0.247   6.719
  338TIP3    H222650   5.595   0.294   6.711
  339TIP3   OH222651   5.827   5.244   2.813
  339TIP3    H122652   5.814   5.156   2.846
  339TIP3    H222653   5.910   5.273   2.851
  340TIP3   OH222654   3.438   3.901   0.870
  340TIP3    H122655   3.492   3.935   0.942
  340TIP3    H222656   3.446   3.967   0.801
  341TIP3   OH222657   1.042   2.869   1.290
  341TIP3    H122658   1.038   2.803   1.359
  341TIP3    H222659   1.134   2.894   1.285
  342TIP3   OH222660   1.776   2.738   1.008
  342TIP3    H122661   1.715   2.683   1.057
  342TIP3    H222662   1.831   2.779   1.075
  343TIP3   OH222663   5.565   4.177   1.055
  343TIP3    H122664   5.564   4.272   1.059
  343TIP3    H222665   5.474   4.151   1.067
  344TIP3   OH222666   1.879   5.426   6.496
  344TIP3    H122667   1.947   5.374   6.540
  344TIP3    H222668   1.801   5.414   6.550
  345TIP3   OH222669   2.770   5.955   1.412
  345TIP3    H122670   2.708   6.028   1.404
  345TIP3    H222671   2.786   5.948   1.506
  346TIP3   OH222672   1.580   0.564   2.164
  346TIP3    H122673   1.617   0.642   2.124
  346TIP3    H222674   1.651   0.528   2.218
  347TIP3   OH222675   4.975   3.846   6.776
  347TIP3    H122676   4.895   3.855   6.829
  347TIP3    H222677   4.956   3.775   6.716
  348TIP3   OH222678   1.562   5.666   1.913
  348TIP3    H122679   1.634   5.607   1.936
  348TIP3    H222680   1.581   5.746   1.962
  349TIP3   OH222681   6.477   0.114   7.292
  349TIP3    H122682   6.478   0.191   7.234
  349TIP3    H222683   6.521   0.143   7.371
  350TIP3   OH222684   0.253   3.193   0.855
  350TIP3    H122685   0.183   3.138   0.820
  350TIP3    H222686   0.268   3.161   0.943
  351TIP3   OH222687   0.526   3.250   8.776
  351TIP3    H122688   0.603   3.196   8.757
  351TIP3    H222689   0.455   3.188   8.789
  352TIP3   OH222690   2.881   2.456   1.785
  352TIP3    H122691   2.937   2.391   1.743
  352TIP3    H222692   2.792   2.425   1.770
  353TIP3   OH222693   2.806   0.978   8.573
  353TIP3    H122694   2.791   0.885   8.556
  353TIP3    H222695   2.720   1.013   8.594
  354TIP3   OH222696   5.377   3.316   8.645
  354TIP3    H122697   5.403   3.404   8.673
  354TIP3    H222698   5.384   3.318   8.550
  355TIP3   OH222699   4.861   4.685   7.979
  355TIP3    H122700   4.870   4.619   8.048
  355TIP3    H222701   4.897   4.643   7.901
  356TIP3   OH222702   2.966   2.155   1.042
  356TIP3    H122703   3.042   2.119   0.997
  356TIP3    H222704   3.000   2.230   1.090
  357TIP3   OH222705   5.674   1.142   6.997
  357TIP3    H122706   5.696   1.232   6.973
  357TIP3    H222707   5.580   1.135   6.978
  358TIP3   OH222708   1.644   3.661   8.978
  358TIP3    H122709   1.699   3.714   8.920
  358TIP3    H222710   1.561   3.708   8.982
  359TIP3   OH222711   4.477   5.554   7.278
  359TIP3    H122712   4.423   5.631   7.260
  359TIP3    H222713   4.566   5.583   7.263
  360TIP3   OH222714   1.837   3.858   7.254
  360TIP3    H122715   1.885   3.922   7.307
  360TIP3    H222716   1.821   3.903   7.171
  361TIP3   OH222717   0.063   0.032   1.940
  361TIP3    H122718   0.142  -0.020   1.952
  361TIP3    H222719  -0.003  -0.010   1.994
  362TIP3   OH222720   2.487   1.432   1.783
  362TIP3    H122721   2.500   1.380   1.703
  362TIP3    H222722   2.428   1.378   1.836
  363TIP3   OH222723   2.264   5.595   7.397
  363TIP3    H122724   2.209   5.644   7.335
  363TIP3    H222725   2.207   5.526   7.430
  364TIP3   OH222726   2.267   6.064   0.585
  364TIP3    H122727   2.287   6.000   0.517
  364TIP3    H222728   2.241   6.143   0.538
  365TIP3   OH222729   6.601   3.297   8.311
  365TIP3    H122730   6.689   3.268   8.287
  365TIP3    H222731   6.596   3.284   8.405
  366TIP3   OH222732   2.958   4.564   6.601
  366TIP3    H122733   2.891   4.557   6.533
  366TIP3    H222734   3.026   4.502   6.574
  367TIP3   OH222735   6.326   2.338   7.713
  367TIP3    H122736   6.326   2.430   7.739
  367TIP3    H222737   6.237   2.322   7.683
  368TIP3   OH222738   3.002   1.163   6.970
  368TIP3    H122739   3.029   1.255   6.974
  368TIP3    H222740   2.996   1.144   6.876
  369TIP3   OH222741   3.705   6.548   7.252
  369TIP3    H122742   3.753   6.546   7.334
  369TIP3    H222743   3.749   6.615   7.200
  370TIP3   OH222744   3.558   4.377   8.330
  370TIP3    H122745   3.544   4.400   8.422
  370TIP3    H222746   3.653   4.365   8.323
  371TIP3   OH222747   3.284   5.116   1.850
  371TIP3    H122748   3.190   5.125   1.864
  371TIP3    H222749   3.320   5.104   1.937
  372TIP3   OH222750   0.719   4.612   8.318
  372TIP3    H122751   0.683   4.633   8.232
  372TIP3    H222752   0.644   4.585   8.370
  373TIP3   OH222753   0.925   6.295   7.314
  373TIP3    H122754   0.843   6.305   7.362
  373TIP3    H222755   0.929   6.373   7.258
  374TIP3   OH222756   1.767   4.700   8.901
  374TIP3    H122757   1.708   4.768   8.934
  374TIP3    H222758   1.855   4.737   8.912
  375TIP3   OH222759   6.503   5.164   1.107
  375TIP3    H122760   6.490   5.220   1.184
  375TIP3    H222761   6.447   5.088   1.123
  376TIP3   OH222762   4.407   3.735   1.180
  376TIP3    H122763   4.394   3.754   1.087
  376TIP3    H222764   4.352   3.799   1.225
  377TIP3   OH222765   6.516   6.308   0.566
  377TIP3    H122766   6.432   6.295   0.522
  377TIP3    H222767   6.494   6.352   0.648
  378TIP3   OH222768   4.488   3.087   1.390
  378TIP3    H122769   4.546   3.134   1.331
  378TIP3    H222770   4.400   3.101   1.354
  379TIP3   OH222771   1.077   4.262   7.193
  379TIP3    H122772   1.159   4.246   7.241
  379TIP3    H222773   1.054   4.352   7.215
  380TIP3   OH222774   2.855   6.043   6.768
  380TIP3    H122775   2.798   6.030   6.844
  380TIP3    H222776   2.864   5.956   6.730
  381TIP3   OH222777   5.653   0.456   6.920
  381TIP3    H122778   5.707   0.529   6.891
  381TIP3    H222779   5.685   0.381   6.870
  382TIP3   OH222780   5.369   3.353   8.373
  382TIP3    H122781   5.280   3.339   8.342
  382TIP3    H222782   5.400   3.430   8.325
  383TIP3   OH222783   1.369   0.539   0.926
  383TIP3    H122784   1.298   0.569   0.869
  383TIP3    H222785   1.345   0.571   1.013
  384TIP3   OH222786   1.296   5.297   1.223
  384TIP3    H122787   1.295   5.259   1.136
  384TIP3    H222788   1.209   5.335   1.234
  385TIP3   OH222789   6.012   1.678   6.593
  385TIP3    H122790   6.075   1.748   6.607
  385TIP3    H222791   5.932   1.723   6.566
  386TIP3   OH222792   2.136   1.933   0.872
  386TIP3    H122793   2.151   2.026   0.851
  386TIP3    H222794   2.049   1.931   0.911
  387TIP3   OH222795   2.676   4.534   6.848
  387TIP3    H122796   2.771   4.536   6.853
  387TIP3    H222797   2.656   4.459   6.793
  388TIP3   OH222798   2.350   5.360   7.000
  388TIP3    H122799   2.290   5.292   7.030
  388TIP3    H222800   2.432   5.342   7.046
  389TIP3   OH222801   3.250   0.046   7.624
  389TIP3    H122802   3.272   0.072   7.535
  389TIP3    H222803   3.266   0.124   7.677
  390TIP3   OH222804   1.137   0.921   1.934
  390TIP3    H122805   1.061   0.974   1.958
  390TIP3    H222806   1.140   0.852   2.000
  391TIP3   OH222807   4.904   2.619   7.984
  391TIP3    H122808   4.839   2.588   8.048
  391TIP3    H222809   4.888   2.713   7.976
  392TIP3   OH222810   3.876   4.977   7.603
  392TIP3    H122811   3.923   5.037   7.661
  392TIP3    H222812   3.835   5.035   7.538
  393TIP3   OH222813   3.132   0.529   1.501
  393TIP3    H122814   3.181   0.580   1.437
  393TIP3    H222815   3.045   0.570   1.502
  394TIP3   OH222816   1.140   2.960   7.107
  394TIP3    H122817   1.196   2.923   7.038
  394TIP3    H222818   1.112   3.044   7.072
  395TIP3   OH222819   2.189   5.291   1.902
  395TIP3    H122820   2.236   5.234   1.840
  395TIP3    H222821   2.257   5.350   1.936
  396TIP3   OH222822   2.611   5.718   0.453
  396TIP3    H122823   2.697   5.712   0.495
  396TIP3    H222824   2.549   5.693   0.522
  397TIP3   OH222825   4.790   3.931   7.481
  397TIP3    H122826   4.709   3.980   7.468
  397TIP3    H222827   4.765   3.840   7.466
  398TIP3   OH222828   6.299   1.907   1.851
  398TIP3    H122829   6.217   1.858   1.849
  398TIP3    H222830   6.296   1.954   1.935
  399TIP3   OH222831   2.455   0.297   1.763
  399TIP3    H122832   2.472   0.325   1.673
  399TIP3    H222833   2.541   0.295   1.804
  400TIP3   OH222834   1.703   5.270   6.975
  400TIP3    H122835   1.720   5.177   6.958
  400TIP3    H222836   1.657   5.301   6.898
  401TIP3   OH222837   5.469   5.031   1.787
  401TIP3    H122838   5.437   5.101   1.731
  401TIP3    H222839   5.428   5.047   1.872
  402TIP3   OH222840   3.570   2.556   1.270
  402TIP3    H122841   3.635   2.592   1.330
  402TIP3    H222842   3.584   2.461   1.274
  403TIP3   OH222843   6.118   6.048   0.291
  403TIP3    H122844   6.205   6.026   0.324
  403TIP3    H222845   6.081   5.963   0.265
  404TIP3   OH222846   3.023   0.285   6.935
  404TIP3    H122847   3.071   0.358   6.897
  404TIP3    H222848   2.939   0.285   6.889
  405TIP3   OH222849   4.623   1.091   0.029
  405TIP3    H122850   4.698   1.053  -0.017
  405TIP3    H222851   4.589   1.157  -0.032
  406TIP3   OH222852   6.081   3.557   8.389
  406TIP3    H122853   6.154   3.598   8.436
  406TIP3    H222854   6.066   3.474   8.435
  407TIP3   OH222855   1.284   6.152   8.903
  407TIP3    H122856   1.290   6.244   8.878
  407TIP3    H222857   1.362   6.111   8.864
  408TIP3   OH222858   6.584   5.912   7.050
  408TIP3    H122859   6.582   6.001   7.014
  408TIP3    H222860   6.561   5.923   7.142
  409TIP3   OH222861   2.378   4.887   7.343
  409TIP3    H122862   2.412   4.956   7.286
  409TIP3    H222863   2.422   4.902   7.427
  410TIP3   OH222864   3.270   2.403   6.068
  410TIP3    H122865   3.210   2.477   6.064
  410TIP3    H222866   3.301   2.402   6.159
  411TIP3   OH222867   3.024   1.501   0.641
  411TIP3    H122868   3.111   1.477   0.611
  411TIP3    H222869   2.967   1.433   0.605
  412TIP3   OH222870   5.957   5.226   0.711
  412TIP3    H122871   5.960   5.142   0.757
  412TIP3    H222872   5.975   5.203   0.620
  413TIP3   OH222873   2.845   4.441   1.209
  413TIP3    H122874   2.922   4.386   1.227
  413TIP3    H222875   2.856   4.518   1.264
  414TIP3   OH222876   5.672   5.583   1.273
  414TIP3    H122877   5.735   5.592   1.345
  414TIP3    H222878   5.714   5.625   1.199
  415TIP3   OH222879   4.252   0.246   1.213
  415TIP3    H122880   4.340   0.266   1.182
  415TIP3    H222881   4.231   0.161   1.173
  416TIP3   OH222882   3.048   3.360   8.679
  416TIP3    H122883   3.112   3.368   8.750
  416TIP3    H222884   3.053   3.268   8.654
  417TIP3   OH222885   0.029   3.702   7.200
  417TIP3    H122886   0.089   3.762   7.245
  417TIP3    H222887   0.037   3.620   7.248
  418TIP3   OH222888   1.777   1.993   1.442
  418TIP3    H122889   1.744   2.056   1.506
  418TIP3    H222890   1.699   1.961   1.397
  419TIP3   OH222891   5.250   4.545   0.680
  419TIP3    H122892   5.317   4.536   0.748
  419TIP3    H222893   5.170   4.566   0.728
  420TIP3   OH222894   2.097   3.783   1.722
  420TIP3    H122895   2.170   3.787   1.783
  420TIP3    H222896   2.040   3.856   1.749
  421TIP3   OH222897   1.588   1.525   8.581
  421TIP3    H122898   1.498   1.501   8.603
  421TIP3    H222899   1.583   1.616   8.552
  422TIP3   OH222900   6.737   1.924   8.786
  422TIP3    H122901   6.787   1.857   8.740
  422TIP3    H222902   6.648   1.887   8.792
  423TIP3   OH222903   0.653   3.717   7.694
  423TIP3    H122904   0.585   3.698   7.630
  423TIP3    H222905   0.734   3.718   7.644
  424TIP3   OH222906   4.074   4.531   0.387
  424TIP3    H122907   4.093   4.462   0.451
  424TIP3    H222908   4.010   4.492   0.329
  425TIP3   OH222909   2.236   4.042   0.966
  425TIP3    H122910   2.261   3.952   0.987
  425TIP3    H222911   2.155   4.056   1.015
  426TIP3   OH222912   0.103   1.522   2.244
  426TIP3    H122913   0.091   1.602   2.295
  426TIP3    H222914   0.015   1.488   2.232
  427TIP3   OH222915   2.549   6.422   7.551
  427TIP3    H122916   2.611   6.399   7.482
  427TIP3    H222917   2.591   6.493   7.599
  428TIP3   OH222918   0.667   5.695   0.612
  428TIP3    H122919   0.638   5.716   0.523
  428TIP3    H222920   0.691   5.779   0.650
  429TIP3   OH222921   3.381   4.823   1.389
  429TIP3    H122922   3.354   4.873   1.466
  429TIP3    H222923   3.471   4.798   1.408
  430TIP3   OH222924   0.458   0.368   8.467
  430TIP3    H122925   0.504   0.328   8.541
  430TIP3    H222926   0.418   0.447   8.504
  431TIP3   OH222927   0.026   3.746   7.824
  431TIP3    H122928  -0.045   3.804   7.854
  431TIP3    H222929   0.007   3.662   7.866
  432TIP3   OH222930   2.436   0.336   0.165
  432TIP3    H122931   2.529   0.356   0.153
  432TIP3    H222932   2.399   0.415   0.204
  433TIP3   OH222933   5.313   3.310   1.799
  433TIP3    H122934   5.277   3.279   1.882
  433TIP3    H222935   5.377   3.377   1.824
  434TIP3   OH222936   1.068   0.660   7.240
  434TIP3    H122937   1.157   0.634   7.261
  434TIP3    H222938   1.052   0.738   7.294
  435TIP3   OH222939   5.338   6.141   7.817
  435TIP3    H122940   5.360   6.156   7.909
  435TIP3    H222941   5.307   6.226   7.786
  436TIP3   OH222942   0.828   6.018   6.736
  436TIP3    H122943   0.858   6.067   6.813
  436TIP3    H222944   0.738   6.049   6.722
  437TIP3   OH222945   4.908   0.945   1.887
  437TIP3    H122946   4.979   0.891   1.853
  437TIP3    H222947   4.868   0.984   1.809
  438TIP3   OH222948   3.578   0.210   6.665
  438TIP3    H122949   3.669   0.218   6.635
  438TIP3    H222950   3.526   0.222   6.585
  439TIP3   OH222951   1.777   2.238   0.990
  439TIP3    H122952   1.714   2.297   1.032
  439TIP3    H222953   1.747   2.151   1.015
  440TIP3   OH222954   4.589   2.473   7.011
  440TIP3    H122955   4.526   2.532   6.970
  440TIP3    H222956   4.674   2.501   6.977
  441TIP3   OH222957   5.740   3.616   7.017
  441TIP3    H122958   5.672   3.683   7.004
  441TIP3    H222959   5.716   3.546   6.958
  442TIP3   OH222960   5.382   3.600   0.108
  442TIP3    H122961   5.298   3.646   0.115
  442TIP3    H222962   5.393   3.559   0.194
  443TIP3   OH222963   0.609   0.283   8.680
  443TIP3    H122964   0.663   0.206   8.662
  443TIP3    H222965   0.620   0.299   8.774
  444TIP3   OH222966   2.901   6.441   0.993
  444TIP3    H122967   2.888   6.522   1.043
  444TIP3    H222968   2.916   6.374   1.060
  445TIP3   OH222969   1.193   4.475   2.695
  445TIP3    H122970   1.151   4.466   2.781
  445TIP3    H222971   1.122   4.503   2.637
  446TIP3   OH222972   1.754   5.542   2.138
  446TIP3    H122973   1.802   5.480   2.193
  446TIP3    H222974   1.774   5.627   2.175
  447TIP3   OH222975   4.718   5.904   2.196
  447TIP3    H122976   4.640   5.941   2.237
  447TIP3    H222977   4.790   5.924   2.257
  448TIP3   OH222978   1.940   0.682   0.332
  448TIP3    H122979   1.930   0.711   0.422
  448TIP3    H222980   1.884   0.741   0.281
  449TIP3   OH222981   5.504   3.895   7.764
  449TIP3    H122982   5.434   3.932   7.709
  449TIP3    H222983   5.535   3.970   7.815
  450TIP3   OH222984   6.732   3.206   1.028
  450TIP3    H122985   6.646   3.247   1.042
  450TIP3    H222986   6.716   3.142   0.958
  451TIP3   OH222987   5.187   0.177   0.039
  451TIP3    H122988   5.134   0.111  -0.007
  451TIP3    H222989   5.158   0.171   0.130
  452TIP3   OH222990   5.544   6.074   2.042
  452TIP3    H122991   5.622   6.091   2.095
  452TIP3    H222992   5.471   6.105   2.094
  453TIP3   OH222993   0.576   5.377   8.851
  453TIP3    H122994   0.573   5.452   8.910
  453TIP3    H222995   0.487   5.341   8.854
  454TIP3   OH222996   5.182   1.986   6.982
  454TIP3    H122997   5.275   1.995   6.962
  454TIP3    H222998   5.176   1.901   7.026
  455TIP3   OH222999   1.641   4.909   0.053
  455TIP3    H123000   1.610   4.848   0.120
  455TIP3    H223001   1.586   4.986   0.063
  456TIP3   OH223002   2.870   5.887   0.222
  456TIP3    H123003   2.826   5.963   0.185
  456TIP3    H223004   2.888   5.911   0.313
  457TIP3   OH223005   3.633   1.412   1.130
  457TIP3    H123006   3.547   1.422   1.089
  457TIP3    H223007   3.640   1.485   1.191
  458TIP3   OH223008   4.313   4.240   7.598
  458TIP3    H123009   4.274   4.275   7.679
  458TIP3    H223010   4.241   4.194   7.555
  459TIP3   OH223011   0.679   3.132   0.536
  459TIP3    H123012   0.620   3.165   0.604
  459TIP3    H223013   0.759   3.109   0.583
  460TIP3   OH223014   1.317   0.530   0.218
  460TIP3    H123015   1.239   0.480   0.195
  460TIP3    H223016   1.389   0.470   0.203
  461TIP3   OH223017   1.590   4.807   1.575
  461TIP3    H123018   1.572   4.901   1.577
  461TIP3    H223019   1.547   4.776   1.495
  462TIP3   OH223020   2.435   2.480   7.251
  462TIP3    H123021   2.461   2.569   7.274
  462TIP3    H223022   2.516   2.429   7.259
  463TIP3   OH223023   1.825   1.451   1.319
  463TIP3    H123024   1.735   1.428   1.293
  463TIP3    H223025   1.830   1.545   1.303
  464TIP3   OH223026   6.063   3.987   2.209
  464TIP3    H123027   6.118   3.910   2.225
  464TIP3    H223028   5.976   3.961   2.237
  465TIP3   OH223029   1.095   1.482   1.006
  465TIP3    H123030   1.010   1.511   0.973
  465TIP3    H223031   1.114   1.402   0.958
  466TIP3   OH223032   1.387   5.964   0.218
  466TIP3    H123033   1.386   6.019   0.296
  466TIP3    H223034   1.331   5.889   0.240
  467TIP3   OH223035   6.206   2.597   1.790
  467TIP3    H123036   6.263   2.614   1.866
  467TIP3    H223037   6.267   2.584   1.718
  468TIP3   OH223038   1.058   4.749   7.432
  468TIP3    H123039   1.114   4.713   7.500
  468TIP3    H223040   1.032   4.674   7.380
  469TIP3   OH223041   0.473   5.699   7.382
  469TIP3    H123042   0.530   5.748   7.323
  469TIP3    H223043   0.440   5.765   7.443
  470TIP3   OH223044   5.067   3.638   7.349
  470TIP3    H123045   4.993   3.670   7.399
  470TIP3    H223046   5.144   3.673   7.394
  471TIP3   OH223047   1.190   0.361   1.075
  471TIP3    H123048   1.202   0.323   1.162
  471TIP3    H223049   1.278   0.373   1.041
  472TIP3   OH223050   4.676   4.519   0.066
  472TIP3    H123051   4.673   4.424   0.072
  472TIP3    H223052   4.746   4.545   0.127
  473TIP3   OH223053   1.831   1.756   7.370
  473TIP3    H123054   1.739   1.748   7.395
  473TIP3    H223055   1.878   1.702   7.434
  474TIP3   OH223056   1.231   4.446   8.176
  474TIP3    H123057   1.164   4.378   8.182
  474TIP3    H223058   1.233   4.470   8.083
  475TIP3   OH223059   6.717   6.668   8.777
  475TIP3    H123060   6.751   6.725   8.708
  475TIP3    H223061   6.795   6.626   8.814
  476TIP3   OH223062   1.148   3.976   1.141
  476TIP3    H123063   1.168   4.069   1.135
  476TIP3    H223064   1.124   3.963   1.233
  477TIP3   OH223065   0.102   5.794   8.540
  477TIP3    H123066   0.053   5.712   8.527
  477TIP3    H223067   0.137   5.815   8.453
  478TIP3   OH223068   2.012   5.313   0.389
  478TIP3    H123069   1.982   5.402   0.408
  478TIP3    H223070   1.948   5.278   0.328
  479TIP3   OH223071   3.968   0.968   8.960
  479TIP3    H123072   3.944   1.041   8.902
  479TIP3    H223073   3.891   0.954   9.014
  480TIP3   OH223074   5.992   3.176   0.125
  480TIP3    H123075   5.958   3.258   0.087
  480TIP3    H223076   5.981   3.111   0.056
  481TIP3   OH223077   1.188   4.246   1.077
  481TIP3    H123078   1.129   4.253   1.002
  481TIP3    H223079   1.234   4.330   1.079
  482TIP3   OH223080   4.765   1.253   8.760
  482TIP3    H123081   4.772   1.303   8.679
  482TIP3    H223082   4.813   1.172   8.742
  483TIP3   OH223083   5.022   5.726   7.838
  483TIP3    H123084   5.025   5.821   7.844
  483TIP3    H223085   4.929   5.705   7.833
  484TIP3   OH223086   1.792   6.704   8.223
  484TIP3    H123087   1.783   6.744   8.309
  484TIP3    H223088   1.879   6.664   8.224
  485TIP3   OH223089   5.788   2.076   8.514
  485TIP3    H123090   5.787   2.148   8.451
  485TIP3    H223091   5.878   2.074   8.546
  486TIP3   OH223092   4.034   0.706   8.053
  486TIP3    H123093   3.954   0.665   8.086
  486TIP3    H223094   4.105   0.659   8.097
  487TIP3   OH223095   4.457   3.973   8.244
  487TIP3    H123096   4.405   3.893   8.251
  487TIP3    H223097   4.443   4.004   8.155
  488TIP3   OH223098   2.589   0.657   7.528
  488TIP3    H123099   2.654   0.683   7.463
  488TIP3    H223100   2.525   0.728   7.527
  489TIP3   OH223101   6.311   4.681   0.361
  489TIP3    H123102   6.392   4.659   0.316
  489TIP3    H223103   6.247   4.618   0.327
  490TIP3   OH223104   1.210   5.508   8.069
  490TIP3    H123105   1.270   5.434   8.077
  490TIP3    H223106   1.194   5.537   8.159
  491TIP3   OH223107   5.793   3.385   1.678
  491TIP3    H123108   5.805   3.425   1.764
  491TIP3    H223109   5.762   3.296   1.697
  492TIP3   OH223110   6.228   4.207   2.171
  492TIP3    H123111   6.173   4.130   2.187
  492TIP3    H223112   6.296   4.202   2.238
  493TIP3   OH223113   4.280   2.866   1.278
  493TIP3    H123114   4.251   2.955   1.296
  493TIP3    H223115   4.373   2.875   1.260
  494TIP3   OH223116   5.922   4.297   8.050
  494TIP3    H123117   5.908   4.219   8.104
  494TIP3    H223118   5.851   4.295   7.986
  495TIP3   OH223119   4.083   3.771   0.733
  495TIP3    H123120   4.001   3.766   0.684
  495TIP3    H223121   4.151   3.768   0.665
  496TIP3   OH223122   4.708   4.026   1.397
  496TIP3    H123123   4.726   3.957   1.332
  496TIP3    H223124   4.624   4.063   1.370
  497TIP3   OH223125   1.866   4.605   6.183
  497TIP3    H123126   1.795   4.583   6.122
  497TIP3    H223127   1.844   4.557   6.263
  498TIP3   OH223128   0.730   0.469   0.217
  498TIP3    H123129   0.768   0.511   0.295
  498TIP3    H223130   0.636   0.484   0.225
  499TIP3   OH223131   4.175   2.681   7.701
  499TIP3    H123132   4.109   2.739   7.737
  499TIP3    H223133   4.251   2.738   7.685
  500TIP3   OH223134   5.634   2.900   2.488
  500TIP3    H123135   5.570   2.922   2.556
  500TIP3    H223136   5.594   2.828   2.440
  501TIP3   OH223137   5.469   0.741   8.615
  501TIP3    H123138   5.544   0.684   8.630
  501TIP3    H223139   5.424   0.703   8.540
  502TIP3   OH223140   5.140   4.845   1.842
  502TIP3    H123141   5.231   4.830   1.814
  502TIP3    H223142   5.138   4.818   1.934
  503TIP3   OH223143   2.197   2.481   7.582
  503TIP3    H123144   2.264   2.445   7.639
  503TIP3    H223145   2.192   2.420   7.509
  504TIP3   OH223146   1.365   6.345   8.680
  504TIP3    H123147   1.398   6.360   8.592
  504TIP3    H223148   1.431   6.290   8.722
  505TIP3   OH223149   5.912   4.775   7.714
  505TIP3    H123150   5.956   4.704   7.761
  505TIP3    H223151   5.973   4.799   7.644
  506TIP3   OH223152   5.901   1.248   7.969
  506TIP3    H123153   5.958   1.172   7.954
  506TIP3    H223154   5.863   1.233   8.056
  507TIP3   OH223155   5.982   6.712   1.590
  507TIP3    H123156   5.982   6.797   1.546
  507TIP3    H223157   6.050   6.662   1.545
  508TIP3   OH223158   3.374   1.401   7.647
  508TIP3    H123159   3.286   1.437   7.650
  508TIP3    H223160   3.405   1.420   7.558
  509TIP3   OH223161   1.026   5.320   0.674
  509TIP3    H123162   0.949   5.373   0.659
  509TIP3    H223163   1.026   5.303   0.769
  510TIP3   OH223164   6.460   1.705   1.773
  510TIP3    H123165   6.416   1.751   1.845
  510TIP3    H223166   6.453   1.765   1.699
  511TIP3   OH223167   0.708   5.365   8.442
  511TIP3    H123168   0.637   5.354   8.378
  511TIP3    H223169   0.719   5.279   8.481
  512TIP3   OH223170   4.295   1.113   1.030
  512TIP3    H123171   4.209   1.148   1.056
  512TIP3    H223172   4.356   1.183   1.051
  513TIP3   OH223173   0.315   5.843   1.333
  513TIP3    H123174   0.406   5.864   1.312
  513TIP3    H223175   0.304   5.871   1.424
  514TIP3   OH223176   2.918   0.648   0.532
  514TIP3    H123177   2.846   0.603   0.575
  514TIP3    H223178   2.890   0.660   0.442
  515TIP3   OH223179   0.118   3.029   1.728
  515TIP3    H123180   0.157   3.110   1.694
  515TIP3    H223181   0.193   2.973   1.747
  516TIP3   OH223182   4.197   1.920   0.570
  516TIP3    H123183   4.265   1.854   0.556
  516TIP3    H223184   4.138   1.880   0.634
  517TIP3   OH223185   6.058   0.612   6.950
  517TIP3    H123186   6.149   0.584   6.939
  517TIP3    H223187   6.047   0.621   7.045
  518TIP3   OH223188   0.519   3.809   2.342
  518TIP3    H123189   0.535   3.877   2.408
  518TIP3    H223190   0.555   3.729   2.381
  519TIP3   OH223191   4.172   3.441   7.563
  519TIP3    H123192   4.140   3.525   7.595
  519TIP3    H223193   4.169   3.449   7.468
  520TIP3   OH223194   4.035   5.378   7.700
  520TIP3    H123195   4.051   5.449   7.762
  520TIP3    H223196   3.942   5.358   7.710
  521TIP3   OH223197   4.218   6.430   7.211
  521TIP3    H123198   4.312   6.440   7.194
  521TIP3    H223199   4.181   6.406   7.125
  522TIP3   OH223200   2.957   4.541   7.003
  522TIP3    H123201   2.989   4.458   6.967
  522TIP3    H223202   3.002   4.549   7.087
  523TIP3   OH223203   1.731   5.342   1.653
  523TIP3    H123204   1.821   5.337   1.686
  523TIP3    H223205   1.742   5.367   1.561
  524TIP3   OH223206   3.708   3.241   6.952
  524TIP3    H123207   3.678   3.301   6.883
  524TIP3    H223208   3.798   3.267   6.968
  525TIP3   OH223209   4.121   3.209   8.856
  525TIP3    H123210   4.186   3.168   8.913
  525TIP3    H223211   4.064   3.137   8.829
  526TIP3   OH223212   2.103   4.886   8.121
  526TIP3    H123213   2.088   4.792   8.123
  526TIP3    H223214   2.015   4.924   8.112
  527TIP3   OH223215   2.586   0.436   7.204
  527TIP3    H123216   2.648   0.505   7.181
  527TIP3    H223217   2.534   0.424   7.124
  528TIP3   OH223218   0.958   4.432   0.623
  528TIP3    H123219   0.950   4.512   0.676
  528TIP3    H223220   0.951   4.462   0.533
  529TIP3   OH223221   4.550   4.756   8.933
  529TIP3    H123222   4.588   4.676   8.970
  529TIP3    H223223   4.482   4.724   8.873
  530TIP3   OH223224   5.876   1.463   1.546
  530TIP3    H123225   5.871   1.394   1.611
  530TIP3    H223226   5.937   1.527   1.583
  531TIP3   OH223227   1.786   6.723   8.958
  531TIP3    H123228   1.746   6.641   8.929
  531TIP3    H223229   1.864   6.732   8.904
  532TIP3   OH223230   5.607   5.122   1.486
  532TIP3    H123231   5.600   5.192   1.421
  532TIP3    H223232   5.516   5.094   1.500
  533TIP3   OH223233   0.318   1.192   6.927
  533TIP3    H123234   0.359   1.123   6.875
  533TIP3    H223235   0.227   1.162   6.938
  534TIP3   OH223236   2.201   4.684   2.061
  534TIP3    H123237   2.280   4.707   2.012
  534TIP3    H223238   2.178   4.597   2.031
  535TIP3   OH223239   2.775   5.768   8.964
  535TIP3    H123240   2.850   5.784   9.021
  535TIP3    H223241   2.754   5.854   8.928
  536TIP3   OH223242   3.508   6.289   1.283
  536TIP3    H123243   3.474   6.202   1.263
  536TIP3    H223244   3.465   6.347   1.220
  537TIP3   OH223245   6.455   4.655   8.548
  537TIP3    H123246   6.372   4.614   8.523
  537TIP3    H223247   6.485   4.697   8.468
  538TIP3   OH223248   0.955   5.008   1.739
  538TIP3    H123249   0.932   4.915   1.729
  538TIP3    H223250   1.044   5.015   1.705
  539TIP3   OH223251   2.073   3.693   7.021
  539TIP3    H123252   2.137   3.675   6.953
  539TIP3    H223253   1.988   3.670   6.981
  540TIP3   OH223254   6.765   5.838   1.541
  540TIP3    H123255   6.739   5.808   1.628
  540TIP3    H223256   6.745   5.932   1.541
  541TIP3   OH223257   4.583   0.725   8.827
  541TIP3    H123258   4.524   0.667   8.875
  541TIP3    H223259   4.582   0.691   8.737
  542TIP3   OH223260   2.230   5.968   7.570
  542TIP3    H123261   2.163   5.994   7.507
  542TIP3    H223262   2.197   6.001   7.654
  543TIP3   OH223263   4.490   3.586   0.491
  543TIP3    H123264   4.501   3.550   0.579
  543TIP3    H223265   4.580   3.605   0.463
  544TIP3   OH223266   5.943   0.611   1.297
  544TIP3    H123267   5.949   0.621   1.392
  544TIP3    H223268   5.850   0.594   1.281
  545TIP3   OH223269   2.579   3.756   1.214
  545TIP3    H123270   2.665   3.714   1.202
  545TIP3    H223271   2.561   3.746   1.307
  546TIP3   OH223272   3.615   2.159   6.074
  546TIP3    H123273   3.533   2.153   6.025
  546TIP3    H223274   3.660   2.234   6.036
  547TIP3   OH223275   3.558   5.492   7.609
  547TIP3    H123276   3.473   5.528   7.585
  547TIP3    H223277   3.543   5.398   7.619
  548TIP3   OH223278   6.099   2.552   1.098
  548TIP3    H123279   6.121   2.461   1.077
  548TIP3    H223280   6.027   2.545   1.161
  549TIP3   OH223281   5.123   2.623   1.093
  549TIP3    H123282   5.075   2.676   1.157
  549TIP3    H223283   5.164   2.554   1.146
  550TIP3   OH223284   5.616   3.190   8.390
  550TIP3    H123285   5.598   3.096   8.396
  550TIP3    H223286   5.532   3.229   8.366
  551TIP3   OH223287   2.428   6.735   7.052
  551TIP3    H123288   2.505   6.789   7.070
  551TIP3    H223289   2.441   6.656   7.105
  552TIP3   OH223290   4.187   3.327   1.137
  552TIP3    H123291   4.160   3.307   1.047
  552TIP3    H223292   4.261   3.387   1.126
  553TIP3   OH223293   1.675   1.685   7.114
  553TIP3    H123294   1.593   1.667   7.069
  553TIP3    H223295   1.653   1.755   7.176
  554TIP3   OH223296   3.582   5.426   0.826
  554TIP3    H123297   3.557   5.412   0.917
  554TIP3    H223298   3.561   5.518   0.809
  555TIP3   OH223299   3.569   0.380   8.228
  555TIP3    H123300   3.561   0.409   8.319
  555TIP3    H223301   3.484   0.344   8.206
  556TIP3   OH223302   1.555   4.672   6.812
  556TIP3    H123303   1.497   4.749   6.812
  556TIP3    H223304   1.623   4.694   6.748
  557TIP3   OH223305   6.075   3.977   0.599
  557TIP3    H123306   5.984   4.004   0.608
  557TIP3    H223307   6.075   3.885   0.626
  558TIP3   OH223308   3.688   0.681   1.233
  558TIP3    H123309   3.727   0.645   1.154
  558TIP3    H223310   3.667   0.604   1.286
  559TIP3   OH223311   3.580   6.580   6.942
  559TIP3    H123312   3.642   6.591   6.870
  559TIP3    H223313   3.613   6.506   6.991
  560TIP3   OH223314   2.204   0.020   0.364
  560TIP3    H123315   2.289   0.051   0.333
  560TIP3    H223316   2.140   0.060   0.304
  561TIP3   OH223317   1.221   4.587   7.619
  561TIP3    H123318   1.216   4.495   7.596
  561TIP3    H223319   1.315   4.603   7.635
  562TIP3   OH223320   1.790   6.045   0.293
  562TIP3    H123321   1.882   6.037   0.268
  562TIP3    H223322   1.742   6.037   0.210
  563TIP3   OH223323   2.080   5.634   7.984
  563TIP3    H123324   2.005   5.598   7.936
  563TIP3    H223325   2.042   5.701   8.040
  564TIP3   OH223326   6.748   5.918   7.520
  564TIP3    H123327   6.797   5.987   7.476
  564TIP3    H223328   6.777   5.922   7.611
  565TIP3   OH223329   6.030   4.763   8.552
  565TIP3    H123330   5.989   4.725   8.630
  565TIP3    H223331   6.109   4.806   8.585
  566TIP3   OH223332   2.903   5.855   7.080
  566TIP3    H123333   2.822   5.868   7.128
  566TIP3    H223334   2.972   5.871   7.144
  567TIP3   OH223335   2.995   1.698   7.847
  567TIP3    H123336   2.976   1.791   7.839
  567TIP3    H223337   3.091   1.693   7.848
  568TIP3   OH223338   5.890   6.611   7.150
  568TIP3    H123339   5.898   6.535   7.092
  568TIP3    H223340   5.796   6.616   7.169
  569TIP3   OH223341   3.339   3.331   8.295
  569TIP3    H123342   3.382   3.412   8.269
  569TIP3    H223343   3.343   3.332   8.391
  570TIP3   OH223344   6.772   0.886   1.375
  570TIP3    H123345   6.752   0.798   1.405
  570TIP3    H223346   6.863   0.881   1.345
  571TIP3   OH223347   1.602   6.354   7.747
  571TIP3    H123348   1.570   6.299   7.819
  571TIP3    H223349   1.531   6.352   7.682
  572TIP3   OH223350   4.837   0.571   1.430
  572TIP3    H123351   4.820   0.645   1.489
  572TIP3    H223352   4.865   0.611   1.348
  573TIP3   OH223353   1.283   3.602   8.796
  573TIP3    H123354   1.370   3.580   8.762
  573TIP3    H223355   1.257   3.526   8.848
  574TIP3   OH223356   5.430   2.782   1.010
  574TIP3    H123357   5.412   2.688   1.008
  574TIP3    H223358   5.485   2.797   0.933
  575TIP3   OH223359   5.108   4.423   0.268
  575TIP3    H123360   5.201   4.414   0.289
  575TIP3    H223361   5.105   4.496   0.207
  576TIP3   OH223362   5.744   3.009   1.406
  576TIP3    H123363   5.690   2.961   1.344
  576TIP3    H223364   5.681   3.053   1.463
  577TIP3   OH223365   4.091   5.276   8.198
  577TIP3    H123366   4.072   5.343   8.263
  577TIP3    H223367   4.033   5.296   8.125
  578TIP3   OH223368   1.446   5.364   8.255
  578TIP3    H123369   1.537   5.378   8.230
  578TIP3    H223370   1.415   5.295   8.197
  579TIP3   OH223371   0.858   4.410   8.452
  579TIP3    H123372   0.895   4.478   8.508
  579TIP3    H223373   0.798   4.458   8.394
  580TIP3   OH223374   1.794   2.099   7.202
  580TIP3    H123375   1.781   2.155   7.126
  580TIP3    H223376   1.767   2.152   7.277
  581TIP3   OH223377   4.184   4.428   7.166
  581TIP3    H123378   4.166   4.437   7.259
  581TIP3    H223379   4.235   4.506   7.143
  582TIP3   OH223380   5.341   0.419   1.622
  582TIP3    H123381   5.289   0.489   1.663
  582TIP3    H223382   5.326   0.429   1.528
  583TIP3   OH223383   5.130   2.270   1.669
  583TIP3    H123384   5.120   2.360   1.639
  583TIP3    H223385   5.201   2.273   1.733
  584TIP3   OH223386   4.852   2.128   7.766
  584TIP3    H123387   4.776   2.177   7.798
  584TIP3    H223388   4.847   2.044   7.811
  585TIP3   OH223389   3.231   5.220   8.179
  585TIP3    H123390   3.223   5.233   8.084
  585TIP3    H223391   3.262   5.130   8.189
  586TIP3   OH223392   0.249   5.553   6.808
  586TIP3    H123393   0.236   5.495   6.734
  586TIP3    H223394   0.314   5.509   6.863
  587TIP3   OH223395   5.063   4.037   8.228
  587TIP3    H123396   5.053   4.066   8.137
  587TIP3    H223397   5.037   4.113   8.280
  588TIP3   OH223398   5.040   3.756   7.112
  588TIP3    H123399   5.028   3.679   7.057
  588TIP3    H223400   5.065   3.721   7.197
  589TIP3   OH223401   0.447   3.790   8.291
  589TIP3    H123402   0.527   3.807   8.241
  589TIP3    H223403   0.378   3.834   8.242
  590TIP3   OH223404   4.754   1.071   1.366
  590TIP3    H123405   4.661   1.094   1.374
  590TIP3    H223406   4.784   1.060   1.456
  591TIP3   OH223407   4.642   4.967   0.186
  591TIP3    H123408   4.682   4.920   0.113
  591TIP3    H223409   4.713   5.022   0.220
  592TIP3   OH223410   2.312   1.087   8.972
  592TIP3    H123411   2.301   1.095   9.067
  592TIP3    H223412   2.365   1.008   8.961
  593TIP3   OH223413   4.819   0.970   8.902
  593TIP3    H123414   4.896   0.965   8.959
  593TIP3    H223415   4.832   0.899   8.839
  594TIP3   OH223416   5.936   2.505   1.663
  594TIP3    H123417   5.927   2.484   1.755
  594TIP3    H223418   5.879   2.443   1.618
  595TIP3   OH223419   0.945   0.017   0.630
  595TIP3    H123420   0.915  -0.006   0.719
  595TIP3    H223421   1.040   0.010   0.635
  596TIP3   OH223422   3.468   5.576   8.372
  596TIP3    H123423   3.474   5.651   8.432
  596TIP3    H223424   3.489   5.500   8.426
  597TIP3   OH223425   0.496   1.262   1.987
  597TIP3    H123426   0.502   1.334   1.925
  597TIP3    H223427   0.586   1.243   2.012
  598TIP3   OH223428   2.946   3.490   0.506
  598TIP3    H123429   3.011   3.493   0.576
  598TIP3    H223430   2.864   3.465   0.550
  599TIP3   OH223431   3.729   1.949   0.601
  599TIP3    H123432   3.634   1.941   0.611
  599TIP3    H223433   3.764   1.914   0.682
  600TIP3   OH223434   5.908   5.129   7.614
  600TIP3    H123435   5.818   5.097   7.611
  600TIP3    H223436   5.932   5.141   7.522
  601TIP3   OH223437   5.556   1.331   1.285
  601TIP3    H123438   5.474   1.300   1.322
  601TIP3    H223439   5.624   1.291   1.339
  602TIP3   OH223440   2.709   3.700   6.550
  602TIP3    H123441   2.788   3.646   6.545
  602TIP3    H223442   2.637   3.638   6.540
  603TIP3   OH223443   0.290   0.198   1.371
  603TIP3    H123444   0.359   0.218   1.307
  603TIP3    H223445   0.223   0.265   1.355
  604TIP3   OH223446   3.847   0.237   0.813
  604TIP3    H123447   3.802   0.309   0.858
  604TIP3    H223448   3.833   0.161   0.869
  605TIP3   OH223449   1.935   0.832   8.654
  605TIP3    H123450   1.894   0.861   8.735
  605TIP3    H223451   2.029   0.840   8.669
  606TIP3   OH223452   2.822   4.388   0.189
  606TIP3    H123453   2.799   4.298   0.214
  606TIP3    H223454   2.807   4.390   0.094
  607TIP3   OH223455   3.440   1.880   1.225
  607TIP3    H123456   3.359   1.844   1.189
  607TIP3    H223457   3.427   1.881   1.319
  608TIP3   OH223458   0.537   4.587   8.906
  608TIP3    H123459   0.511   4.514   8.961
  608TIP3    H223460   0.622   4.562   8.870
  609TIP3   OH223461   5.596   4.103   2.612
  609TIP3    H123462   5.567   4.164   2.544
  609TIP3    H223463   5.567   4.017   2.582
  610TIP3   OH223464   0.002   0.293   0.383
  610TIP3    H123465   0.092   0.261   0.390
  610TIP3    H223466   0.008   0.374   0.332
  611TIP3   OH223467   5.198   3.364   1.350
  611TIP3    H123468   5.124   3.308   1.326
  611TIP3    H223469   5.179   3.391   1.440
  612TIP3   OH223470   3.462   2.360   2.152
  612TIP3    H123471   3.483   2.432   2.211
  612TIP3    H223472   3.496   2.282   2.197
  613TIP3   OH223473   4.531   1.485   7.552
  613TIP3    H123474   4.494   1.404   7.518
  613TIP3    H223475   4.549   1.538   7.474
  614TIP3   OH223476   4.805   1.889   0.820
  614TIP3    H123477   4.828   1.846   0.903
  614TIP3    H223478   4.778   1.817   0.763
  615TIP3   OH223479   1.562   6.064   8.429
  615TIP3    H123480   1.543   6.146   8.474
  615TIP3    H223481   1.656   6.069   8.410
  616TIP3   OH223482   4.538   5.433   6.550
  616TIP3    H123483   4.532   5.382   6.470
  616TIP3    H223484   4.625   5.415   6.585
  617TIP3   OH223485   2.920   4.203   6.583
  617TIP3    H123486   2.913   4.254   6.664
  617TIP3    H223487   2.853   4.240   6.526
  618TIP3   OH223488   1.836   3.950   0.504
  618TIP3    H123489   1.905   4.009   0.536
  618TIP3    H223490   1.851   3.945   0.410
  619TIP3   OH223491   4.863   1.266   1.186
  619TIP3    H123492   4.860   1.241   1.278
  619TIP3    H223493   4.786   1.322   1.174
  620TIP3   OH223494   2.705   1.433   2.205
  620TIP3    H123495   2.701   1.513   2.258
  620TIP3    H223496   2.642   1.374   2.247
  621TIP3   OH223497   2.782   2.140   6.971
  621TIP3    H123498   2.769   2.084   6.895
  621TIP3    H223499   2.761   2.228   6.940
  622TIP3   OH223500   6.106   1.830   8.316
  622TIP3    H123501   6.161   1.907   8.328
  622TIP3    H223502   6.115   1.808   8.223
  623TIP3   OH223503   5.496   5.695   7.427
  623TIP3    H123504   5.446   5.615   7.440
  623TIP3    H223505   5.457   5.758   7.488
  624TIP3   OH223506   6.235   0.450   0.003
  624TIP3    H123507   6.257   0.446   0.096
  624TIP3    H223508   6.287   0.380  -0.037
  625TIP3   OH223509   3.018   3.371   1.063
  625TIP3    H123510   3.032   3.391   1.155
  625TIP3    H223511   2.944   3.425   1.036
  626TIP3   OH223512   4.868   0.781   1.621
  626TIP3    H123513   4.957   0.777   1.657
  626TIP3    H223514   4.848   0.875   1.616
  627TIP3   OH223515   4.679   1.991   8.001
  627TIP3    H123516   4.664   1.908   8.046
  627TIP3    H223517   4.617   1.990   7.928
  628TIP3   OH223518   1.316   5.607   1.738
  628TIP3    H123519   1.363   5.524   1.740
  628TIP3    H223520   1.266   5.608   1.820
  629TIP3   OH223521   2.789   2.698   0.365
  629TIP3    H123522   2.854   2.631   0.347
  629TIP3    H223523   2.707   2.661   0.333
  630TIP3   OH223524   6.685   6.165   2.354
  630TIP3    H123525   6.759   6.215   2.318
  630TIP3    H223526   6.695   6.077   2.316
  631TIP3   OH223527   0.304   0.524   1.904
  631TIP3    H123528   0.274   0.436   1.926
  631TIP3    H223529   0.399   0.516   1.893
  632TIP3   OH223530   1.230   2.101   1.660
  632TIP3    H123531   1.182   2.024   1.692
  632TIP3    H223532   1.305   2.108   1.719
  633TIP3   OH223533   5.136   1.946   7.693
  633TIP3    H123534   5.101   1.907   7.773
  633TIP3    H223535   5.085   1.906   7.622
  634TIP3   OH223536   0.136   4.935   7.719
  634TIP3    H123537   0.056   4.921   7.768
  634TIP3    H223538   0.144   5.030   7.712
  635TIP3   OH223539   5.582   2.302   1.635
  635TIP3    H123540   5.658   2.288   1.691
  635TIP3    H223541   5.619   2.313   1.547
  636TIP3   OH223542   1.126   0.942   8.885
  636TIP3    H123543   1.138   1.031   8.919
  636TIP3    H223544   1.164   0.945   8.797
  637TIP3   OH223545   3.806   4.645   7.761
  637TIP3    H123546   3.822   4.717   7.823
  637TIP3    H223547   3.729   4.600   7.796
  638TIP3   OH223548   4.821   1.202   8.047
  638TIP3    H123549   4.901   1.208   7.995
  638TIP3    H223550   4.829   1.118   8.093
  639TIP3   OH223551   3.055   5.459   8.141
  639TIP3    H123552   3.104   5.386   8.104
  639TIP3    H223553   3.047   5.438   8.234
  640TIP3   OH223554   0.897   0.426   8.584
  640TIP3    H123555   0.881   0.332   8.586
  640TIP3    H223556   0.984   0.434   8.545
  641TIP3   OH223557   5.170   6.719   0.191
  641TIP3    H123558   5.236   6.730   0.259
  641TIP3    H223559   5.105   6.660   0.231
  642TIP3   OH223560   2.878   1.551   6.987
  642TIP3    H123561   2.792   1.528   7.020
  642TIP3    H223562   2.861   1.618   6.920
  643TIP3   OH223563   2.903   0.111   0.649
  643TIP3    H123564   2.859   0.064   0.720
  643TIP3    H223565   2.921   0.198   0.686
  644TIP3   OH223566   2.597   0.421   8.887
  644TIP3    H123567   2.678   0.463   8.916
  644TIP3    H223568   2.528   0.465   8.936
  645TIP3   OH223569   5.412   5.448   7.523
  645TIP3    H123570   5.507   5.437   7.529
  645TIP3    H223571   5.383   5.447   7.614
  646TIP3   OH223572   0.690   1.598   0.759
  646TIP3    H123573   0.604   1.606   0.717
  646TIP3    H223574   0.739   1.674   0.728
  647TIP3   OH223575   5.561   0.860   2.211
  647TIP3    H123576   5.618   0.919   2.262
  647TIP3    H223577   5.526   0.799   2.275
  648TIP3   OH223578   3.476   5.909   7.789
  648TIP3    H123579   3.501   5.828   7.834
  648TIP3    H223580   3.480   5.977   7.856
  649TIP3   OH223581   2.885   4.131   1.602
  649TIP3    H123582   2.806   4.149   1.551
  649TIP3    H223583   2.903   4.038   1.586
  650TIP3   OH223584   1.141   4.278   7.923
  650TIP3    H123585   1.184   4.288   7.838
  650TIP3    H223586   1.148   4.184   7.942
  651TIP3   OH223587   5.874   4.581   8.748
  651TIP3    H123588   5.793   4.574   8.798
  651TIP3    H223589   5.939   4.533   8.799
  652TIP3   OH223590   0.741   1.097   8.402
  652TIP3    H123591   0.706   1.149   8.329
  652TIP3    H223592   0.792   1.028   8.359
  653TIP3   OH223593   5.673   2.235   7.356
  653TIP3    H123594   5.713   2.183   7.287
  653TIP3    H223595   5.635   2.171   7.416
  654TIP3   OH223596   2.700   1.156   6.782
  654TIP3    H123597   2.694   1.234   6.727
  654TIP3    H223598   2.700   1.189   6.872
  655TIP3   OH223599   1.702   5.453   8.099
  655TIP3    H123600   1.750   5.377   8.065
  655TIP3    H223601   1.770   5.509   8.138
  656TIP3   OH223602   6.159   1.130   2.593
  656TIP3    H123603   6.139   1.217   2.559
  656TIP3    H223604   6.255   1.123   2.587
  657TIP3   OH223605   0.730   4.672   1.255
  657TIP3    H123606   0.810   4.707   1.296
  657TIP3    H223607   0.659   4.711   1.305
  658TIP3   OH223608   0.294   5.960   2.397
  658TIP3    H123609   0.270   6.029   2.335
  658TIP3    H223610   0.304   6.006   2.481
  659TIP3   OH223611   4.939   1.419   0.590
  659TIP3    H123612   4.947   1.358   0.516
  659TIP3    H223613   4.870   1.480   0.564
  660TIP3   OH223614   6.651   3.983   8.374
  660TIP3    H123615   6.629   4.076   8.376
  660TIP3    H223616   6.729   3.975   8.430
  661TIP3   OH223617   3.395   2.519   7.023
  661TIP3    H123618   3.362   2.606   7.043
  661TIP3    H223619   3.376   2.506   6.930
  662TIP3   OH223620   0.848   4.248   1.087
  662TIP3    H123621   0.882   4.240   0.998
  662TIP3    H223622   0.922   4.281   1.138
  663TIP3   OH223623   4.932   0.549   7.951
  663TIP3    H123624   5.020   0.510   7.958
  663TIP3    H223625   4.883   0.488   7.895
  664TIP3   OH223626   5.762   1.977   1.803
  664TIP3    H123627   5.671   2.007   1.796
  664TIP3    H223628   5.757   1.901   1.861
  665TIP3   OH223629   0.022   5.590   8.117
  665TIP3    H123630   0.030   5.667   8.060
  665TIP3    H223631  -0.060   5.549   8.091
  666TIP3   OH223632   1.718   5.768   8.008
  666TIP3    H123633   1.796   5.768   7.952
  666TIP3    H223634   1.681   5.680   7.997
  667TIP3   OH223635   1.311   5.375   0.557
  667TIP3    H123636   1.243   5.377   0.625
  667TIP3    H223637   1.373   5.443   0.584
  668TIP3   OH223638   5.788   5.881   1.484
  668TIP3    H123639   5.873   5.837   1.483
  668TIP3    H223640   5.725   5.811   1.503
  669TIP3   OH223641   0.823   5.094   1.477
  669TIP3    H123642   0.848   5.100   1.569
  669TIP3    H223643   0.800   5.001   1.465
  670TIP3   OH223644   4.030   3.820   8.244
  670TIP3    H123645   3.950   3.844   8.197
  670TIP3    H223646   4.065   3.903   8.275
  671TIP3   OH223647   1.883   4.560   1.149
  671TIP3    H123648   1.909   4.601   1.232
  671TIP3    H223649   1.900   4.627   1.083
  672TIP3   OH223650   2.361   0.203   1.381
  672TIP3    H123651   2.301   0.201   1.456
  672TIP3    H223652   2.417   0.279   1.398
  673TIP3   OH223653   2.915   2.579   1.119
  673TIP3    H123654   2.909   2.486   1.095
  673TIP3    H223655   2.888   2.582   1.210
  674TIP3   OH223656   4.382   3.866   8.635
  674TIP3    H123657   4.402   3.842   8.545
  674TIP3    H223658   4.286   3.859   8.641
  675TIP3   OH223659   4.077   2.475   7.844
  675TIP3    H123660   4.000   2.450   7.792
  675TIP3    H223661   4.128   2.531   7.786
  676TIP3   OH223662   6.296   0.974   0.044
  676TIP3    H123663   6.265   1.049  -0.006
  676TIP3    H223664   6.308   0.904  -0.020
  677TIP3   OH223665   3.123   2.206   8.363
  677TIP3    H123666   3.095   2.259   8.438
  677TIP3    H223667   3.211   2.236   8.342
  678TIP3   OH223668   3.538   3.143   8.218
  678TIP3    H123669   3.579   3.168   8.135
  678TIP3    H223670   3.476   3.213   8.237
  679TIP3   OH223671   6.411   4.062   0.003
  679TIP3    H123672   6.482   4.108  -0.041
  679TIP3    H223673   6.422   3.970  -0.023
  680TIP3   OH223674   0.574   6.287   1.317
  680TIP3    H123675   0.551   6.210   1.370
  680TIP3    H223676   0.506   6.291   1.251
  681TIP3   OH223677   3.450   1.283   0.658
  681TIP3    H123678   3.481   1.204   0.614
  681TIP3    H223679   3.529   1.324   0.694
  682TIP3   OH223680   1.026   5.812   8.543
  682TIP3    H123681   0.986   5.749   8.482
  682TIP3    H223682   1.087   5.862   8.489
  683TIP3   OH223683   2.481   6.696   6.458
  683TIP3    H123684   2.494   6.601   6.459
  683TIP3    H223685   2.392   6.708   6.490
  684TIP3   OH223686   4.505   4.236   1.895
  684TIP3    H123687   4.506   4.175   1.969
  684TIP3    H223688   4.590   4.279   1.899
  685TIP3   OH223689   3.666   2.633   7.144
  685TIP3    H123690   3.739   2.611   7.085
  685TIP3    H223691   3.589   2.597   7.101
  686TIP3   OH223692   1.124   3.206   0.311
  686TIP3    H123693   1.176   3.242   0.382
  686TIP3    H223694   1.034   3.227   0.334
  687TIP3   OH223695   6.617   1.513   8.458
  687TIP3    H123696   6.575   1.471   8.533
  687TIP3    H223697   6.701   1.543   8.492
  688TIP3   OH223698   4.380   5.084   1.872
  688TIP3    H123699   4.390   5.179   1.877
  688TIP3    H223700   4.362   5.058   1.962
  689TIP3   OH223701   5.121   5.434   0.114
  689TIP3    H123702   5.040   5.385   0.104
  689TIP3    H223703   5.188   5.379   0.073
  690TIP3   OH223704   5.002   5.090   7.380
  690TIP3    H123705   5.023   5.060   7.469
  690TIP3    H223706   5.086   5.115   7.342
  691TIP3   OH223707   1.082   5.954   7.651
  691TIP3    H123708   1.107   6.012   7.723
  691TIP3    H223709   1.144   5.881   7.657
  692TIP3   OH223710   0.169   3.645   0.215
  692TIP3    H123711   0.121   3.658   0.133
  692TIP3    H223712   0.208   3.730   0.233
  693TIP3   OH223713   6.426   2.729   8.357
  693TIP3    H123714   6.403   2.670   8.284
  693TIP3    H223715   6.358   2.796   8.355
  694TIP3   OH223716   4.325   2.653   0.114
  694TIP3    H123717   4.284   2.726   0.162
  694TIP3    H223718   4.319   2.579   0.175
  695TIP3   OH223719   4.209   4.778   0.483
  695TIP3    H123720   4.231   4.848   0.421
  695TIP3    H223721   4.196   4.700   0.428
  696TIP3   OH223722   5.500   3.761   8.039
  696TIP3    H123723   5.435   3.799   8.097
  696TIP3    H223724   5.479   3.796   7.952
  697TIP3   OH223725   0.514   1.596   1.030
  697TIP3    H123726   0.435   1.586   1.083
  697TIP3    H223727   0.548   1.507   1.020
  698TIP3   OH223728   5.641   4.802   8.554
  698TIP3    H123729   5.704   4.770   8.491
  698TIP3    H223730   5.555   4.779   8.517
  699TIP3   OH223731   6.656   3.386   1.628
  699TIP3    H123732   6.702   3.468   1.646
  699TIP3    H223733   6.664   3.374   1.533
  700TIP3   OH223734   2.913   3.109   8.004
  700TIP3    H123735   2.993   3.135   8.049
  700TIP3    H223736   2.850   3.179   8.022
  701TIP3   OH223737   6.722   1.101   0.033
  701TIP3    H123738   6.686   1.024  -0.012
  701TIP3    H223739   6.645   1.147   0.066
  702TIP3   OH223740   0.515   3.827   2.082
  702TIP3    H123741   0.514   3.839   2.177
  702TIP3    H223742   0.463   3.748   2.068
  703TIP3   OH223743   4.874   0.456   7.083
  703TIP3    H123744   4.812   0.389   7.055
  703TIP3    H223745   4.939   0.408   7.134
  704TIP3   OH223746   5.157   2.837   8.008
  704TIP3    H123747   5.138   2.753   8.048
  704TIP3    H223748   5.071   2.871   7.982
  705TIP3   OH223749   1.779   2.129   0.535
  705TIP3    H123750   1.855   2.102   0.484
  705TIP3    H223751   1.812   2.197   0.594
  706TIP3   OH223752   5.577   5.392   1.608
  706TIP3    H123753   5.639   5.337   1.655
  706TIP3    H223754   5.494   5.344   1.612
  707TIP3   OH223755   6.205   5.260   8.539
  707TIP3    H123756   6.187   5.352   8.518
  707TIP3    H223757   6.285   5.264   8.592
  708TIP3   OH223758   0.659   1.694   7.715
  708TIP3    H123759   0.692   1.772   7.670
  708TIP3    H223760   0.631   1.637   7.644
  709TIP3   OH223761   1.748   5.316   0.583
  709TIP3    H123762   1.718   5.248   0.523
  709TIP3    H223763   1.836   5.288   0.609
  710TIP3   OH223764   0.317   2.993   8.377
  710TIP3    H123765   0.356   3.080   8.390
  710TIP3    H223766   0.283   2.996   8.287
  711TIP3   OH223767   5.087   5.649   8.463
  711TIP3    H123768   5.173   5.643   8.503
  711TIP3    H223769   5.028   5.602   8.522
  712TIP3   OH223770   6.276   6.262   0.354
  712TIP3    H123771   6.349   6.252   0.294
  712TIP3    H223772   6.205   6.212   0.314
  713TIP3   OH223773   2.782   6.174   1.211
  713TIP3    H123774   2.728   6.253   1.199
  713TIP3    H223775   2.863   6.206   1.251
  714TIP3   OH223776   3.865   5.329   0.486
  714TIP3    H123777   3.817   5.403   0.448
  714TIP3    H223778   3.957   5.355   0.483
  715TIP3   OH223779   2.878   0.120   8.083
  715TIP3    H123780   2.915   0.036   8.111
  715TIP3    H223781   2.951   0.182   8.094
  716TIP3   OH223782   3.193   5.515   7.802
  716TIP3    H123783   3.233   5.589   7.848
  716TIP3    H223784   3.234   5.516   7.715
  717TIP3   OH223785   6.080   2.064   2.128
  717TIP3    H123786   6.174   2.049   2.120
  717TIP3    H223787   6.072   2.158   2.144
  718TIP3   OH223788   5.976   3.911   8.862
  718TIP3    H123789   6.024   3.990   8.886
  718TIP3    H223790   6.004   3.846   8.926
  719TIP3   OH223791   0.241   2.924   0.575
  719TIP3    H123792   0.200   3.011   0.567
  719TIP3    H223793   0.180   2.875   0.630
  720TIP3   OH223794   5.877   6.049   7.485
  720TIP3    H123795   5.840   5.966   7.514
  720TIP3    H223796   5.940   6.073   7.553
  721TIP3   OH223797   5.295   5.010   7.973
  721TIP3    H123798   5.276   4.916   7.974
  721TIP3    H223799   5.211   5.052   7.957
  722TIP3   OH223800   1.953   6.053   1.612
  722TIP3    H123801   2.015   6.086   1.677
  722TIP3    H223802   2.004   6.047   1.532
  723TIP3   OH223803   3.249   5.091   0.048
  723TIP3    H123804   3.340   5.066   0.066
  723TIP3    H223805   3.248   5.186   0.059
  724TIP3   OH223806   1.006   5.854   0.066
  724TIP3    H123807   1.000   5.840  -0.028
  724TIP3    H223808   1.033   5.945   0.076
  725TIP3   OH223809   2.415   2.043   0.461
  725TIP3    H123810   2.493   2.032   0.406
  725TIP3    H223811   2.450   2.045   0.551
  726TIP3   OH223812   1.923   1.180   1.270
  726TIP3    H123813   1.957   1.176   1.181
  726TIP3    H223814   1.888   1.269   1.278
  727TIP3   OH223815   1.005   4.262   0.838
  727TIP3    H123816   0.947   4.331   0.805
  727TIP3    H223817   0.977   4.183   0.792
  728TIP3   OH223818   4.345   0.112   0.020
  728TIP3    H123819   4.391   0.155  -0.052
  728TIP3    H223820   4.330   0.182   0.084
  729TIP3   OH223821   3.966   1.897   0.410
  729TIP3    H123822   4.055   1.922   0.435
  729TIP3    H223823   3.918   1.889   0.492
  730TIP3   OH223824   4.703   6.667   0.984
  730TIP3    H123825   4.713   6.586   1.035
  730TIP3    H223826   4.640   6.719   1.033
  731TIP3   OH223827   1.027   2.087   0.270
  731TIP3    H123828   1.104   2.042   0.237
  731TIP3    H223829   1.048   2.180   0.262
  732TIP3   OH223830   4.102   1.535   6.824
  732TIP3    H123831   4.017   1.546   6.782
  732TIP3    H223832   4.088   1.565   6.914
  733TIP3   OH223833   0.434   0.953   7.738
  733TIP3    H123834   0.442   1.027   7.798
  733TIP3    H223835   0.518   0.907   7.747
  734TIP3   OH223836   0.289   4.177   1.854
  734TIP3    H123837   0.336   4.098   1.828
  734TIP3    H223838   0.300   4.181   1.949
  735TIP3   OH223839   0.050   6.226   0.889
  735TIP3    H123840   0.142   6.232   0.861
  735TIP3    H223841   0.000   6.223   0.807
  736TIP3   OH223842   6.212   4.922   2.209
  736TIP3    H123843   6.217   4.894   2.118
  736TIP3    H223844   6.233   4.844   2.260
  737TIP3   OH223845   3.924   6.695   0.619
  737TIP3    H123846   3.905   6.763   0.555
  737TIP3    H223847   3.838   6.665   0.649
  738TIP3   OH223848   6.251   5.390   0.990
  738TIP3    H123849   6.344   5.411   1.005
  738TIP3    H223850   6.237   5.310   1.041
  739TIP3   OH223851   0.313   4.492   0.431
  739TIP3    H123852   0.336   4.477   0.522
  739TIP3    H223853   0.236   4.549   0.435
  740TIP3   OH223854   0.574   1.991   1.569
  740TIP3    H123855   0.529   2.072   1.547
  740TIP3    H223856   0.554   1.977   1.662
  741TIP3   OH223857   1.169   3.597   7.116
  741TIP3    H123858   1.173   3.691   7.131
  741TIP3    H223859   1.175   3.587   7.021
  742TIP3   OH223860   5.100   4.430   2.879
  742TIP3    H123861   5.017   4.433   2.831
  742TIP3    H223862   5.149   4.504   2.846
  743TIP3   OH223863   0.958   5.399   1.471
  743TIP3    H123864   0.886   5.441   1.518
  743TIP3    H223865   1.022   5.378   1.539
  744TIP3   OH223866   2.920   4.894   7.081
  744TIP3    H123867   3.012   4.881   7.103
  744TIP3    H223868   2.899   4.820   7.023
  745TIP3   OH223869   4.158   3.299   0.429
  745TIP3    H123870   4.089   3.363   0.410
  745TIP3    H223871   4.111   3.217   0.441
  746TIP3   OH223872   0.733   2.694   1.123
  746TIP3    H123873   0.664   2.679   1.058
  746TIP3    H223874   0.698   2.764   1.178
  747TIP3   OH223875   5.145   2.073   8.390
  747TIP3    H123876   5.098   2.097   8.470
  747TIP3    H223877   5.230   2.114   8.398
  748TIP3   OH223878   5.553   3.495   0.816
  748TIP3    H123879   5.483   3.539   0.866
  748TIP3    H223880   5.627   3.491   0.877
  749TIP3   OH223881   1.436   1.609   7.330
  749TIP3    H123882   1.467   1.531   7.284
  749TIP3    H223883   1.416   1.672   7.260
  750TIP3   OH223884   4.038   5.311   6.673
  750TIP3    H123885   4.044   5.347   6.762
  750TIP3    H223886   4.109   5.246   6.669
  751TIP3   OH223887   4.204   0.015   1.039
  751TIP3    H123888   4.249  -0.065   1.013
  751TIP3    H223889   4.168   0.050   0.957
  752TIP3   OH223890   5.154   0.230   8.543
  752TIP3    H123891   5.235   0.277   8.563
  752TIP3    H223892   5.167   0.143   8.580
  753TIP3   OH223893   3.022   2.593   2.250
  753TIP3    H123894   2.980   2.514   2.285
  753TIP3    H223895   2.949   2.651   2.228
  754TIP3   OH223896   4.272   4.462   0.143
  754TIP3    H123897   4.330   4.530   0.178
  754TIP3    H223898   4.257   4.403   0.217
  755TIP3   OH223899   2.871   2.870   7.828
  755TIP3    H123900   2.849   2.930   7.900
  755TIP3    H223901   2.843   2.784   7.858
  756TIP3   OH223902   1.728   0.848   0.231
  756TIP3    H123903   1.643   0.851   0.276
  756TIP3    H223904   1.765   0.935   0.242
  757TIP3   OH223905   3.086   1.418   6.883
  757TIP3    H123906   3.016   1.476   6.915
  757TIP3    H223907   3.109   1.454   6.797
  758TIP3   OH223908   4.903   0.028   7.871
  758TIP3    H123909   4.829   0.086   7.856
  758TIP3    H223910   4.976   0.087   7.889
  759TIP3   OH223911   5.845   3.443   0.384
  759TIP3    H123912   5.940   3.450   0.369
  759TIP3    H223913   5.836   3.435   0.478
  760TIP3   OH223914   5.332   1.049   7.212
  760TIP3    H123915   5.364   1.068   7.124
  760TIP3    H223916   5.410   1.047   7.267
  761TIP3   OH223917   0.722   4.276   0.738
  761TIP3    H123918   0.741   4.262   0.645
  761TIP3    H223919   0.696   4.189   0.770
  762TIP3   OH223920   4.544   1.775   1.316
  762TIP3    H123921   4.581   1.738   1.395
  762TIP3    H223922   4.538   1.869   1.334
  763TIP3   OH223923   3.732   2.562   7.924
  763TIP3    H123924   3.827   2.572   7.926
  763TIP3    H223925   3.699   2.642   7.966
  764TIP3   OH223926   0.420   4.369   0.042
  764TIP3    H123927   0.482   4.364   0.114
  764TIP3    H223928   0.402   4.277   0.020
  765TIP3   OH223929   2.787   3.764   7.736
  765TIP3    H123930   2.880   3.784   7.731
  765TIP3    H223931   2.773   3.733   7.825
  766TIP3   OH223932   6.567   0.620   8.662
  766TIP3    H123933   6.637   0.560   8.635
  766TIP3    H223934   6.558   0.681   8.589
  767TIP3   OH223935   3.908   2.160   7.514
  767TIP3    H123936   3.917   2.099   7.441
  767TIP3    H223937   3.861   2.110   7.581
  768TIP3   OH223938   6.618   6.459   1.295
  768TIP3    H123939   6.689   6.439   1.235
  768TIP3    H223940   6.640   6.412   1.375
  769TIP3   OH223941   2.078   0.193   7.961
  769TIP3    H123942   2.157   0.191   7.907
  769TIP3    H223943   2.042   0.281   7.949
  770TIP3   OH223944   0.620   4.075   7.849
  770TIP3    H123945   0.688   4.135   7.879
  770TIP3    H223946   0.644   4.055   7.759
  771TIP3   OH223947   6.310   1.779   1.021
  771TIP3    H123948   6.357   1.802   1.101
  771TIP3    H223949   6.243   1.717   1.050
  772TIP3   OH223950   0.623   6.113   6.580
  772TIP3    H123951   0.689   6.136   6.514
  772TIP3    H223952   0.540   6.122   6.535
  773TIP3   OH223953   2.972   2.104   8.138
  773TIP3    H123954   3.041   2.134   8.197
  773TIP3    H223955   2.969   2.009   8.151
  774TIP3   OH223956   0.264   2.407   1.669
  774TIP3    H123957   0.176   2.403   1.633
  774TIP3    H223958   0.266   2.488   1.719
  775TIP3   OH223959   4.851   5.073   0.302
  775TIP3    H123960   4.901   4.998   0.335
  775TIP3    H223961   4.913   5.146   0.303
  776TIP3   OH223962   0.580   0.321   0.919
  776TIP3    H123963   0.628   0.404   0.929
  776TIP3    H223964   0.526   0.334   0.841
  777TIP3   OH223965   2.351   1.528   0.748
  777TIP3    H123966   2.357   1.554   0.656
  777TIP3    H223967   2.338   1.433   0.745
  778TIP3   OH223968   3.112   5.687   7.524
  778TIP3    H123969   3.147   5.751   7.585
  778TIP3    H223970   3.165   5.608   7.537
  779TIP3   OH223971   5.898   4.366   7.568
  779TIP3    H123972   5.844   4.387   7.645
  779TIP3    H223973   5.934   4.280   7.587
  780TIP3   OH223974   4.067   2.173   0.164
  780TIP3    H123975   4.009   2.160   0.239
  780TIP3    H223976   4.049   2.262   0.134
  781TIP3   OH223977   1.506   6.021   8.824
  781TIP3    H123978   1.537   5.935   8.795
  781TIP3    H223979   1.565   6.045   8.896
  782TIP3   OH223980   3.938   4.308   0.297
  782TIP3    H123981   4.004   4.239   0.298
  782TIP3    H223982   3.886   4.290   0.219
  783TIP3   OH223983   3.140   2.801   1.206
  783TIP3    H123984   3.100   2.852   1.135
  783TIP3    H223985   3.097   2.834   1.285
  784TIP3   OH223986   6.157   4.152   8.255
  784TIP3    H123987   6.224   4.084   8.262
  784TIP3    H223988   6.206   4.234   8.262
  785TIP3   OH223989   2.656   3.948   1.547
  785TIP3    H123990   2.581   3.889   1.553
  785TIP3    H223991   2.729   3.891   1.523
  786TIP3   OH223992   1.269   3.352   6.264
  786TIP3    H123993   1.260   3.435   6.312
  786TIP3    H223994   1.179   3.323   6.249
  787TIP3   OH223995   6.296   3.209   0.423
  787TIP3    H123996   6.304   3.189   0.516
  787TIP3    H223997   6.212   3.255   0.416
  788TIP3   OH223998   5.335   6.313   8.963
  788TIP3    H123999   5.367   6.280   9.047
  788TIP3    H224000   5.386   6.392   8.947
  789TIP3   OH224001   4.703   1.133   7.023
  789TIP3    H124002   4.645   1.196   7.066
  789TIP3    H224003   4.653   1.104   6.947
  790TIP3   OH224004   6.740   3.824   8.166
  790TIP3    H124005   6.664   3.842   8.111
  790TIP3    H224006   6.723   3.871   8.247
  791TIP3   OH224007   3.367   3.613   8.516
  791TIP3    H124008   3.452   3.609   8.560
  791TIP3    H224009   3.389   3.617   8.423
  792TIP3   OH224010   2.941   5.501   6.788
  792TIP3    H124011   2.848   5.496   6.769
  792TIP3    H224012   2.980   5.544   6.711
  793TIP3   OH224013   0.511   3.199   1.188
  793TIP3    H124014   0.454   3.153   1.249
  793TIP3    H224015   0.453   3.261   1.143
  794TIP3   OH224016   1.843   6.041   8.987
  794TIP3    H124017   1.878   6.129   8.970
  794TIP3    H224018   1.749   6.055   8.998
  795TIP3   OH224019   1.736   4.183   8.127
  795TIP3    H124020   1.652   4.166   8.168
  795TIP3    H224021   1.765   4.266   8.164
  796TIP3   OH224022   1.694   0.429   2.462
  796TIP3    H124023   1.598   0.423   2.468
  796TIP3    H224024   1.723   0.433   2.553
  797TIP3   OH224025   6.711   5.745   1.806
  797TIP3    H124026   6.743   5.785   1.887
  797TIP3    H224027   6.669   5.664   1.834
  798TIP3   OH224028   5.182   5.970   0.458
  798TIP3    H124029   5.150   6.059   0.468
  798TIP3    H224030   5.111   5.924   0.413
  799TIP3   OH224031   2.534   2.560   1.485
  799TIP3    H124032   2.565   2.539   1.396
  799TIP3    H224033   2.528   2.475   1.528
  800TIP3   OH224034   0.089   0.864   7.405
  800TIP3    H124035   0.128   0.789   7.359
  800TIP3    H224036   0.164   0.908   7.445
  801TIP3   OH224037   0.664   5.189   7.275
  801TIP3    H124038   0.623   5.272   7.297
  801TIP3    H224039   0.641   5.174   7.184
  802TIP3   OH224040   1.318   2.672   0.391
  802TIP3    H124041   1.337   2.673   0.297
  802TIP3    H224042   1.252   2.741   0.403
  803TIP3   OH224043   6.444   1.744   8.755
  803TIP3    H124044   6.377   1.738   8.687
  803TIP3    H224045   6.395   1.738   8.837
  804TIP3   OH224046   1.750   3.643   6.553
  804TIP3    H124047   1.806   3.574   6.589
  804TIP3    H224048   1.810   3.716   6.538
  805TIP3   OH224049   2.275   0.166   7.120
  805TIP3    H124050   2.329   0.153   7.198
  805TIP3    H224051   2.293   0.090   7.065
  806TIP3   OH224052   5.960   5.571   8.837
  806TIP3    H124053   5.924   5.483   8.847
  806TIP3    H224054   6.022   5.580   8.909
  807TIP3   OH224055   6.288   5.944   1.463
  807TIP3    H124056   6.365   5.951   1.518
  807TIP3    H224057   6.255   6.034   1.457
  808TIP3   OH224058   5.667   5.645   1.559
  808TIP3    H124059   5.627   5.558   1.553
  808TIP3    H224060   5.740   5.633   1.621
  809TIP3   OH224061   5.097   2.359   0.751
  809TIP3    H124062   5.032   2.346   0.682
  809TIP3    H224063   5.114   2.453   0.752
  810TIP3   OH224064   5.499   0.296   0.647
  810TIP3    H124065   5.499   0.390   0.634
  810TIP3    H224066   5.585   0.267   0.617
  811TIP3   OH224067   0.179   4.398   1.445
  811TIP3    H124068   0.116   4.331   1.418
  811TIP3    H224069   0.256   4.349   1.473
  812TIP3   OH224070   2.319   3.549   7.430
  812TIP3    H124071   2.316   3.573   7.522
  812TIP3    H224072   2.250   3.602   7.389
  813TIP3   OH224073   0.742   6.702   1.139
  813TIP3    H124074   0.817   6.736   1.188
  813TIP3    H224075   0.749   6.744   1.053
  814TIP3   OH224076   2.190   3.928   0.055
  814TIP3    H124077   2.274   3.886   0.033
  814TIP3    H224078   2.128   3.891  -0.008
  815TIP3   OH224079   3.499   0.437   6.507
  815TIP3    H124080   3.501   0.512   6.448
  815TIP3    H224081   3.420   0.389   6.482
  816TIP3   OH224082   4.718   3.323   8.951
  816TIP3    H124083   4.752   3.397   8.899
  816TIP3    H224084   4.659   3.278   8.891
  817TIP3   OH224085   4.237   0.100   7.607
  817TIP3    H124086   4.212   0.173   7.551
  817TIP3    H224087   4.281   0.038   7.548
  818TIP3   OH224088   4.177   0.626   7.541
  818TIP3    H124089   4.093   0.588   7.564
  818TIP3    H224090   4.158   0.683   7.466
  819TIP3   OH224091   5.466   4.468   0.851
  819TIP3    H124092   5.422   4.479   0.935
  819TIP3    H224093   5.503   4.379   0.855
  820TIP3   OH224094   5.710   1.861   8.372
  820TIP3    H124095   5.621   1.845   8.404
  820TIP3    H224096   5.745   1.927   8.431
  821TIP3   OH224097   0.756   2.840   6.149
  821TIP3    H124098   0.749   2.910   6.213
  821TIP3    H224099   0.708   2.767   6.188
  822TIP3   OH224100   0.859   5.713   7.965
  822TIP3    H124101   0.892   5.740   8.052
  822TIP3    H224102   0.848   5.618   7.972
  823TIP3   OH224103   6.543   0.614   0.801
  823TIP3    H124104   6.604   0.665   0.748
  823TIP3    H224105   6.502   0.554   0.738
  824TIP3   OH224106   2.837   6.371   1.836
  824TIP3    H124107   2.914   6.314   1.830
  824TIP3    H224108   2.851   6.422   1.916
  825TIP3   OH224109   5.342   3.707   1.747
  825TIP3    H124110   5.301   3.783   1.790
  825TIP3    H224111   5.433   3.733   1.734
  826TIP3   OH224112   1.517   6.359   8.981
  826TIP3    H124113   1.587   6.404   8.933
  826TIP3    H224114   1.442   6.418   8.974
  827TIP3   OH224115   1.456   4.867   0.323
  827TIP3    H124116   1.410   4.869   0.407
  827TIP3    H224117   1.419   4.940   0.274
  828TIP3   OH224118   6.636   5.325   0.278
  828TIP3    H124119   6.556   5.374   0.298
  828TIP3    H224120   6.681   5.379   0.213
  829TIP3   OH224121   4.978   6.347   8.124
  829TIP3    H124122   4.920   6.407   8.078
  829TIP3    H224123   5.032   6.308   8.056
  830TIP3   OH224124   6.146   3.022   7.047
  830TIP3    H124125   6.239   3.045   7.036
  830TIP3    H224126   6.115   3.003   6.959
  831TIP3   OH224127   5.750   4.368   0.903
  831TIP3    H124128   5.814   4.437   0.919
  831TIP3    H224129   5.801   4.287   0.909
  832TIP3   OH224130   1.149   1.197   0.862
  832TIP3    H124131   1.120   1.118   0.816
  832TIP3    H224132   1.204   1.165   0.933
  833TIP3   OH224133   0.735   3.388   8.314
  833TIP3    H124134   0.712   3.473   8.275
  833TIP3    H224135   0.802   3.408   8.378
  834TIP3   OH224136   1.434   3.729   7.708
  834TIP3    H124137   1.435   3.781   7.789
  834TIP3    H224138   1.489   3.778   7.647
  835TIP3   OH224139   4.967   2.582   1.897
  835TIP3    H124140   4.897   2.602   1.834
  835TIP3    H224141   4.941   2.630   1.976
  836TIP3   OH224142   4.133   2.248   1.770
  836TIP3    H124143   4.067   2.220   1.707
  836TIP3    H224144   4.156   2.337   1.744
  837TIP3   OH224145   4.381   1.067   6.902
  837TIP3    H124146   4.364   1.131   6.972
  837TIP3    H224147   4.331   1.099   6.828
  838TIP3   OH224148   6.108   3.915   0.145
  838TIP3    H124149   6.022   3.943   0.176
  838TIP3    H224150   6.169   3.944   0.213
  839TIP3   OH224151   3.863   4.835   7.261
  839TIP3    H124152   3.873   4.783   7.341
  839TIP3    H224153   3.829   4.773   7.196
  840TIP3   OH224154   0.779   1.066   8.825
  840TIP3    H124155   0.733   0.982   8.832
  840TIP3    H224156   0.866   1.043   8.791
  841TIP3   OH224157   5.182   0.593   7.732
  841TIP3    H124158   5.097   0.613   7.692
  841TIP3    H224159   5.232   0.674   7.723
  842TIP3   OH224160   5.626   2.408   8.210
  842TIP3    H124161   5.579   2.328   8.188
  842TIP3    H224162   5.706   2.379   8.255
  843TIP3   OH224163   6.428   5.852   8.030
  843TIP3    H124164   6.367   5.785   7.999
  843TIP3    H224165   6.424   5.920   7.963
  844TIP3   OH224166   1.489   3.345   7.965
  844TIP3    H124167   1.408   3.317   8.007
  844TIP3    H224168   1.464   3.368   7.876
  845TIP3   OH224169   4.736   4.658   7.272
  845TIP3    H124170   4.767   4.679   7.184
  845TIP3    H224171   4.663   4.598   7.259
  846TIP3   OH224172   1.727   2.055   7.518
  846TIP3    H124173   1.776   1.976   7.496
  846TIP3    H224174   1.720   2.053   7.613
  847TIP3   OH224175   2.992   4.765   7.974
  847TIP3    H124176   3.042   4.685   7.991
  847TIP3    H224177   2.903   4.734   7.959
  848TIP3   OH224178   0.343   4.185   0.880
  848TIP3    H124179   0.255   4.190   0.843
  848TIP3    H224180   0.394   4.137   0.815
  849TIP3   OH224181   3.350   1.738   7.470
  849TIP3    H124182   3.399   1.808   7.427
  849TIP3    H224183   3.371   1.660   7.419
  850TIP3   OH224184   4.917   5.380   7.897
  850TIP3    H124185   4.950   5.447   7.956
  850TIP3    H224186   4.837   5.347   7.939
  851TIP3   OH224187   1.743   3.059   2.184
  851TIP3    H124188   1.734   3.109   2.264
  851TIP3    H224189   1.838   3.044   2.175
  852TIP3   OH224190   0.280   5.160   0.521
  852TIP3    H124191   0.337   5.135   0.594
  852TIP3    H224192   0.339   5.176   0.448
  853TIP3   OH224193   3.027   0.632   7.912
  853TIP3    H124194   3.103   0.667   7.960
  853TIP3    H224195   2.962   0.701   7.917
  854TIP3   OH224196   5.474   2.076   7.010
  854TIP3    H124197   5.497   2.055   6.919
  854TIP3    H224198   5.547   2.127   7.043
  855TIP3   OH224199   3.583   6.370   2.293
  855TIP3    H124200   3.583   6.275   2.284
  855TIP3    H224201   3.669   6.391   2.330
  856TIP3   OH224202   4.081   4.972   7.133
  856TIP3    H124203   4.034   4.957   7.051
  856TIP3    H224204   4.035   4.918   7.198
  857TIP3   OH224205   6.619   6.532   0.221
  857TIP3    H124206   6.678   6.488   0.283
  857TIP3    H224207   6.634   6.486   0.138
  858TIP3   OH224208   1.146   5.374   1.664
  858TIP3    H124209   1.113   5.385   1.754
  858TIP3    H224210   1.240   5.359   1.675
  859TIP3   OH224211   6.395   5.701   0.954
  859TIP3    H124212   6.424   5.672   1.041
  859TIP3    H224213   6.438   5.641   0.893
  860TIP3   OH224214   2.505   0.784   0.776
  860TIP3    H124215   2.599   0.800   0.781
  860TIP3    H224216   2.492   0.704   0.827
  861TIP3   OH224217   6.752   1.253   6.576
  861TIP3    H124218   6.823   1.193   6.556
  861TIP3    H224219   6.715   1.220   6.658
  862TIP3   OH224220   5.540   0.837   6.760
  862TIP3    H124221   5.474   0.906   6.753
  862TIP3    H224222   5.624   0.883   6.756
  863TIP3   OH224223   5.374   2.420   8.462
  863TIP3    H124224   5.336   2.426   8.550
  863TIP3    H224225   5.355   2.331   8.433
  864TIP3   OH224226   6.235   3.943   1.561
  864TIP3    H124227   6.176   3.868   1.561
  864TIP3    H224228   6.240   3.970   1.469
  865TIP3   OH224229   3.443   5.150   0.727
  865TIP3    H124230   3.513   5.107   0.679
  865TIP3    H224231   3.363   5.115   0.688
  866TIP3   OH224232   4.122   5.280   0.724
  866TIP3    H124233   4.119   5.185   0.725
  866TIP3    H224234   4.163   5.302   0.641
  867TIP3   OH224235   1.563   2.613   8.108
  867TIP3    H124236   1.485   2.614   8.053
  867TIP3    H224237   1.629   2.659   8.056
  868TIP3   OH224238   0.827   1.870   0.229
  868TIP3    H124239   0.815   1.850   0.136
  868TIP3    H224240   0.888   1.944   0.230
  869TIP3   OH224241   3.358   3.120   0.117
  869TIP3    H124242   3.342   3.214   0.131
  869TIP3    H224243   3.271   3.081   0.118
  870TIP3   OH224244   1.739   4.824   0.606
  870TIP3    H124245   1.812   4.809   0.546
  870TIP3    H224246   1.673   4.760   0.579
  871TIP3   OH224247   6.483   5.113   7.307
  871TIP3    H124248   6.554   5.166   7.344
  871TIP3    H224249   6.513   5.092   7.219
  872TIP3   OH224250   3.773   0.063   8.038
  872TIP3    H124251   3.817   0.115   7.971
  872TIP3    H224252   3.680   0.081   8.026
  873TIP3   OH224253   5.594   5.672   8.947
  873TIP3    H124254   5.569   5.609   8.879
  873TIP3    H224255   5.515   5.723   8.963
  874TIP3   OH224256   0.039   0.913   2.183
  874TIP3    H124257   0.037   0.943   2.092
  874TIP3    H224258   0.052   0.819   2.177
  875TIP3   OH224259   0.277   0.785   6.831
  875TIP3    H124260   0.297   0.830   6.749
  875TIP3    H224261   0.187   0.808   6.851
  876TIP3   OH224262   2.700   5.972   8.287
  876TIP3    H124263   2.698   6.065   8.311
  876TIP3    H224264   2.622   5.960   8.233
  877TIP3   OH224265   6.447   0.466   1.479
  877TIP3    H124266   6.406   0.451   1.564
  877TIP3    H224267   6.509   0.394   1.468
  878TIP3   OH224268   4.268   5.194   7.040
  878TIP3    H124269   4.344   5.155   6.997
  878TIP3    H224270   4.217   5.120   7.070
  879TIP3   OH224271   4.108   2.350   0.478
  879TIP3    H124272   4.190   2.309   0.451
  879TIP3    H224273   4.044   2.322   0.412
  880TIP3   OH224274   1.390   5.195   0.810
  880TIP3    H124275   1.325   5.266   0.804
  880TIP3    H224276   1.474   5.238   0.794
  881TIP3   OH224277   0.843   2.284   1.583
  881TIP3    H124278   0.833   2.244   1.497
  881TIP3    H224279   0.863   2.211   1.642
  882TIP3   OH224280   4.166   1.796   7.413
  882TIP3    H124281   4.129   1.785   7.500
  882TIP3    H224282   4.110   1.863   7.372
  883TIP3   OH224283   0.949   5.562   6.917
  883TIP3    H124284   0.872   5.538   6.865
  883TIP3    H224285   0.978   5.645   6.880
  884TIP3   OH224286   0.087   0.344   1.154
  884TIP3    H124287   0.154   0.288   1.116
  884TIP3    H224288   0.009   0.327   1.101
  885TIP3   OH224289   0.144   2.840   8.777
  885TIP3    H124290   0.186   2.820   8.860
  885TIP3    H224291   0.112   2.930   8.787
  886TIP3   OH224292   6.199   0.071   6.661
  886TIP3    H124293   6.136   0.137   6.690
  886TIP3    H224294   6.243   0.111   6.586
  887TIP3   OH224295   0.851   5.932   6.005
  887TIP3    H124296   0.870   5.852   5.956
  887TIP3    H224297   0.796   5.983   5.946
  888TIP3   OH224298   6.120   0.137   8.372
  888TIP3    H124299   6.037   0.133   8.419
  888TIP3    H224300   6.186   0.120   8.439
  889TIP3   OH224301   0.304   5.608   8.922
  889TIP3    H124302   0.326   5.665   8.848
  889TIP3    H224303   0.279   5.525   8.881
  890TIP3   OH224304   3.206   0.878   0.979
  890TIP3    H124305   3.132   0.888   1.038
  890TIP3    H224306   3.179   0.808   0.919
  891TIP3   OH224307   1.458   4.919   0.737
  891TIP3    H124308   1.546   4.908   0.700
  891TIP3    H224309   1.436   5.010   0.720
  892TIP3   OH224310   5.934   6.057   0.553
  892TIP3    H124311   5.935   6.067   0.458
  892TIP3    H224312   5.940   6.146   0.586
  893TIP3   OH224313   4.442   6.787   0.426
  893TIP3    H124314   4.401   6.864   0.465
  893TIP3    H224315   4.471   6.735   0.501
  894TIP3   OH224316   4.423   4.609   0.362
  894TIP3    H124317   4.430   4.656   0.446
  894TIP3    H224318   4.480   4.533   0.373
  895TIP3   OH224319   1.426   5.131   0.476
  895TIP3    H124320   1.340   5.100   0.446
  895TIP3    H224321   1.407   5.214   0.521
  896TIP3   OH224322   3.910   2.149   6.870
  896TIP3    H124323   3.887   2.124   6.780
  896TIP3    H224324   3.995   2.191   6.863
  897TIP3   OH224325   0.316   1.676   1.469
  897TIP3    H124326   0.401   1.702   1.505
  897TIP3    H224327   0.294   1.745   1.407
  898TIP3   OH224328   2.322   2.957   0.853
  898TIP3    H124329   2.234   2.919   0.848
  898TIP3    H224330   2.355   2.951   0.763
  899TIP3   OH224331   3.574   3.334   1.296
  899TIP3    H124332   3.610   3.246   1.307
  899TIP3    H224333   3.481   3.320   1.279
  900TIP3   OH224334   3.569   6.117   7.934
  900TIP3    H124335   3.660   6.103   7.958
  900TIP3    H224336   3.566   6.208   7.904
  901TIP3   OH224337   1.021   6.672   8.350
  901TIP3    H124338   1.099   6.727   8.342
  901TIP3    H224339   0.973   6.688   8.269
  902TIP3   OH224340   5.685   3.173   0.970
  902TIP3    H124341   5.739   3.099   0.997
  902TIP3    H224342   5.728   3.249   1.010
  903TIP3   OH224343   6.537   4.734   8.300
  903TIP3    H124344   6.632   4.727   8.298
  903TIP3    H224345   6.519   4.820   8.262
  904TIP3   OH224346   5.271   2.698   6.496
  904TIP3    H124347   5.341   2.762   6.483
  904TIP3    H224348   5.310   2.614   6.473
  905TIP3   OH224349   2.413   5.252   0.834
  905TIP3    H124350   2.491   5.284   0.880
  905TIP3    H224351   2.356   5.220   0.904
  906TIP3   OH224352   5.264   4.049   8.529
  906TIP3    H124353   5.339   4.098   8.495
  906TIP3    H224354   5.188   4.096   8.496
  907TIP3   OH224355   2.000   2.009   1.648
  907TIP3    H124356   1.997   1.918   1.619
  907TIP3    H224357   1.908   2.035   1.657
  908TIP3   OH224358   4.269   5.004   1.108
  908TIP3    H124359   4.296   4.933   1.166
  908TIP3    H224360   4.288   4.972   1.020
  909TIP3   OH224361   1.432   0.130   6.763
  909TIP3    H124362   1.433   0.055   6.704
  909TIP3    H224363   1.517   0.173   6.750
  910TIP3   OH224364   5.852   3.176   8.516
  910TIP3    H124365   5.805   3.171   8.599
  910TIP3    H224366   5.785   3.197   8.451
  911TIP3   OH224367   5.161   4.693   8.574
  911TIP3    H124368   5.103   4.637   8.523
  911TIP3    H224369   5.120   4.779   8.571
  912TIP3   OH224370   3.538   0.438   0.458
  912TIP3    H124371   3.476   0.423   0.387
  912TIP3    H224372   3.530   0.360   0.513
  913TIP3   OH224373   6.389   6.265   8.670
  913TIP3    H124374   6.458   6.202   8.693
  913TIP3    H224375   6.434   6.349   8.664
  914TIP3   OH224376   0.481   2.550   0.718
  914TIP3    H124377   0.529   2.556   0.635
  914TIP3    H224378   0.408   2.492   0.700
  915TIP3   OH224379   5.089   0.306   6.745
  915TIP3    H124380   5.118   0.312   6.654
  915TIP3    H224381   4.993   0.312   6.741
  916TIP3   OH224382   0.223   0.637   0.371
  916TIP3    H124383   0.201   0.623   0.463
  916TIP3    H224384   0.164   0.708   0.343
  917TIP3   OH224385   0.936   0.280   0.264
  917TIP3    H124386   0.862   0.341   0.253
  917TIP3    H224387   0.996   0.302   0.192
  918TIP3   OH224388   3.608   3.427   6.761
  918TIP3    H124389   3.658   3.499   6.722
  918TIP3    H224390   3.520   3.437   6.724
  919TIP3   OH224391   6.534   6.631   1.509
  919TIP3    H124392   6.580   6.570   1.566
  919TIP3    H224393   6.550   6.597   1.421
  920TIP3   OH224394   6.371   1.333   8.968
  920TIP3    H124395   6.369   1.425   8.944
  920TIP3    H224396   6.387   1.287   8.886
  921TIP3   OH224397   6.506   6.042   0.515
  921TIP3    H124398   6.412   6.037   0.499
  921TIP3    H224399   6.523   6.135   0.529
  922TIP3   OH224400   0.283   6.786   7.775
  922TIP3    H124401   0.281   6.800   7.680
  922TIP3    H224402   0.191   6.785   7.801
  923TIP3   OH224403   2.602   0.842   1.241
  923TIP3    H124404   2.692   0.861   1.269
  923TIP3    H224405   2.548   0.864   1.317
  924TIP3   OH224406   2.573   4.591   0.474
  924TIP3    H124407   2.665   4.593   0.500
  924TIP3    H224408   2.536   4.518   0.523
  925TIP3   OH224409   0.063   4.062   0.564
  925TIP3    H124410   0.130   4.007   0.604
  925TIP3    H224411  -0.008   4.001   0.542
  926TIP3   OH224412   1.444   3.854   1.606
  926TIP3    H124413   1.517   3.807   1.566
  926TIP3    H224414   1.441   3.822   1.697
  927TIP3   OH224415   3.703   1.452   0.109
  927TIP3    H124416   3.650   1.423   0.035
  927TIP3    H224417   3.743   1.534   0.080
  928TIP3   OH224418   0.882   1.582   6.391
  928TIP3    H124419   0.951   1.648   6.400
  928TIP3    H224420   0.828   1.592   6.470
  929TIP3   OH224421   1.472   2.109   0.803
  929TIP3    H124422   1.434   2.156   0.729
  929TIP3    H224423   1.550   2.066   0.768
  930TIP3   OH224424   4.383   5.498   0.956
  930TIP3    H124425   4.462   5.448   0.934
  930TIP3    H224426   4.324   5.434   0.996
  931TIP3   OH224427   1.313   2.212   0.586
  931TIP3    H124428   1.382   2.229   0.522
  931TIP3    H224429   1.236   2.257   0.551
  932TIP3   OH224430   5.316   5.359   0.386
  932TIP3    H124431   5.309   5.436   0.443
  932TIP3    H224432   5.238   5.307   0.408
  933TIP3   OH224433   4.417   3.655   7.386
  933TIP3    H124434   4.457   3.572   7.359
  933TIP3    H224435   4.358   3.631   7.458
  934TIP3   OH224436   4.230   5.874   8.956
  934TIP3    H124437   4.223   5.822   8.876
  934TIP3    H224438   4.273   5.954   8.929
  935TIP3   OH224439   0.336   4.933   6.616
  935TIP3    H124440   0.368   5.009   6.568
  935TIP3    H224441   0.261   4.966   6.665
  936TIP3   OH224442   6.054   3.554   7.019
  936TIP3    H124443   6.016   3.554   7.107
  936TIP3    H224444   5.979   3.538   6.961
  937TIP3   OH224445   0.522   5.280   0.799
  937TIP3    H124446   0.493   5.342   0.733
  937TIP3    H224447   0.596   5.235   0.760
  938TIP3   OH224448   0.636   4.312   8.236
  938TIP3    H124449   0.649   4.217   8.244
  938TIP3    H224450   0.547   4.326   8.268
  939TIP3   OH224451   6.635   3.045   7.511
  939TIP3    H124452   6.606   3.019   7.598
  939TIP3    H224453   6.677   3.131   7.525
  940TIP3   OH224454   0.624   0.712   0.672
  940TIP3    H124455   0.641   0.686   0.762
  940TIP3    H224456   0.626   0.630   0.622
  941TIP3   OH224457   3.125   3.680   8.909
  941TIP3    H124458   3.197   3.697   8.970
  941TIP3    H224459   3.071   3.614   8.953
  942TIP3   OH224460   4.693   6.480   1.220
  942TIP3    H124461   4.748   6.474   1.298
  942TIP3    H224462   4.723   6.410   1.163
  943TIP3   OH224463   4.082   3.572   8.350
  943TIP3    H124464   4.051   3.652   8.307
  943TIP3    H224465   4.076   3.505   8.282
  944TIP3   OH224466   5.564   1.967   7.264
  944TIP3    H124467   5.491   2.011   7.219
  944TIP3    H224468   5.525   1.935   7.346
  945TIP3   OH224469   2.396   2.151   1.210
  945TIP3    H124470   2.318   2.179   1.163
  945TIP3    H224471   2.452   2.112   1.142
  946TIP3   OH224472   3.879   0.358   8.264
  946TIP3    H124473   3.785   0.345   8.275
  946TIP3    H224474   3.887   0.417   8.189
  947TIP3   OH224475   2.151   6.536   0.314
  947TIP3    H124476   2.063   6.558   0.342
  947TIP3    H224477   2.181   6.614   0.266
  948TIP3   OH224478   6.500   4.338   0.451
  948TIP3    H124479   6.595   4.331   0.436
  948TIP3    H224480   6.460   4.287   0.380
  949TIP3   OH224481   4.858   3.604   0.094
  949TIP3    H124482   4.810   3.534   0.138
  949TIP3    H224483   4.795   3.676   0.088
  950TIP3   OH224484   5.923   4.824   1.661
  950TIP3    H124485   5.851   4.833   1.723
  950TIP3    H224486   5.893   4.871   1.583
  951TIP3   OH224487   4.872   3.716   8.084
  951TIP3    H124488   4.964   3.737   8.076
  951TIP3    H224489   4.858   3.703   8.178
  952TIP3   OH224490   4.634   4.599   1.153
  952TIP3    H124491   4.699   4.669   1.146
  952TIP3    H224492   4.639   4.571   1.244
  953TIP3   OH224493   1.173   5.692   1.463
  953TIP3    H124494   1.262   5.710   1.430
  953TIP3    H224495   1.187   5.632   1.536
  954TIP3   OH224496   1.996   5.260   1.458
  954TIP3    H124497   1.982   5.279   1.550
  954TIP3    H224498   1.941   5.183   1.440
  955TIP3   OH224499   3.750   4.650   8.111
  955TIP3    H124500   3.733   4.570   8.061
  955TIP3    H224501   3.670   4.663   8.162
  956TIP3   OH224502   2.709   5.327   8.213
  956TIP3    H124503   2.781   5.298   8.157
  956TIP3    H224504   2.645   5.364   8.153
  957TIP3   OH224505   0.232   2.599   7.540
  957TIP3    H124506   0.175   2.651   7.483
  957TIP3    H224507   0.311   2.584   7.488
  958TIP3   OH224508   1.373   4.433   1.790
  958TIP3    H124509   1.320   4.375   1.844
  958TIP3    H224510   1.464   4.408   1.811
  959TIP3   OH224511   5.351   1.966   0.010
  959TIP3    H124512   5.415   1.900  -0.016
  959TIP3    H224513   5.314   1.933   0.092
  960TIP3   OH224514   4.371   3.735   8.374
  960TIP3    H124515   4.451   3.683   8.383
  960TIP3    H224516   4.310   3.678   8.326
  961TIP3   OH224517   3.847   4.730   7.517
  961TIP3    H124518   3.850   4.660   7.583
  961TIP3    H224519   3.881   4.807   7.563
  962TIP3   OH224520   4.542   5.095   1.111
  962TIP3    H124521   4.448   5.092   1.127
  962TIP3    H224522   4.580   5.048   1.185
  963TIP3   OH224523   6.466   3.846   8.806
  963TIP3    H124524   6.557   3.856   8.779
  963TIP3    H224525   6.416   3.901   8.746
  964TIP3   OH224526   2.043   1.680   1.853
  964TIP3    H124527   1.955   1.717   1.846
  964TIP3    H224528   2.087   1.736   1.918
  965TIP3   OH224529   2.228   5.302   6.724
  965TIP3    H124530   2.273   5.229   6.680
  965TIP3    H224531   2.283   5.321   6.800
  966TIP3   OH224532   5.884   4.231   1.225
  966TIP3    H124533   5.904   4.176   1.301
  966TIP3    H224534   5.799   4.269   1.246
  967TIP3   OH224535   6.713   5.313   0.750
  967TIP3    H124536   6.650   5.375   0.714
  967TIP3    H224537   6.795   5.333   0.703
  968TIP3   OH224538   0.485   5.626   1.533
  968TIP3    H124539   0.392   5.651   1.543
  968TIP3    H224540   0.530   5.680   1.598
  969TIP3   OH224541   3.218   1.873   7.247
  969TIP3    H124542   3.289   1.930   7.218
  969TIP3    H224543   3.250   1.785   7.231
  970TIP3   OH224544   0.245   3.012   6.963
  970TIP3    H124545   0.259   3.104   6.983
  970TIP3    H224546   0.180   3.011   6.893
  971TIP3   OH224547   5.032   3.170   7.359
  971TIP3    H124548   5.006   3.131   7.276
  971TIP3    H224549   5.040   3.263   7.341
  972TIP3   OH224550   3.151   2.557   0.959
  972TIP3    H124551   3.224   2.544   1.020
  972TIP3    H224552   3.077   2.578   1.016
  973TIP3   OH224553   3.954   5.733   0.866
  973TIP3    H124554   3.905   5.653   0.846
  973TIP3    H224555   4.022   5.704   0.926
  974TIP3   OH224556   6.571   2.692   8.891
  974TIP3    H124557   6.607   2.776   8.918
  974TIP3    H224558   6.503   2.673   8.956
  975TIP3   OH224559   0.949   3.513   8.434
  975TIP3    H124560   0.993   3.440   8.477
  975TIP3    H224561   0.991   3.518   8.348
  976TIP3   OH224562   3.533   1.319   1.429
  976TIP3    H124563   3.546   1.384   1.498
  976TIP3    H224564   3.510   1.238   1.475
  977TIP3   OH224565   4.437   6.127   8.896
  977TIP3    H124566   4.509   6.189   8.883
  977TIP3    H224567   4.478   6.050   8.935
  978TIP3   OH224568   2.312   1.270   1.908
  978TIP3    H124569   2.227   1.311   1.891
  978TIP3    H224570   2.292   1.200   1.970
  979TIP3   OH224571   1.767   4.948   7.829
  979TIP3    H124572   1.811   4.934   7.912
  979TIP3    H224573   1.819   5.016   7.785
  980TIP3   OH224574   5.548   5.954   6.973
  980TIP3    H124575   5.604   5.883   6.943
  980TIP3    H224576   5.525   6.002   6.893
  981TIP3   OH224577   5.458   0.752   1.007
  981TIP3    H124578   5.437   0.836   1.049
  981TIP3    H224579   5.389   0.693   1.036
  982TIP3   OH224580   0.201   1.556   8.987
  982TIP3    H124581   0.267   1.585   8.924
  982TIP3    H224582   0.216   1.610   9.065
  983TIP3   OH224583   0.944   1.650   1.513
  983TIP3    H124584   0.928   1.744   1.503
  983TIP3    H224585   0.943   1.636   1.608
  984TIP3   OH224586   0.638   1.541   8.780
  984TIP3    H124587   0.641   1.450   8.808
  984TIP3    H224588   0.636   1.536   8.684
  985TIP3   OH224589   1.058   6.540   1.696
  985TIP3    H124590   1.077   6.488   1.618
  985TIP3    H224591   0.997   6.608   1.666
  986TIP3   OH224592   1.412   3.071   0.403
  986TIP3    H124593   1.396   3.066   0.308
  986TIP3    H224594   1.389   3.161   0.426
  987TIP3   OH224595   6.099   2.873   0.335
  987TIP3    H124596   6.048   2.898   0.257
  987TIP3    H224597   6.190   2.874   0.305
  988TIP3   OH224598   6.394   0.859   7.324
  988TIP3    H124599   6.480   0.883   7.292
  988TIP3    H224600   6.378   0.772   7.288
  989TIP3   OH224601   2.972   5.069   8.306
  989TIP3    H124602   2.939   5.105   8.388
  989TIP3    H224603   3.019   5.141   8.265
  990TIP3   OH224604   4.427   2.217   6.766
  990TIP3    H124605   4.392   2.263   6.689
  990TIP3    H224606   4.514   2.256   6.779
  991TIP3   OH224607   6.557   2.384   0.195
  991TIP3    H124608   6.484   2.407   0.138
  991TIP3    H224609   6.629   2.440   0.166
  992TIP3   OH224610   6.668   1.410   0.523
  992TIP3    H124611   6.597   1.468   0.551
  992TIP3    H224612   6.628   1.322   0.522
  993TIP3   OH224613   2.658   1.570   7.170
  993TIP3    H124614   2.586   1.555   7.231
  993TIP3    H224615   2.616   1.610   7.094
  994TIP3   OH224616   5.968   5.108   8.569
  994TIP3    H124617   6.055   5.116   8.530
  994TIP3    H224618   5.945   5.197   8.595
  995TIP3   OH224619   2.089   2.936   1.043
  995TIP3    H124620   2.046   3.004   0.991
  995TIP3    H224621   2.151   2.985   1.098
  996TIP3   OH224622   5.676   0.542   8.018
  996TIP3    H124623   5.732   0.466   8.033
  996TIP3    H224624   5.718   0.589   7.946
  997TIP3   OH224625   6.576   6.468   8.667
  997TIP3    H124626   6.610   6.558   8.674
  997TIP3    H224627   6.653   6.412   8.675
  998TIP3   OH224628   3.443   6.621   7.614
  998TIP3    H124629   3.358   6.652   7.645
  998TIP3    H224630   3.439   6.526   7.622
  999TIP3   OH224631   5.935   5.089   1.922
  999TIP3    H124632   5.872   5.131   1.863
  999TIP3    H224633   5.887   5.015   1.960
 1000TIP3   OH224634   4.821   3.710   1.916
 1000TIP3    H124635   4.733   3.746   1.926
 1000TIP3    H224636   4.839   3.714   1.822
 1001TIP3   OH224637   5.652   3.179   1.820
 1001TIP3    H124638   5.626   3.097   1.862
 1001TIP3    H224639   5.646   3.244   1.890
 1002TIP3   OH224640   4.449   5.484   0.536
 1002TIP3    H124641   4.455   5.404   0.484
 1002TIP3    H224642   4.380   5.535   0.493
 1003TIP3   OH224643   5.854   2.966   6.771
 1003TIP3    H124644   5.798   2.896   6.736
 1003TIP3    H224645   5.800   3.044   6.768
 1004TIP3   OH224646   5.190   2.938   8.285
 1004TIP3    H124647   5.210   2.904   8.198
 1004TIP3    H224648   5.181   3.033   8.273
 1005TIP3   OH224649   4.055   5.095   6.314
 1005TIP3    H124650   3.974   5.049   6.337
 1005TIP3    H224651   4.057   5.094   6.218
 1006TIP3   OH224652   3.164   3.044   8.863
 1006TIP3    H124653   3.194   3.025   8.774
 1006TIP3    H224654   3.137   2.958   8.897
 1007TIP3   OH224655   6.090   5.426   1.788
 1007TIP3    H124656   6.121   5.368   1.857
 1007TIP3    H224657   6.169   5.468   1.754
 1008TIP3   OH224658   5.943   3.248   8.203
 1008TIP3    H124659   5.892   3.173   8.172
 1008TIP3    H224660   5.992   3.277   8.125
 1009TIP3   OH224661   1.420   3.678   2.220
 1009TIP3    H124662   1.345   3.729   2.249
 1009TIP3    H224663   1.460   3.646   2.301
 1010TIP3   OH224664   5.712   5.755   0.465
 1010TIP3    H124665   5.748   5.668   0.484
 1010TIP3    H224666   5.620   5.737   0.442
 1011TIP3   OH224667   3.217   2.215   1.965
 1011TIP3    H124668   3.263   2.141   1.927
 1011TIP3    H224669   3.265   2.236   2.045
 1012TIP3   OH224670   0.568   6.035   0.341
 1012TIP3    H124671   0.492   6.084   0.372
 1012TIP3    H224672   0.531   5.964   0.289
 1013TIP3   OH224673   5.744   1.175   1.391
 1013TIP3    H124674   5.829   1.217   1.404
 1013TIP3    H224675   5.762   1.082   1.395
 1014TIP3   OH224676   3.068   6.437   7.233
 1014TIP3    H124677   3.026   6.378   7.170
 1014TIP3    H224678   3.091   6.514   7.181
 1015TIP3   OH224679   6.455   1.848   2.529
 1015TIP3    H124680   6.410   1.932   2.541
 1015TIP3    H224681   6.499   1.856   2.444
 1016TIP3   OH224682   6.025   1.346   1.853
 1016TIP3    H124683   6.075   1.422   1.881
 1016TIP3    H224684   6.077   1.309   1.782
 1017TIP3   OH224685   6.596   5.500   1.888
 1017TIP3    H124686   6.531   5.430   1.900
 1017TIP3    H224687   6.646   5.500   1.969
 1018TIP3   OH224688   0.525   3.237   0.760
 1018TIP3    H124689   0.553   3.172   0.825
 1018TIP3    H224690   0.435   3.258   0.785
 1019TIP3   OH224691   0.117   5.936   7.753
 1019TIP3    H124692   0.070   5.985   7.820
 1019TIP3    H224693   0.198   5.986   7.739
 1020TIP3   OH224694   2.573   3.254   0.280
 1020TIP3    H124695   2.535   3.333   0.319
 1020TIP3    H224696   2.655   3.240   0.328
 1021TIP3   OH224697   1.352   6.081   8.222
 1021TIP3    H124698   1.359   6.002   8.168
 1021TIP3    H224699   1.434   6.085   8.270
 1022TIP3   OH224700   1.472   5.662   0.748
 1022TIP3    H124701   1.444   5.748   0.717
 1022TIP3    H224702   1.489   5.674   0.841
 1023TIP3   OH224703   1.468   4.871   8.109
 1023TIP3    H124704   1.384   4.897   8.146
 1023TIP3    H224705   1.513   4.825   8.181
 1024TIP3   OH224706   5.560   3.511   1.507
 1024TIP3    H124707   5.627   3.454   1.545
 1024TIP3    H224708   5.565   3.591   1.559
 1025TIP3   OH224709   4.518   2.217   8.133
 1025TIP3    H124710   4.479   2.135   8.103
 1025TIP3    H224711   4.480   2.232   8.219
 1026TIP3   OH224712   4.348   5.395   8.582
 1026TIP3    H124713   4.331   5.353   8.498
 1026TIP3    H224714   4.267   5.382   8.632
 1027TIP3   OH224715   0.538   6.079   1.500
 1027TIP3    H124716   0.524   6.163   1.544
 1027TIP3    H224717   0.470   6.022   1.534
 1028TIP3   OH224718   6.580   0.170   8.181
 1028TIP3    H124719   6.648   0.159   8.248
 1028TIP3    H224720   6.607   0.247   8.132
 1029TIP3   OH224721   5.550   2.668   8.195
 1029TIP3    H124722   5.583   2.581   8.216
 1029TIP3    H224723   5.627   2.718   8.169
 1030TIP3   OH224724   3.863   3.561   1.794
 1030TIP3    H124725   3.935   3.498   1.804
 1030TIP3    H224726   3.817   3.559   1.878
 1031TIP3   OH224727   2.261   5.497   1.697
 1031TIP3    H124728   2.303   5.537   1.773
 1031TIP3    H224729   2.250   5.568   1.634
 1032TIP3   OH224730   4.023   6.611   2.310
 1032TIP3    H124731   4.078   6.569   2.244
 1032TIP3    H224732   4.079   6.678   2.350
 1033TIP3   OH224733   0.356   5.484   2.271
 1033TIP3    H124734   0.347   5.507   2.178
 1033TIP3    H224735   0.372   5.567   2.315
 1034TIP3   OH224736   2.481   5.775   0.688
 1034TIP3    H124737   2.538   5.852   0.682
 1034TIP3    H224738   2.459   5.768   0.780
 1035TIP3   OH224739   0.726   1.703   6.590
 1035TIP3    H124740   0.649   1.692   6.645
 1035TIP3    H224741   0.733   1.797   6.576
 1036TIP3   OH224742   3.501   1.644   8.091
 1036TIP3    H124743   3.451   1.564   8.105
 1036TIP3    H224744   3.522   1.643   7.998
 1037TIP3   OH224745   2.280   4.219   0.314
 1037TIP3    H124746   2.320   4.213   0.401
 1037TIP3    H224747   2.281   4.312   0.293
 1038TIP3   OH224748   3.410   2.374   0.267
 1038TIP3    H124749   3.429   2.332   0.351
 1038TIP3    H224750   3.391   2.465   0.288
 1039TIP3   OH224751   0.441   2.307   7.816
 1039TIP3    H124752   0.370   2.344   7.764
 1039TIP3    H224753   0.469   2.230   7.767
 1040TIP3   OH224754   2.323   1.060   7.492
 1040TIP3    H124755   2.276   1.020   7.418
 1040TIP3    H224756   2.296   1.009   7.568
 1041TIP3   OH224757   4.153   0.028   0.354
 1041TIP3    H124758   4.175   0.116   0.323
 1041TIP3    H224759   4.237  -0.019   0.355
 1042TIP3   OH224760   4.831   6.448   1.468
 1042TIP3    H124761   4.763   6.405   1.519
 1042TIP3    H224762   4.913   6.419   1.508
 1043TIP3   OH224763   3.432   4.066   0.659
 1043TIP3    H124764   3.409   4.050   0.567
 1043TIP3    H224765   3.522   4.098   0.656
 1044TIP3   OH224766   4.756   5.737   6.796
 1044TIP3    H124767   4.678   5.706   6.749
 1044TIP3    H224768   4.733   5.826   6.823
 1045TIP3   OH224769   1.033   4.430   1.591
 1045TIP3    H124770   0.945   4.439   1.628
 1045TIP3    H224771   1.088   4.484   1.647
 1046TIP3   OH224772   4.582   3.839   1.906
 1046TIP3    H124773   4.550   3.914   1.957
 1046TIP3    H224774   4.625   3.878   1.830
 1047TIP3   OH224775   2.619   0.688   2.107
 1047TIP3    H124776   2.597   0.692   2.200
 1047TIP3    H224777   2.713   0.674   2.105
 1048TIP3   OH224778   1.641   5.729   2.484
 1048TIP3    H124779   1.723   5.770   2.457
 1048TIP3    H224780   1.586   5.734   2.405
 1049TIP3   OH224781   6.389   5.329   7.461
 1049TIP3    H124782   6.381   5.263   7.393
 1049TIP3    H224783   6.392   5.412   7.414
 1050TIP3   OH224784   1.177   2.976   0.165
 1050TIP3    H124785   1.171   3.034   0.242
 1050TIP3    H224786   1.262   2.997   0.127
 1051TIP3   OH224787   1.580   5.429   0.256
 1051TIP3    H124788   1.583   5.457   0.347
 1051TIP3    H224789   1.672   5.417   0.232
 1052TIP3   OH224790   2.498   6.774   1.280
 1052TIP3    H124791   2.458   6.850   1.323
 1052TIP3    H224792   2.442   6.700   1.305
 1053TIP3   OH224793   4.207   4.727   1.916
 1053TIP3    H124794   4.297   4.755   1.903
 1053TIP3    H224795   4.215   4.639   1.954
 1054TIP3   OH224796   0.517   3.249   8.434
 1054TIP3    H124797   0.568   3.302   8.373
 1054TIP3    H224798   0.579   3.223   8.501
 1055TIP3   OH224799   5.555   2.929   8.453
 1055TIP3    H124800   5.557   2.833   8.457
 1055TIP3    H224801   5.497   2.954   8.525
 1056TIP3   OH224802   0.659   5.709   6.902
 1056TIP3    H124803   0.704   5.786   6.866
 1056TIP3    H224804   0.588   5.746   6.954
 1057TIP3   OH224805   3.471   0.971   7.069
 1057TIP3    H124806   3.378   0.970   7.092
 1057TIP3    H224807   3.508   0.896   7.115
 1058TIP3   OH224808   2.518   3.156   7.044
 1058TIP3    H124809   2.505   3.191   7.132
 1058TIP3    H224810   2.479   3.221   6.986
 1059TIP3   OH224811   5.849   6.551   1.774
 1059TIP3    H124812   5.853   6.616   1.845
 1059TIP3    H224813   5.899   6.591   1.703
 1060TIP3   OH224814   2.552   0.510   8.620
 1060TIP3    H124815   2.578   0.482   8.708
 1060TIP3    H224816   2.462   0.541   8.630
 1061TIP3   OH224817   1.291   1.673   1.062
 1061TIP3    H124818   1.245   1.723   1.130
 1061TIP3    H224819   1.242   1.592   1.054
 1062TIP3   OH224820   0.073   2.454   0.497
 1062TIP3    H124821   0.126   2.389   0.450
 1062TIP3    H224822  -0.013   2.450   0.454
 1063TIP3   OH224823   6.201   0.344   8.654
 1063TIP3    H124824   6.161   0.312   8.735
 1063TIP3    H224825   6.291   0.313   8.658
 1064TIP3   OH224826   3.530   1.474   8.887
 1064TIP3    H124827   3.615   1.461   8.845
 1064TIP3    H224828   3.498   1.557   8.850
 1065TIP3   OH224829   6.545   2.374   8.826
 1065TIP3    H124830   6.456   2.406   8.810
 1065TIP3    H224831   6.533   2.292   8.874
 1066TIP3   OH224832   1.899   5.838   1.820
 1066TIP3    H124833   1.987   5.867   1.840
 1066TIP3    H224834   1.848   5.858   1.899
 1067TIP3   OH224835   3.911   5.698   1.539
 1067TIP3    H124836   3.872   5.622   1.583
 1067TIP3    H224837   3.920   5.672   1.448
 1068TIP3   OH224838   1.552   1.869   1.345
 1068TIP3    H124839   1.546   1.800   1.280
 1068TIP3    H224840   1.483   1.931   1.321
 1069TIP3   OH224841   1.236   5.238   0.274
 1069TIP3    H124842   1.280   5.295   0.338
 1069TIP3    H224843   1.155   5.212   0.317
 1070TIP3   OH224844   1.274   3.319   8.508
 1070TIP3    H124845   1.325   3.273   8.575
 1070TIP3    H224846   1.314   3.293   8.425
 1071TIP3   OH224847   1.653   5.140   1.001
 1071TIP3    H124848   1.693   5.075   0.943
 1071TIP3    H224849   1.616   5.089   1.072
 1072TIP3   OH224850   1.430   6.093   0.683
 1072TIP3    H124851   1.406   6.106   0.591
 1072TIP3    H224852   1.521   6.063   0.680
 1073TIP3   OH224853   0.411   6.046   1.824
 1073TIP3    H124854   0.324   6.058   1.785
 1073TIP3    H224855   0.397   5.986   1.897
 1074TIP3   OH224856   6.494   6.636   7.809
 1074TIP3    H124857   6.451   6.632   7.894
 1074TIP3    H224858   6.423   6.651   7.747
 1075TIP3   OH224859   2.561   2.523   7.826
 1075TIP3    H124860   2.471   2.507   7.856
 1075TIP3    H224861   2.610   2.446   7.857
 1076TIP3   OH224862   5.420   5.709   6.924
 1076TIP3    H124863   5.413   5.703   7.020
 1076TIP3    H224864   5.513   5.716   6.907
 1077TIP3   OH224865   3.824   0.744   0.849
 1077TIP3    H124866   3.766   0.669   0.864
 1077TIP3    H224867   3.765   0.813   0.817
 1078TIP3   OH224868   0.368   5.792   0.156
 1078TIP3    H124869   0.321   5.733   0.098
 1078TIP3    H224870   0.453   5.750   0.169
 1079TIP3   OH224871   2.359   2.963   6.727
 1079TIP3    H124872   2.344   3.052   6.759
 1079TIP3    H224873   2.450   2.945   6.748
 1080TIP3   OH224874   1.383   2.033   1.077
 1080TIP3    H124875   1.302   2.026   1.027
 1080TIP3    H224876   1.452   2.037   1.011
 1081TIP3   OH224877   1.212   1.532   0.227
 1081TIP3    H124878   1.278   1.538   0.296
 1081TIP3    H224879   1.150   1.467   0.259
 1082TIP3   OH224880   5.029   5.085   1.703
 1082TIP3    H124881   5.044   5.000   1.745
 1082TIP3    H224882   5.117   5.115   1.679
 1083TIP3   OH224883   3.074   6.786   1.856
 1083TIP3    H124884   2.987   6.779   1.895
 1083TIP3    H224885   3.131   6.737   1.916
 1084TIP3   OH224886   2.012   4.445   7.716
 1084TIP3    H124887   2.083   4.397   7.672
 1084TIP3    H224888   1.976   4.382   7.778
 1085TIP3   OH224889   0.896   6.074   8.050
 1085TIP3    H124890   0.858   6.152   8.092
 1085TIP3    H224891   0.869   6.002   8.107
 1086TIP3   OH224892   2.637   2.975   7.358
 1086TIP3    H124893   2.691   2.972   7.278
 1086TIP3    H224894   2.699   2.960   7.429
 1087TIP3   OH224895   6.292   1.141   7.701
 1087TIP3    H124896   6.346   1.207   7.744
 1087TIP3    H224897   6.355   1.074   7.673
 1088TIP3   OH224898   6.077   5.249   2.900
 1088TIP3    H124899   6.109   5.170   2.857
 1088TIP3    H224900   6.151   5.281   2.951
 1089TIP3   OH224901   3.381   4.313   8.957
 1089TIP3    H124902   3.362   4.220   8.969
 1089TIP3    H224903   3.297   4.352   8.932
 1090TIP3   OH224904   0.196   1.616   7.779
 1090TIP3    H124905   0.263   1.566   7.734
 1090TIP3    H224906   0.114   1.569   7.760
 1091TIP3   OH224907   6.328   2.064   0.921
 1091TIP3    H124908   6.289   1.978   0.904
 1091TIP3    H224909   6.422   2.050   0.910
 1092TIP3   OH224910   4.005   4.204   2.186
 1092TIP3    H124911   3.959   4.270   2.239
 1092TIP3    H224912   3.952   4.196   2.107
 1093TIP3   OH224913   3.822   4.702   7.026
 1093TIP3    H124914   3.774   4.655   6.958
 1093TIP3    H224915   3.876   4.765   6.979
 1094TIP3   OH224916   1.492   4.567   0.854
 1094TIP3    H124917   1.420   4.505   0.838
 1094TIP3    H224918   1.497   4.619   0.774
 1095TIP3   OH224919   5.049   3.812   8.438
 1095TIP3    H124920   5.036   3.896   8.393
 1095TIP3    H224921   5.144   3.801   8.440
 1096TIP3   OH224922   3.341   2.973   1.384
 1096TIP3    H124923   3.417   2.914   1.379
 1096TIP3    H224924   3.338   3.015   1.299
 1097TIP3   OH224925   4.687   4.996   0.533
 1097TIP3    H124926   4.598   4.976   0.507
 1097TIP3    H224927   4.734   5.011   0.451
 1098TIP3   OH224928   3.015   5.341   7.532
 1098TIP3    H124929   2.989   5.271   7.472
 1098TIP3    H224930   2.941   5.402   7.530
 1099TIP3   OH224931   4.460   2.306   0.831
 1099TIP3    H124932   4.494   2.298   0.919
 1099TIP3    H224933   4.367   2.285   0.839
 1100TIP3   OH224934   0.920   2.411   8.369
 1100TIP3    H124935   0.885   2.351   8.303
 1100TIP3    H224936   0.882   2.496   8.346
 1101TIP3   OH224937   2.205   1.086   1.681
 1101TIP3    H124938   2.192   1.056   1.591
 1101TIP3    H224939   2.272   1.154   1.674
 1102TIP3   OH224940   2.712   2.649   7.081
 1102TIP3    H124941   2.684   2.615   7.166
 1102TIP3    H224942   2.639   2.630   7.023
 1103TIP3   OH224943   1.210   4.342   0.536
 1103TIP3    H124944   1.269   4.283   0.583
 1103TIP3    H224945   1.125   4.330   0.579
 1104TIP3   OH224946   2.543   5.903   8.790
 1104TIP3    H124947   2.463   5.851   8.802
 1104TIP3    H224948   2.604   5.844   8.745
 1105TIP3   OH224949   4.873   2.789   0.203
 1105TIP3    H124950   4.892   2.703   0.164
 1105TIP3    H224951   4.779   2.800   0.191
 1106TIP3   OH224952   5.905   0.410   8.566
 1106TIP3    H124953   5.977   0.349   8.549
 1106TIP3    H224954   5.931   0.491   8.523
 1107TIP3   OH224955   4.527   6.032   0.795
 1107TIP3    H124956   4.445   5.997   0.829
 1107TIP3    H224957   4.593   6.007   0.859
 1108TIP3   OH224958   5.960   2.477   0.665
 1108TIP3    H124959   6.011   2.470   0.584
 1108TIP3    H224960   5.933   2.387   0.684
 1109TIP3   OH224961   5.773   6.162   1.892
 1109TIP3    H124962   5.854   6.210   1.876
 1109TIP3    H224963   5.750   6.182   1.982
 1110TIP3   OH224964   5.734   6.209   1.173
 1110TIP3    H124965   5.684   6.244   1.247
 1110TIP3    H224966   5.808   6.163   1.214
 1111TIP3   OH224967   4.053   0.228   2.347
 1111TIP3    H124968   4.082   0.138   2.363
 1111TIP3    H224969   4.134   0.276   2.330
 1112TIP3   OH224970   3.443   1.490   7.389
 1112TIP3    H124971   3.415   1.409   7.347
 1112TIP3    H224972   3.535   1.475   7.410
 1113TIP3   OH224973   4.079   6.768   1.505
 1113TIP3    H124974   4.054   6.738   1.418
 1113TIP3    H224975   4.175   6.762   1.506
 1114TIP3   OH224976   2.847   4.555   0.574
 1114TIP3    H124977   2.865   4.482   0.632
 1114TIP3    H224978   2.859   4.633   0.629
 1115TIP3   OH224979   1.587   4.669   8.683
 1115TIP3    H124980   1.659   4.657   8.744
 1115TIP3    H224981   1.577   4.765   8.677
 1116TIP3   OH224982   2.804   5.343   0.273
 1116TIP3    H124983   2.759   5.260   0.258
 1116TIP3    H224984   2.895   5.325   0.248
 1117TIP3   OH224985   2.184   0.674   1.312
 1117TIP3    H124986   2.103   0.724   1.296
 1117TIP3    H224987   2.165   0.623   1.391
 1118TIP3   OH224988   6.453   6.647   6.772
 1118TIP3    H124989   6.548   6.649   6.784
 1118TIP3    H224990   6.439   6.690   6.687
 1119TIP3   OH224991   1.605   4.305   8.722
 1119TIP3    H124992   1.621   4.328   8.631
 1119TIP3    H224993   1.603   4.210   8.724
 1120TIP3   OH224994   4.718   6.275   2.003
 1120TIP3    H124995   4.709   6.313   1.916
 1120TIP3    H224996   4.635   6.292   2.046
 1121TIP3   OH224997   4.963   5.914   7.001
 1121TIP3    H124998   4.994   5.838   7.050
 1121TIP3    H224999   5.039   5.973   6.996
 1122TIP3   OH225000   2.209   1.134   7.215
 1122TIP3    H125001   2.197   1.227   7.238
 1122TIP3    H225002   2.296   1.130   7.175
 1123TIP3   OH225003   1.635   1.129   8.432
 1123TIP3    H125004   1.714   1.077   8.444
 1123TIP3    H225005   1.665   1.220   8.435
 1124TIP3   OH225006   1.612   4.206   0.994
 1124TIP3    H125007   1.645   4.136   0.938
 1124TIP3    H225008   1.674   4.277   0.984
 1125TIP3   OH225009   2.254   0.768   8.371
 1125TIP3    H125010   2.191   0.813   8.314
 1125TIP3    H225011   2.213   0.684   8.389
 1126TIP3   OH225012   1.311   5.401   8.531
 1126TIP3    H125013   1.299   5.486   8.490
 1126TIP3    H225014   1.275   5.339   8.468
 1127TIP3   OH225015   4.846   0.936   6.412
 1127TIP3    H125016   4.764   0.903   6.450
 1127TIP3    H225017   4.866   0.874   6.342
 1128TIP3   OH225018   2.062   1.148   0.990
 1128TIP3    H125019   2.083   1.062   0.953
 1128TIP3    H225020   2.022   1.196   0.917
 1129TIP3   OH225021   1.842   4.475   2.165
 1129TIP3    H125022   1.894   4.554   2.181
 1129TIP3    H225023   1.799   4.492   2.081
 1130TIP3   OH225024   2.486   5.031   6.913
 1130TIP3    H125025   2.518   4.947   6.879
 1130TIP3    H225026   2.558   5.092   6.897
 1131TIP3   OH225027   2.436   2.919   1.569
 1131TIP3    H125028   2.377   2.920   1.644
 1131TIP3    H225029   2.380   2.899   1.494
 1132TIP3   OH225030   6.435   3.679   7.055
 1132TIP3    H125031   6.512   3.729   7.026
 1132TIP3    H225032   6.382   3.669   6.976
 1133TIP3   OH225033   3.322   2.917   0.887
 1133TIP3    H125034   3.336   2.962   0.804
 1133TIP3    H225035   3.232   2.941   0.912
 1134TIP3   OH225036   4.922   4.834   0.405
 1134TIP3    H125037   5.004   4.805   0.444
 1134TIP3    H225038   4.867   4.755   0.402
 1135TIP3   OH225039   0.442   1.167   7.888
 1135TIP3    H125040   0.385   1.221   7.942
 1135TIP3    H225041   0.527   1.211   7.891
 1136TIP3   OH225042   4.894   0.574   0.339
 1136TIP3    H125043   4.834   0.505   0.368
 1136TIP3    H225044   4.837   0.645   0.311
 1137TIP3   OH225045   6.757   0.112   0.705
 1137TIP3    H125046   6.666   0.123   0.731
 1137TIP3    H225047   6.769   0.017   0.700
 1138TIP3   OH225048   0.692   5.839   8.787
 1138TIP3    H125049   0.661   5.903   8.722
 1138TIP3    H225050   0.706   5.891   8.866
 1139TIP3   OH225051   6.585   0.670   1.837
 1139TIP3    H125052   6.531   0.698   1.764
 1139TIP3    H225053   6.661   0.629   1.796
 1140TIP3   OH225054   3.757   1.826   7.537
 1140TIP3    H125055   3.829   1.871   7.581
 1140TIP3    H225056   3.685   1.889   7.537
 1141TIP3   OH225057   4.677   1.338   8.444
 1141TIP3    H125058   4.624   1.274   8.492
 1141TIP3    H225059   4.613   1.393   8.399
 1142TIP3   OH225060   3.095   4.392   0.340
 1142TIP3    H125061   3.004   4.368   0.321
 1142TIP3    H225062   3.125   4.326   0.402
 1143TIP3   OH225063   5.341   5.656   8.550
 1143TIP3    H125064   5.381   5.737   8.582
 1143TIP3    H225065   5.415   5.608   8.511
 1144TIP3   OH225066   0.483   2.770   8.828
 1144TIP3    H125067   0.410   2.759   8.768
 1144TIP3    H225068   0.488   2.865   8.843
 1145TIP3   OH225069   4.974   5.176   8.719
 1145TIP3    H125070   4.938   5.250   8.670
 1145TIP3    H225071   5.068   5.193   8.721
 1146TIP3   OH225072   5.421   3.225   1.041
 1146TIP3    H125073   5.437   3.292   1.108
 1146TIP3    H225074   5.507   3.209   1.003
 1147TIP3   OH225075   2.965   2.300   0.148
 1147TIP3    H125076   2.884   2.312   0.198
 1147TIP3    H225077   2.979   2.206   0.147
 1148TIP3   OH225078   5.596   3.348   0.572
 1148TIP3    H125079   5.585   3.385   0.660
 1148TIP3    H225080   5.656   3.275   0.584
 1149TIP3   OH225081   4.956   4.727   1.665
 1149TIP3    H125082   4.893   4.773   1.721
 1149TIP3    H225083   5.041   4.746   1.705
 1150TIP3   OH225084   6.277   5.035   6.510
 1150TIP3    H125085   6.341   5.015   6.441
 1150TIP3    H225086   6.264   4.952   6.556
 1151TIP3   OH225087   0.427   2.054   8.401
 1151TIP3    H125088   0.449   2.120   8.466
 1151TIP3    H225089   0.342   2.020   8.428
 1152TIP3   OH225090   1.124   2.404   7.867
 1152TIP3    H125091   1.097   2.414   7.958
 1152TIP3    H225092   1.202   2.348   7.870
 1153TIP3   OH225093   1.875   4.250   7.878
 1153TIP3    H125094   1.828   4.244   7.961
 1153TIP3    H225095   1.935   4.174   7.878
 1154TIP3   OH225096   2.323   0.362   0.477
 1154TIP3    H125097   2.291   0.300   0.543
 1154TIP3    H225098   2.416   0.371   0.496
 1155TIP3   OH225099   2.194   6.271   0.401
 1155TIP3    H125100   2.201   6.356   0.358
 1155TIP3    H225101   2.135   6.287   0.475
 1156TIP3   OH225102   5.062   5.155   7.967
 1156TIP3    H125103   5.003   5.080   7.965
 1156TIP3    H225104   5.010   5.227   7.932
 1157TIP3   OH225105   2.759   4.625   6.414
 1157TIP3    H125106   2.685   4.677   6.446
 1157TIP3    H225107   2.807   4.685   6.357
 1158TIP3   OH225108   6.602   6.728   0.414
 1158TIP3    H125109   6.587   6.657   0.352
 1158TIP3    H225110   6.631   6.685   0.494
 1159TIP3   OH225111   4.077   3.677   7.677
 1159TIP3    H125112   4.103   3.662   7.768
 1159TIP3    H225113   4.106   3.766   7.657
 1160TIP3   OH225114   2.252   1.893   0.291
 1160TIP3    H125115   2.271   1.939   0.210
 1160TIP3    H225116   2.308   1.934   0.356
 1161TIP3   OH225117   6.272   4.116   0.718
 1161TIP3    H125118   6.252   4.209   0.710
 1161TIP3    H225119   6.193   4.072   0.688
 1162TIP3   OH225120   3.545   5.845   1.419
 1162TIP3    H125121   3.603   5.859   1.495
 1162TIP3    H225122   3.509   5.757   1.432
 1163TIP3   OH225123   6.089   5.476   1.331
 1163TIP3    H125124   6.132   5.561   1.323
 1163TIP3    H225125   6.047   5.463   1.245
 1164TIP3   OH225126   4.548   4.231   8.348
 1164TIP3    H125127   4.554   4.287   8.270
 1164TIP3    H225128   4.505   4.151   8.317
 1165TIP3   OH225129   0.944   0.533   8.842
 1165TIP3    H125130   0.932   0.490   8.758
 1165TIP3    H225131   0.855   0.554   8.871
 1166TIP3   OH225132   1.118   1.753   8.039
 1166TIP3    H125133   1.143   1.836   7.999
 1166TIP3    H225134   1.159   1.686   7.983
 1167TIP3   OH225135   1.651   2.527   6.593
 1167TIP3    H125136   1.667   2.540   6.686
 1167TIP3    H225137   1.737   2.529   6.552
 1168TIP3   OH225138   5.480   5.618   6.486
 1168TIP3    H125139   5.562   5.626   6.438
 1168TIP3    H225140   5.415   5.593   6.420
 1169TIP3   OH225141   4.618   3.756   7.761
 1169TIP3    H125142   4.656   3.672   7.786
 1169TIP3    H225143   4.633   3.762   7.667
 1170TIP3   OH225144   3.839   1.245   1.434
 1170TIP3    H125145   3.746   1.251   1.411
 1170TIP3    H225146   3.878   1.195   1.362
 1171TIP3   OH225147   0.488   4.538   1.668
 1171TIP3    H125148   0.435   4.615   1.686
 1171TIP3    H225149   0.463   4.511   1.579
 1172TIP3   OH225150   5.467   4.804   7.710
 1172TIP3    H125151   5.503   4.787   7.797
 1172TIP3    H225152   5.372   4.796   7.721
 1173TIP3   OH225153   4.531   6.739   7.216
 1173TIP3    H125154   4.517   6.667   7.154
 1173TIP3    H225155   4.608   6.785   7.183
 1174TIP3   OH225156   4.342   4.870   7.836
 1174TIP3    H125157   4.429   4.868   7.796
 1174TIP3    H225158   4.282   4.885   7.763
 1175TIP3   OH225159   5.009   2.401   7.568
 1175TIP3    H125160   5.102   2.379   7.568
 1175TIP3    H225161   4.986   2.406   7.661
 1176TIP3   OH225162   4.878   2.781   8.831
 1176TIP3    H125163   4.896   2.748   8.919
 1176TIP3    H225164   4.955   2.755   8.780
 1177TIP3   OH225165   1.939   0.804   1.291
 1177TIP3    H125166   1.870   0.814   1.356
 1177TIP3    H225167   1.924   0.875   1.228
 1178TIP3   OH225168   5.464   4.468   0.139
 1178TIP3    H125169   5.520   4.478   0.216
 1178TIP3    H225170   5.436   4.376   0.141
 1179TIP3   OH225171   2.703   0.827   6.226
 1179TIP3    H125172   2.620   0.823   6.275
 1179TIP3    H225173   2.741   0.740   6.236
 1180TIP3   OH225174   2.720   2.804   1.122
 1180TIP3    H125175   2.719   2.810   1.218
 1180TIP3    H225176   2.762   2.720   1.104
 1181TIP3   OH225177   3.741   0.164   7.054
 1181TIP3    H125178   3.646   0.153   7.060
 1181TIP3    H225179   3.764   0.129   6.968
 1182TIP3   OH225180   4.346   6.506   7.566
 1182TIP3    H125181   4.407   6.472   7.501
 1182TIP3    H225182   4.350   6.601   7.556
 1183TIP3   OH225183   0.227   1.766   0.682
 1183TIP3    H125184   0.296   1.701   0.670
 1183TIP3    H225185   0.154   1.716   0.719
 1184TIP3   OH225186   3.635   0.290   7.761
 1184TIP3    H125187   3.707   0.309   7.701
 1184TIP3    H225188   3.636   0.195   7.772
 1185TIP3   OH225189   2.292   0.857   1.098
 1185TIP3    H125190   2.363   0.798   1.122
 1185TIP3    H225191   2.218   0.830   1.152
 1186TIP3   OH225192   1.503   1.193   8.184
 1186TIP3    H125193   1.415   1.197   8.222
 1186TIP3    H225194   1.559   1.163   8.255
 1187TIP3   OH225195   2.338   0.123   7.783
 1187TIP3    H125196   2.314   0.039   7.742
 1187TIP3    H225197   2.434   0.126   7.777
 1188TIP3   OH225198   0.090   1.953   0.023
 1188TIP3    H125199   0.109   1.869   0.064
 1188TIP3    H225200   0.026   1.933  -0.045
 1189TIP3   OH225201   3.207   3.676   1.554
 1189TIP3    H125202   3.289   3.670   1.603
 1189TIP3    H225203   3.161   3.594   1.574
 1190TIP3   OH225204   2.095   6.319   8.151
 1190TIP3    H125205   2.066   6.353   8.067
 1190TIP3    H225206   2.124   6.229   8.133
 1191TIP3   OH225207   5.395   2.512   0.964
 1191TIP3    H125208   5.349   2.467   1.035
 1191TIP3    H225209   5.452   2.444   0.926
 1192TIP3   OH225210   1.878   6.062   6.790
 1192TIP3    H125211   1.941   6.116   6.741
 1192TIP3    H225212   1.854   5.992   6.729
 1193TIP3   OH225213   0.936   4.691   0.781
 1193TIP3    H125214   0.973   4.767   0.825
 1193TIP3    H225215   0.897   4.639   0.852
 1194TIP3   OH225216   1.505   5.136   7.383
 1194TIP3    H125217   1.575   5.071   7.385
 1194TIP3    H225218   1.544   5.213   7.342
 1195TIP3   OH225219   2.161   3.206   7.957
 1195TIP3    H125220   2.189   3.291   7.921
 1195TIP3    H225221   2.180   3.212   8.050
 1196TIP3   OH225222   0.682   3.925   0.163
 1196TIP3    H125223   0.714   3.836   0.178
 1196TIP3    H225224   0.761   3.980   0.169
 1197TIP3   OH225225   1.403   0.025   1.006
 1197TIP3    H125226   1.468  -0.043   0.991
 1197TIP3    H225227   1.370   0.008   1.094
 1198TIP3   OH225228   3.854   5.674   7.965
 1198TIP3    H125229   3.815   5.713   8.043
 1198TIP3    H225230   3.902   5.597   7.999
 1199TIP3   OH225231   1.892   5.145   8.832
 1199TIP3    H125232   1.857   5.084   8.767
 1199TIP3    H225233   1.816   5.174   8.882
 1200TIP3   OH225234   0.428   6.670   8.871
 1200TIP3    H125235   0.385   6.692   8.788
 1200TIP3    H225236   0.508   6.723   8.871
 1201TIP3   OH225237   0.343   4.555   7.850
 1201TIP3    H125238   0.259   4.536   7.808
 1201TIP3    H225239   0.402   4.489   7.814
 1202TIP3   OH225240   3.526   5.347   6.653
 1202TIP3    H125241   3.531   5.281   6.583
 1202TIP3    H225242   3.488   5.300   6.727
 1203TIP3   OH225243   4.264   4.772   8.443
 1203TIP3    H125244   4.223   4.830   8.378
 1203TIP3    H225245   4.190   4.732   8.489
 1204TIP3   OH225246   5.918   6.544   7.525
 1204TIP3    H125247   5.884   6.539   7.614
 1204TIP3    H225248   5.872   6.618   7.486
 1205TIP3   OH225249   2.531   0.907   6.780
 1205TIP3    H125250   2.575   0.992   6.783
 1205TIP3    H225251   2.500   0.893   6.870
 1206TIP3   OH225252   6.058   1.622   8.003
 1206TIP3    H125253   6.044   1.567   7.926
 1206TIP3    H225254   6.045   1.711   7.972
 1207TIP3   OH225255   1.159   4.199   0.311
 1207TIP3    H125256   1.249   4.168   0.315
 1207TIP3    H225257   1.161   4.284   0.355
 1208TIP3   OH225258   3.212   3.664   0.345
 1208TIP3    H125259   3.227   3.703   0.432
 1208TIP3    H225260   3.164   3.732   0.297
 1209TIP3   OH225261   3.111   4.101   6.297
 1209TIP3    H125262   3.171   4.133   6.230
 1209TIP3    H225263   3.167   4.060   6.363
 1210TIP3   OH225264   4.652   3.842   0.110
 1210TIP3    H125265   4.640   3.810   0.199
 1210TIP3    H225266   4.725   3.904   0.116
 1211TIP3   OH225267   4.476   5.549   8.797
 1211TIP3    H125268   4.421   5.502   8.734
 1211TIP3    H225269   4.426   5.548   8.878
 1212TIP3   OH225270   2.674   0.099   7.035
 1212TIP3    H125271   2.677   0.114   7.130
 1212TIP3    H225272   2.642   0.182   6.999
 1213TIP3   OH225273   6.018   1.497   0.459
 1213TIP3    H125274   5.985   1.577   0.500
 1213TIP3    H225275   5.988   1.427   0.517
 1214TIP3   OH225276   6.246   1.816   6.940
 1214TIP3    H125277   6.332   1.831   6.981
 1214TIP3    H225278   6.266   1.783   6.853
 1215TIP3   OH225279   1.030   2.151   6.507
 1215TIP3    H125280   1.059   2.127   6.419
 1215TIP3    H225281   1.099   2.120   6.565
 1216TIP3   OH225282   2.800   3.214   0.426
 1216TIP3    H125283   2.820   3.278   0.358
 1216TIP3    H225284   2.798   3.130   0.380
 1217TIP3   OH225285   3.414   1.472   0.980
 1217TIP3    H125286   3.371   1.537   0.925
 1217TIP3    H225287   3.361   1.392   0.969
 1218TIP3   OH225288   1.396   2.470   0.815
 1218TIP3    H125289   1.362   2.559   0.807
 1218TIP3    H225290   1.459   2.461   0.744
 1219TIP3   OH225291   4.899   2.878   6.756
 1219TIP3    H125292   4.816   2.850   6.717
 1219TIP3    H225293   4.880   2.964   6.794
 1220TIP3   OH225294   0.812   2.648   1.875
 1220TIP3    H125295   0.815   2.568   1.928
 1220TIP3    H225296   0.721   2.675   1.878
 1221TIP3   OH225297   4.998   0.839   7.808
 1221TIP3    H125298   4.929   0.900   7.782
 1221TIP3    H225299   4.992   0.767   7.746
 1222TIP3   OH225300   6.321   1.616   0.006
 1222TIP3    H125301   6.411   1.630   0.037
 1222TIP3    H225302   6.267   1.635   0.083
 1223TIP3   OH225303   5.110   0.247   8.237
 1223TIP3    H125304   5.108   0.252   8.332
 1223TIP3    H225305   5.124   0.337   8.208
 1224TIP3   OH225306   2.538   2.280   1.469
 1224TIP3    H125307   2.496   2.211   1.417
 1224TIP3    H225308   2.615   2.305   1.417
 1225TIP3   OH225309   3.452   5.799   8.512
 1225TIP3    H125310   3.430   5.740   8.584
 1225TIP3    H225311   3.370   5.844   8.491
 1226TIP3   OH225312   3.017   5.675   6.544
 1226TIP3    H125313   3.014   5.770   6.554
 1226TIP3    H225314   3.045   5.661   6.454
 1227TIP3   OH225315   3.998   5.706   7.483
 1227TIP3    H125316   4.044   5.664   7.411
 1227TIP3    H225317   3.907   5.681   7.471
 1228TIP3   OH225318   2.928   0.100   8.702
 1228TIP3    H125319   2.991   0.032   8.726
 1228TIP3    H225320   2.842   0.056   8.707
 1229TIP3   OH225321   0.091   4.595   0.186
 1229TIP3    H125322   0.061   4.615   0.275
 1229TIP3    H225323   0.108   4.501   0.188
 1230TIP3   OH225324   4.238   6.521   0.651
 1230TIP3    H125325   4.251   6.603   0.698
 1230TIP3    H225326   4.264   6.453   0.713
 1231TIP3   OH225327   2.946   6.506   2.047
 1231TIP3    H125328   2.890   6.526   2.122
 1231TIP3    H225329   3.024   6.560   2.061
 1232TIP3   OH225330   2.199   6.457   1.834
 1232TIP3    H125331   2.207   6.361   1.836
 1232TIP3    H225332   2.276   6.488   1.881
 1233TIP3   OH225333   4.357   1.338   7.308
 1233TIP3    H125334   4.323   1.427   7.294
 1233TIP3    H225335   4.279   1.282   7.305
 1234TIP3   OH225336   5.711   3.893   0.958
 1234TIP3    H125337   5.724   3.987   0.953
 1234TIP3    H225338   5.616   3.881   0.955
 1235TIP3   OH225339   6.731   5.420   1.635
 1235TIP3    H125340   6.714   5.492   1.696
 1235TIP3    H225341   6.766   5.463   1.557
 1236TIP3   OH225342   2.168   4.392   1.220
 1236TIP3    H125343   2.092   4.357   1.267
 1236TIP3    H225344   2.130   4.439   1.146
 1237TIP3   OH225345   0.418   4.018   0.652
 1237TIP3    H125346   0.356   3.952   0.621
 1237TIP3    H225347   0.461   4.048   0.572
 1238TIP3   OH225348   2.749   5.496   8.952
 1238TIP3    H125349   2.736   5.589   8.968
 1238TIP3    H225350   2.832   5.476   8.995
 1239TIP3   OH225351   2.465   5.443   8.953
 1239TIP3    H125352   2.558   5.465   8.962
 1239TIP3    H225353   2.457   5.409   8.864
 1240TIP3   OH225354   0.941   2.657   1.635
 1240TIP3    H125355   0.879   2.657   1.708
 1240TIP3    H225356   0.968   2.749   1.627
 1241TIP3   OH225357   3.649   0.275   1.563
 1241TIP3    H125358   3.637   0.196   1.617
 1241TIP3    H225359   3.725   0.255   1.508
 1242TIP3   OH225360   4.483   5.893   1.870
 1242TIP3    H125361   4.422   5.855   1.807
 1242TIP3    H225362   4.453   5.861   1.955
 1243TIP3   OH225363   5.892   6.520   8.793
 1243TIP3    H125364   5.818   6.558   8.747
 1243TIP3    H225365   5.854   6.473   8.867
 1244TIP3   OH225366   3.901   0.248   1.421
 1244TIP3    H125367   3.966   0.182   1.446
 1244TIP3    H225368   3.917   0.321   1.481
 1245TIP3   OH225369   3.667   0.936   1.762
 1245TIP3    H125370   3.697   0.915   1.673
 1245TIP3    H225371   3.707   0.868   1.817
 1246TIP3   OH225372   3.225   2.215   8.921
 1246TIP3    H125373   3.153   2.181   8.974
 1246TIP3    H225374   3.192   2.211   8.831
 1247TIP3   OH225375   6.744   6.114   0.244
 1247TIP3    H125376   6.828   6.159   0.243
 1247TIP3    H225377   6.766   6.022   0.256
 1248TIP3   OH225378   1.905   3.432   8.599
 1248TIP3    H125379   1.839   3.480   8.549
 1248TIP3    H225380   1.856   3.363   8.644
 1249TIP3   OH225381   5.901   2.448   0.313
 1249TIP3    H125382   5.971   2.404   0.362
 1249TIP3    H225383   5.882   2.389   0.240
 1250TIP3   OH225384   1.676   1.441   7.680
 1250TIP3    H125385   1.648   1.533   7.680
 1250TIP3    H225386   1.674   1.415   7.772
 1251TIP3   OH225387   2.544   5.015   1.079
 1251TIP3    H125388   2.558   5.021   1.174
 1251TIP3    H225389   2.579   5.096   1.044
 1252TIP3   OH225390   3.388   5.902   2.340
 1252TIP3    H125391   3.463   5.848   2.315
 1252TIP3    H225392   3.312   5.843   2.333
 1253TIP3   OH225393   5.001   3.404   7.265
 1253TIP3    H125394   4.909   3.422   7.279
 1253TIP3    H225395   5.044   3.489   7.276
 1254TIP3   OH225396   1.688   6.097   7.609
 1254TIP3    H125397   1.670   6.188   7.631
 1254TIP3    H225398   1.607   6.066   7.567
 1255TIP3   OH225399   4.678   4.984   1.337
 1255TIP3    H125400   4.742   4.924   1.374
 1255TIP3    H225401   4.611   4.992   1.405
 1256TIP3   OH225402   0.274   0.093   1.070
 1256TIP3    H125403   0.270   0.058   0.981
 1256TIP3    H225404   0.366   0.113   1.084
 1257TIP3   OH225405   5.001   5.739   2.144
 1257TIP3    H125406   4.914   5.752   2.182
 1257TIP3    H225407   5.056   5.804   2.187
 1258TIP3   OH225408   5.614   0.054   8.460
 1258TIP3    H125409   5.531   0.024   8.497
 1258TIP3    H225410   5.609   0.030   8.368
 1259TIP3   OH225411   5.648   3.965   0.002
 1259TIP3    H125412   5.621   3.873   0.008
 1259TIP3    H225413   5.721   3.965  -0.060
 1260TIP3   OH225414   4.550   6.519   8.589
 1260TIP3    H125415   4.523   6.559   8.672
 1260TIP3    H225416   4.602   6.585   8.546
 1261TIP3   OH225417   4.124   6.146   8.852
 1261TIP3    H125418   4.177   6.226   8.846
 1261TIP3    H225419   4.054   6.168   8.913
 1262TIP3   OH225420   5.081   0.347   0.644
 1262TIP3    H125421   5.103   0.318   0.555
 1262TIP3    H225422   5.160   0.389   0.676
 1263TIP3   OH225423   5.482   1.695   8.427
 1263TIP3    H125424   5.405   1.684   8.483
 1263TIP3    H225425   5.506   1.606   8.402
 1264TIP3   OH225426   2.217   3.715   8.831
 1264TIP3    H125427   2.275   3.772   8.780
 1264TIP3    H225428   2.193   3.645   8.770
 1265TIP3   OH225429   1.053   3.976   7.958
 1265TIP3    H125430   0.985   4.022   8.008
 1265TIP3    H225431   1.028   3.989   7.867
 1266TIP3   OH225432   3.613   4.404   0.207
 1266TIP3    H125433   3.537   4.406   0.150
 1266TIP3    H225434   3.688   4.396   0.147
 1267TIP3   OH225435   6.749   2.369   1.914
 1267TIP3    H125436   6.758   2.459   1.945
 1267TIP3    H225437   6.656   2.362   1.889
 1268TIP3   OH225438   6.033   0.700   0.298
 1268TIP3    H125439   6.038   0.705   0.393
 1268TIP3    H225440   6.123   0.715   0.269
 1269TIP3   OH225441   3.430   2.162   0.083
 1269TIP3    H125442   3.424   2.221   0.158
 1269TIP3    H225443   3.355   2.185   0.028
 1270TIP3   OH225444   1.622   4.004   1.756
 1270TIP3    H125445   1.587   4.021   1.844
 1270TIP3    H225446   1.545   4.000   1.700
 1271TIP3   OH225447   1.783   4.999   6.949
 1271TIP3    H125448   1.730   4.994   6.870
 1271TIP3    H225449   1.864   4.953   6.927
 1272TIP3   OH225450   0.004   3.628   0.466
 1272TIP3    H125451  -0.081   3.597   0.434
 1272TIP3    H225452   0.058   3.635   0.387
 1273TIP3   OH225453   6.615   2.975   8.752
 1273TIP3    H125454   6.541   2.942   8.701
 1273TIP3    H225455   6.602   2.939   8.840
 1274TIP3   OH225456   1.264   6.515   0.032
 1274TIP3    H125457   1.288   6.487   0.120
 1274TIP3    H225458   1.204   6.589   0.046
 1275TIP3   OH225459   6.587   6.050   2.574
 1275TIP3    H125460   6.671   6.031   2.615
 1275TIP3    H225461   6.609   6.098   2.494
 1276TIP3   OH225462   1.882   2.292   0.724
 1276TIP3    H125463   1.885   2.387   0.711
 1276TIP3    H225464   1.859   2.282   0.816
 1277TIP3   OH225465   1.600   3.140   0.889
 1277TIP3    H125466   1.547   3.191   0.950
 1277TIP3    H225467   1.544   3.068   0.862
 1278TIP3   OH225468   2.345   6.016   1.184
 1278TIP3    H125469   2.299   5.958   1.245
 1278TIP3    H225470   2.303   6.101   1.196
 1279TIP3   OH225471   1.724   4.985   7.211
 1279TIP3    H125472   1.672   4.906   7.227
 1279TIP3    H225473   1.717   4.999   7.117
 1280TIP3   OH225474   1.624   4.454   6.978
 1280TIP3    H125475   1.716   4.446   7.007
 1280TIP3    H225476   1.624   4.529   6.919
 1281TIP3   OH225477   1.384   4.063   0.346
 1281TIP3    H125478   1.466   4.102   0.316
 1281TIP3    H225479   1.410   3.991   0.403
 1282TIP3   OH225480   4.662   2.338   8.431
 1282TIP3    H125481   4.685   2.345   8.338
 1282TIP3    H225482   4.571   2.307   8.431
 1283TIP3   OH225483   6.659   3.808   7.003
 1283TIP3    H125484   6.693   3.762   6.926
 1283TIP3    H225485   6.727   3.799   7.069
 1284TIP3   OH225486   6.282   6.238   7.538
 1284TIP3    H125487   6.238   6.156   7.563
 1284TIP3    H225488   6.212   6.292   7.501
 1285TIP3   OH225489   6.473   4.390   2.164
 1285TIP3    H125490   6.510   4.456   2.223
 1285TIP3    H225491   6.409   4.342   2.219
 1286TIP3   OH225492   2.071   4.112   6.536
 1286TIP3    H125493   2.106   4.108   6.447
 1286TIP3    H225494   2.001   4.177   6.531
 1287TIP3   OH225495   4.490   2.005   1.430
 1287TIP3    H125496   4.451   2.043   1.351
 1287TIP3    H225497   4.471   2.068   1.499
 1288TIP3   OH225498   4.207   6.478   8.020
 1288TIP3    H125499   4.170   6.456   8.106
 1288TIP3    H225500   4.203   6.395   7.971
 1289TIP3   OH225501   1.858   6.437   8.438
 1289TIP3    H125502   1.793   6.503   8.461
 1289TIP3    H225503   1.928   6.487   8.395
 1290TIP3   OH225504   1.285   4.583   6.925
 1290TIP3    H125505   1.301   4.507   6.981
 1290TIP3    H225506   1.328   4.562   6.842
 1291TIP3   OH225507   5.258   2.446   1.252
 1291TIP3    H125508   5.248   2.477   1.342
 1291TIP3    H225509   5.261   2.350   1.261
 1292TIP3   OH225510   3.011   5.589   0.593
 1292TIP3    H125511   2.956   5.654   0.637
 1292TIP3    H225512   2.993   5.602   0.500
 1293TIP3   OH225513   6.495   0.404   2.055
 1293TIP3    H125514   6.499   0.393   2.150
 1293TIP3    H225515   6.573   0.358   2.022
 1294TIP3   OH225516   0.726   2.980   8.375
 1294TIP3    H125517   0.810   3.020   8.352
 1294TIP3    H225518   0.708   2.918   8.305
 1295TIP3   OH225519   5.372   4.784   0.999
 1295TIP3    H125520   5.448   4.727   1.014
 1295TIP3    H225521   5.375   4.847   1.071
 1296TIP3   OH225522   5.255   6.766   2.271
 1296TIP3    H125523   5.220   6.719   2.346
 1296TIP3    H225524   5.178   6.794   2.221
 1297TIP3   OH225525   4.533   2.481   1.462
 1297TIP3    H125526   4.439   2.466   1.464
 1297TIP3    H225527   4.564   2.446   1.545
 1298TIP3   OH225528   2.693   4.056   7.515
 1298TIP3    H125529   2.678   4.009   7.432
 1298TIP3    H225530   2.786   4.077   7.514
 1299TIP3   OH225531   4.566   1.128   7.738
 1299TIP3    H125532   4.566   1.167   7.650
 1299TIP3    H225533   4.651   1.085   7.744
 1300TIP3   OH225534   1.258   4.718   8.896
 1300TIP3    H125535   1.170   4.737   8.866
 1300TIP3    H225536   1.290   4.651   8.834
 1301TIP3   OH225537   0.010   0.097   8.356
 1301TIP3    H125538   0.033   0.012   8.319
 1301TIP3    H225539   0.091   0.147   8.352
 1302TIP3   OH225540   2.088   3.069   7.454
 1302TIP3    H125541   2.162   3.011   7.435
 1302TIP3    H225542   2.125   3.137   7.510
 1303TIP3   OH225543   3.449   0.616   0.647
 1303TIP3    H125544   3.487   0.569   0.573
 1303TIP3    H225545   3.358   0.630   0.622
 1304TIP3   OH225546   1.433   2.018   6.992
 1304TIP3    H125547   1.387   2.088   7.039
 1304TIP3    H225548   1.437   2.048   6.901
 1305TIP3   OH225549   5.455   5.425   6.673
 1305TIP3    H125550   5.457   5.507   6.623
 1305TIP3    H225551   5.460   5.356   6.607
 1306TIP3   OH225552   3.963   0.467   7.536
 1306TIP3    H125553   3.947   0.502   7.623
 1306TIP3    H225554   3.880   0.477   7.490
 1307TIP3   OH225555   2.696   5.061   7.307
 1307TIP3    H125556   2.746   4.980   7.315
 1307TIP3    H225557   2.692   5.077   7.212
 1308TIP3   OH225558   1.301   2.314   8.583
 1308TIP3    H125559   1.273   2.329   8.673
 1308TIP3    H225560   1.221   2.318   8.531
 1309TIP3   OH225561   5.502   3.091   0.774
 1309TIP3    H125562   5.555   3.043   0.710
 1309TIP3    H225563   5.563   3.111   0.845
 1310TIP3   OH225564   3.572   2.947   0.645
 1310TIP3    H125565   3.651   2.933   0.698
 1310TIP3    H225566   3.535   2.860   0.634
 1311TIP3   OH225567   6.488   6.072   0.879
 1311TIP3    H125568   6.408   6.022   0.895
 1311TIP3    H225569   6.533   6.073   0.964
 1312TIP3   OH225570   0.039   4.382   8.533
 1312TIP3    H125571   0.015   4.472   8.557
 1312TIP3    H225572   0.018   4.375   8.440
 1313TIP3   OH225573   6.503   1.034   1.019
 1313TIP3    H125574   6.490   0.947   0.981
 1313TIP3    H225575   6.592   1.032   1.054
 1314TIP3   OH225576   6.655   5.188   8.877
 1314TIP3    H125577   6.591   5.165   8.944
 1314TIP3    H225578   6.705   5.261   8.914
 1315TIP3   OH225579   5.447   1.799   2.354
 1315TIP3    H125580   5.502   1.721   2.351
 1315TIP3    H225581   5.491   1.858   2.415
 1316TIP3   OH225582   4.349   4.640   7.104
 1316TIP3    H125583   4.341   4.672   7.193
 1316TIP3    H225584   4.298   4.702   7.051
 1317TIP3   OH225585   3.660   1.152   0.495
 1317TIP3    H125586   3.727   1.089   0.468
 1317TIP3    H225587   3.581   1.124   0.449
 1318TIP3   OH225588   3.931   2.088   6.590
 1318TIP3    H125589   4.022   2.084   6.620
 1318TIP3    H225590   3.903   1.996   6.586
 1319TIP3   OH225591   6.403   2.858   8.003
 1319TIP3    H125592   6.344   2.849   8.079
 1319TIP3    H225593   6.487   2.826   8.035
 1320TIP3   OH225594   3.932   3.208   7.963
 1320TIP3    H125595   3.970   3.125   7.993
 1320TIP3    H225596   3.839   3.189   7.950
 1321TIP3   OH225597   2.076   0.872   6.420
 1321TIP3    H125598   2.005   0.864   6.357
 1321TIP3    H225599   2.085   0.967   6.434
 1322TIP3   OH225600   5.267   0.035   0.964
 1322TIP3    H125601   5.178  -0.002   0.960
 1322TIP3    H225602   5.260   0.109   1.023
 1323TIP3   OH225603   4.789   3.510   8.788
 1323TIP3    H125604   4.839   3.451   8.731
 1323TIP3    H225605   4.831   3.595   8.775
 1324TIP3   OH225606   5.081   4.217   8.781
 1324TIP3    H125607   5.073   4.312   8.787
 1324TIP3    H225608   5.155   4.202   8.722
 1325TIP3   OH225609   5.417   6.672   8.563
 1325TIP3    H125610   5.382   6.596   8.517
 1325TIP3    H225611   5.341   6.725   8.584
 1326TIP3   OH225612   1.574   2.344   6.900
 1326TIP3    H125613   1.496   2.354   6.846
 1326TIP3    H225614   1.590   2.431   6.936
 1327TIP3   OH225615   2.591   0.593   6.587
 1327TIP3    H125616   2.578   0.549   6.503
 1327TIP3    H225617   2.671   0.555   6.622
 1328TIP3   OH225618   3.906   3.164   0.970
 1328TIP3    H125619   3.889   3.237   1.029
 1328TIP3    H225620   3.999   3.146   0.979
 1329TIP3   OH225621   6.288   0.479   6.953
 1329TIP3    H125622   6.368   0.480   6.901
 1329TIP3    H225623   6.270   0.386   6.968
 1330TIP3   OH225624   6.049   6.467   1.003
 1330TIP3    H125625   6.113   6.399   1.024
 1330TIP3    H225626   5.971   6.420   0.974
 1331TIP3   OH225627   0.859   3.664   7.521
 1331TIP3    H125628   0.849   3.632   7.431
 1331TIP3    H225629   0.954   3.663   7.537
 1332TIP3   OH225630   4.800   4.169   8.109
 1332TIP3    H125631   4.792   4.090   8.163
 1332TIP3    H225632   4.714   4.209   8.112
 1333TIP3   OH225633   6.785   3.692   1.359
 1333TIP3    H125634   6.781   3.773   1.411
 1333TIP3    H225635   6.813   3.721   1.272
 1334TIP3   OH225636   3.797   2.848   0.804
 1334TIP3    H125637   3.801   2.795   0.724
 1334TIP3    H225638   3.882   2.891   0.809
 1335TIP3   OH225639   4.020   1.375   7.841
 1335TIP3    H125640   3.960   1.338   7.905
 1335TIP3    H225641   4.099   1.322   7.849
 1336TIP3   OH225642   2.562   2.385   0.950
 1336TIP3    H125643   2.589   2.462   1.000
 1336TIP3    H225644   2.490   2.415   0.895
 1337TIP3   OH225645   2.826   0.668   7.347
 1337TIP3    H125646   2.822   0.617   7.266
 1337TIP3    H225647   2.906   0.639   7.390
 1338TIP3   OH225648   3.971   5.816   6.651
 1338TIP3    H125649   4.053   5.795   6.697
 1338TIP3    H225650   3.997   5.823   6.559
 1339TIP3   OH225651   1.473   5.836   1.705
 1339TIP3    H125652   1.396   5.785   1.679
 1339TIP3    H225653   1.514   5.784   1.775
 1340TIP3   OH225654   1.931   4.728   0.439
 1340TIP3    H125655   1.978   4.811   0.449
 1340TIP3    H225656   1.873   4.741   0.364
 1341TIP3   OH225657   4.257   2.419   1.531
 1341TIP3    H125658   4.234   2.469   1.610
 1341TIP3    H225659   4.199   2.454   1.463
 1342TIP3   OH225660   0.915   4.026   6.696
 1342TIP3    H125661   0.907   4.107   6.746
 1342TIP3    H225662   0.854   4.037   6.623
 1343TIP3   OH225663   4.901   5.456   8.564
 1343TIP3    H125664   4.923   5.392   8.497
 1343TIP3    H225665   4.806   5.465   8.558
 1344TIP3   OH225666   6.763   4.248   1.343
 1344TIP3    H125667   6.721   4.304   1.279
 1344TIP3    H225668   6.746   4.159   1.312
 1345TIP3   OH225669   2.889   3.096   0.000
 1345TIP3    H125670   2.926   3.123   0.084
 1345TIP3    H225671   2.965   3.072  -0.052
 1346TIP3   OH225672   6.087   1.852   7.218
 1346TIP3    H125673   6.081   1.795   7.142
 1346TIP3    H225674   6.001   1.893   7.224
 1347TIP3   OH225675   3.587   6.363   7.101
 1347TIP3    H125676   3.498   6.363   7.137
 1347TIP3    H225677   3.637   6.418   7.161
 1348TIP3   OH225678   3.837   0.429   0.502
 1348TIP3    H125679   3.744   0.405   0.510
 1348TIP3    H225680   3.862   0.454   0.590
 1349TIP3   OH225681   4.427   2.949   7.866
 1349TIP3    H125682   4.434   3.035   7.909
 1349TIP3    H225683   4.369   2.965   7.791
 1350TIP3   OH225684   0.571   4.401   7.980
 1350TIP3    H125685   0.483   4.425   8.008
 1350TIP3    H225686   0.618   4.381   8.061
 1351TIP3   OH225687   3.080   2.340   1.189
 1351TIP3    H125688   3.060   2.341   1.283
 1351TIP3    H225689   3.155   2.399   1.180
 1352TIP3   OH225690   3.719   0.929   0.090
 1352TIP3    H125691   3.736   0.840   0.059
 1352TIP3    H225692   3.703   0.919   0.184
 1353TIP3   OH225693   2.278   4.344   8.315
 1353TIP3    H125694   2.363   4.362   8.276
 1353TIP3    H225695   2.267   4.249   8.308
 1354TIP3   OH225696   0.985   5.237   0.436
 1354TIP3    H125697   0.958   5.146   0.449
 1354TIP3    H225698   1.006   5.268   0.524
 1355TIP3   OH225699   5.546   5.830   6.647
 1355TIP3    H125700   5.607   5.789   6.709
 1355TIP3    H225701   5.503   5.756   6.605
 1356TIP3   OH225702   3.793   2.571   1.430
 1356TIP3    H125703   3.758   2.552   1.517
 1356TIP3    H225704   3.833   2.658   1.439
 1357TIP3   OH225705   6.341   3.165   8.969
 1357TIP3    H125706   6.281   3.234   8.941
 1357TIP3    H225707   6.429   3.200   8.952
 1358TIP3   OH225708   0.873   5.841   8.276
 1358TIP3    H125709   0.824   5.779   8.330
 1358TIP3    H225710   0.965   5.813   8.285
 1359TIP3   OH225711   0.402   2.240   0.095
 1359TIP3    H125712   0.314   2.224   0.060
 1359TIP3    H225713   0.455   2.259   0.018
 1360TIP3   OH225714   3.543   4.776   8.276
 1360TIP3    H125715   3.512   4.788   8.366
 1360TIP3    H225716   3.619   4.833   8.269
 1361TIP3   OH225717   5.553   0.736   7.738
 1361TIP3    H125718   5.460   0.760   7.729
 1361TIP3    H225719   5.556   0.643   7.717
 1362TIP3   OH225720   1.139   3.830   8.705
 1362TIP3    H125721   1.217   3.774   8.712
 1362TIP3    H225722   1.079   3.796   8.771
 1363TIP3   OH225723   0.528   2.993   6.825
 1363TIP3    H125724   0.479   2.924   6.869
 1363TIP3    H225725   0.466   3.065   6.815
 1364TIP3   OH225726   5.050   5.477   8.131
 1364TIP3    H125727   5.095   5.549   8.175
 1364TIP3    H225728   5.118   5.432   8.082
 1365TIP3   OH225729   1.378   1.082   8.520
 1365TIP3    H125730   1.471   1.071   8.501
 1365TIP3    H225731   1.342   1.120   8.440
 1366TIP3   OH225732   2.919   5.574   7.383
 1366TIP3    H125733   2.976   5.510   7.340
 1366TIP3    H225734   2.977   5.620   7.444
 1367TIP3   OH225735   0.047   4.178   0.838
 1367TIP3    H125736   0.050   4.127   0.757
 1367TIP3    H225737  -0.002   4.257   0.815
 1368TIP3   OH225738   3.428   6.275   6.736
 1368TIP3    H125739   3.398   6.218   6.665
 1368TIP3    H225740   3.523   6.278   6.726
 1369TIP3   OH225741   4.695   2.305   6.736
 1369TIP3    H125742   4.738   2.300   6.650
 1369TIP3    H225743   4.670   2.397   6.744
 1370TIP3   OH225744   2.359   5.741   8.936
 1370TIP3    H125745   2.281   5.797   8.939
 1370TIP3    H225746   2.398   5.751   9.023
 1371TIP3   OH225747   4.154   1.805   8.965
 1371TIP3    H125748   4.094   1.739   9.000
 1371TIP3    H225749   4.120   1.824   8.877
 1372TIP3   OH225750   2.597   1.545   0.838
 1372TIP3    H125751   2.504   1.557   0.817
 1372TIP3    H225752   2.613   1.452   0.818
 1373TIP3   OH225753   5.744   2.800   7.960
 1373TIP3    H125754   5.655   2.767   7.959
 1373TIP3    H225755   5.770   2.804   7.868
 1374TIP3   OH225756   1.276   2.407   7.332
 1374TIP3    H125757   1.370   2.397   7.347
 1374TIP3    H225758   1.236   2.381   7.415
 1375TIP3   OH225759   0.046   5.635   2.109
 1375TIP3    H125760   0.073   5.597   2.193
 1375TIP3    H225761  -0.037   5.678   2.128
 1376TIP3   OH225762   6.297   6.669   8.456
 1376TIP3    H125763   6.283   6.648   8.549
 1376TIP3    H225764   6.273   6.589   8.409
 1377TIP3   OH225765   3.243   6.173   0.483
 1377TIP3    H125766   3.233   6.157   0.577
 1377TIP3    H225767   3.230   6.267   0.472
 1378TIP3   OH225768   6.001   0.820   0.039
 1378TIP3    H125769   6.008   0.752   0.106
 1378TIP3    H225770   6.072   0.800  -0.022
 1379TIP3   OH225771   2.985   5.128   7.373
 1379TIP3    H125772   2.919   5.058   7.377
 1379TIP3    H225773   3.006   5.136   7.281
 1380TIP3   OH225774   2.191   1.412   6.358
 1380TIP3    H125775   2.128   1.465   6.308
 1380TIP3    H225776   2.139   1.377   6.430
 1381TIP3   OH225777   6.615   1.552   7.858
 1381TIP3    H125778   6.557   1.608   7.807
 1381TIP3    H225779   6.597   1.576   7.949
 1382TIP3   OH225780   2.716   0.824   8.245
 1382TIP3    H125781   2.685   0.911   8.270
 1382TIP3    H225782   2.644   0.766   8.266
 1383TIP3   OH225783   5.994   2.661   2.360
 1383TIP3    H125784   5.907   2.698   2.373
 1383TIP3    H225785   6.052   2.717   2.412
 1384TIP3   OH225786   1.521   3.902   0.757
 1384TIP3    H125787   1.565   3.894   0.842
 1384TIP3    H225788   1.439   3.946   0.777
 1385TIP3   OH225789   4.875   2.109   6.556
 1385TIP3    H125790   4.860   2.037   6.618
 1385TIP3    H225791   4.790   2.121   6.514
 1386TIP3   OH225792   0.927   2.025   1.186
 1386TIP3    H125793   0.973   2.108   1.197
 1386TIP3    H225794   0.846   2.048   1.140
 1387TIP3   OH225795   2.151   6.637   0.774
 1387TIP3    H125796   2.229   6.633   0.719
 1387TIP3    H225797   2.181   6.677   0.856
 1388TIP3   OH225798   4.552   3.612   8.930
 1388TIP3    H125799   4.641   3.579   8.939
 1388TIP3    H225800   4.552   3.695   8.977
 1389TIP3   OH225801   4.583   4.337   0.807
 1389TIP3    H125802   4.578   4.432   0.810
 1389TIP3    H225803   4.674   4.318   0.829
 1390TIP3   OH225804   0.270   1.346   8.009
 1390TIP3    H125805   0.291   1.435   8.039
 1390TIP3    H225806   0.176   1.349   7.990
 1391TIP3   OH225807   1.638   1.315   0.414
 1391TIP3    H125808   1.688   1.391   0.388
 1391TIP3    H225809   1.608   1.275   0.332
 1392TIP3   OH225810   0.737   5.373   1.034
 1392TIP3    H125811   0.710   5.464   1.033
 1392TIP3    H225812   0.713   5.341   1.121
 1393TIP3   OH225813   3.961   0.054   7.701
 1393TIP3    H125814   4.053   0.045   7.675
 1393TIP3    H225815   3.918   0.089   7.623
 1394TIP3   OH225816   5.512   2.350   1.354
 1394TIP3    H125817   5.559   2.431   1.374
 1394TIP3    H225818   5.465   2.369   1.272
 1395TIP3   OH225819   1.091   6.271   0.293
 1395TIP3    H125820   1.048   6.288   0.377
 1395TIP3    H225821   1.149   6.346   0.281
 1396TIP3   OH225822   1.444   1.089   0.813
 1396TIP3    H125823   1.421   1.068   0.722
 1396TIP3    H225824   1.405   1.018   0.864
 1397TIP3   OH225825   4.358   4.379   1.413
 1397TIP3    H125826   4.406   4.433   1.477
 1397TIP3    H225827   4.368   4.426   1.330
 1398TIP3   OH225828   1.869   6.505   7.672
 1398TIP3    H125829   1.868   6.590   7.628
 1398TIP3    H225830   1.780   6.470   7.659
 1399TIP3   OH225831   1.789   4.995   8.646
 1399TIP3    H125832   1.703   4.985   8.687
 1399TIP3    H225833   1.770   5.026   8.558
 1400TIP3   OH225834   0.236   4.983   8.924
 1400TIP3    H125835   0.181   4.989   9.002
 1400TIP3    H225836   0.261   5.073   8.905
 1401TIP3   OH225837   3.988   2.533   7.488
 1401TIP3    H125838   4.034   2.461   7.532
 1401TIP3    H225839   4.014   2.611   7.535
 1402TIP3   OH225840   4.463   5.111   2.314
 1402TIP3    H125841   4.556   5.107   2.291
 1402TIP3    H225842   4.457   5.060   2.395
 1403TIP3   OH225843   1.798   6.355   0.641
 1403TIP3    H125844   1.780   6.445   0.668
 1403TIP3    H225845   1.796   6.305   0.723
 1404TIP3   OH225846   3.009   4.216   1.818
 1404TIP3    H125847   2.974   4.205   1.730
 1404TIP3    H225848   3.034   4.128   1.845
 1405TIP3   OH225849   0.776   6.169   8.297
 1405TIP3    H125850   0.725   6.089   8.282
 1405TIP3    H225851   0.715   6.229   8.340
 1406TIP3   OH225852   2.739   3.961   6.142
 1406TIP3    H125853   2.713   3.951   6.233
 1406TIP3    H225854   2.783   4.046   6.138
 1407TIP3   OH225855   0.046   3.214   2.179
 1407TIP3    H125856   0.140   3.208   2.197
 1407TIP3    H225857   0.021   3.127   2.147
 1408TIP3   OH225858   4.169   6.290   7.649
 1408TIP3    H125859   4.184   6.286   7.743
 1408TIP3    H225860   4.204   6.376   7.622
 1409TIP3   OH225861   4.093   5.381   8.727
 1409TIP3    H125862   4.140   5.329   8.792
 1409TIP3    H225863   4.014   5.331   8.707
 1410TIP3   OH225864   0.324   3.248   7.271
 1410TIP3    H125865   0.333   3.234   7.177
 1410TIP3    H225866   0.296   3.164   7.306
 1411TIP3   OH225867   3.697   6.015   0.290
 1411TIP3    H125868   3.648   6.089   0.327
 1411TIP3    H225869   3.675   6.017   0.197
 1412TIP3   OH225870   4.177   5.989   7.516
 1412TIP3    H125871   4.161   6.065   7.459
 1412TIP3    H225872   4.269   5.997   7.541
 1413TIP3   OH225873   4.891   2.403   2.292
 1413TIP3    H125874   4.824   2.466   2.263
 1413TIP3    H225875   4.973   2.451   2.287
 1414TIP3   OH225876   1.299   6.325   1.677
 1414TIP3    H125877   1.296   6.235   1.710
 1414TIP3    H225878   1.350   6.373   1.742
 1415TIP3   OH225879   4.206   1.769   7.021
 1415TIP3    H125880   4.161   1.820   7.088
 1415TIP3    H225881   4.161   1.685   7.021
 1416TIP3   OH225882   4.898   6.384   7.800
 1416TIP3    H125883   4.896   6.439   7.722
 1416TIP3    H225884   4.975   6.329   7.789
 1417TIP3   OH225885   1.092   1.163   7.515
 1417TIP3    H125886   1.075   1.126   7.602
 1417TIP3    H225887   1.173   1.213   7.527
 1418TIP3   OH225888   0.865   2.782   5.893
 1418TIP3    H125889   0.856   2.797   5.987
 1418TIP3    H225890   0.782   2.812   5.856
 1419TIP3   OH225891   0.060   2.593   2.061
 1419TIP3    H125892   0.109   2.669   2.093
 1419TIP3    H225893   0.027   2.551   2.140
 1420TIP3   OH225894   1.421   6.515   0.786
 1420TIP3    H125895   1.434   6.451   0.856
 1420TIP3    H225896   1.501   6.567   0.786
 1421TIP3   OH225897   5.013   4.296   7.510
 1421TIP3    H125898   5.007   4.369   7.447
 1421TIP3    H225899   5.025   4.219   7.456
 1422TIP3   OH225900   5.134   0.753   0.863
 1422TIP3    H125901   5.150   0.815   0.934
 1422TIP3    H225902   5.165   0.669   0.897
 1423TIP3   OH225903   3.269   1.503   0.228
 1423TIP3    H125904   3.271   1.588   0.272
 1423TIP3    H225905   3.234   1.443   0.294
 1424TIP3   OH225906   2.105   1.460   1.276
 1424TIP3    H125907   2.010   1.458   1.265
 1424TIP3    H225908   2.135   1.523   1.211
 1425TIP3   OH225909   0.418   2.316   0.556
 1425TIP3    H125910   0.335   2.326   0.510
 1425TIP3    H225911   0.423   2.222   0.578
 1426TIP3   OH225912   3.213   4.990   1.597
 1426TIP3    H125913   3.220   4.997   1.692
 1426TIP3    H225914   3.219   5.081   1.566
 1427TIP3   OH225915   4.877   1.759   7.275
 1427TIP3    H125916   4.889   1.847   7.240
 1427TIP3    H225917   4.962   1.717   7.263
 1428TIP3   OH225918   4.060   4.470   0.671
 1428TIP3    H125919   4.027   4.541   0.615
 1428TIP3    H225920   3.981   4.436   0.714
 1429TIP3   OH225921   5.375   0.979   8.005
 1429TIP3    H125922   5.393   1.004   8.096
 1429TIP3    H225923   5.321   0.900   8.012
 1430TIP3   OH225924   5.133   6.024   8.286
 1430TIP3    H125925   5.200   6.075   8.333
 1430TIP3    H225926   5.182   5.951   8.248
 1431TIP3   OH225927   0.892   5.944   0.295
 1431TIP3    H125928   0.958   5.924   0.229
 1431TIP3    H225929   0.857   6.029   0.269
 1432TIP3   OH225930   6.441   0.785   8.472
 1432TIP3    H125931   6.410   0.852   8.533
 1432TIP3    H225932   6.460   0.834   8.392
 1433TIP3   OH225933   6.525   0.996   8.264
 1433TIP3    H125934   6.550   1.083   8.297
 1433TIP3    H225935   6.578   0.984   8.185
 1434TIP3   OH225936   6.690   6.267   7.195
 1434TIP3    H125937   6.662   6.260   7.104
 1434TIP3    H225938   6.610   6.262   7.246
 1435TIP3   OH225939   0.867   6.575   2.080
 1435TIP3    H125940   0.959   6.571   2.106
 1435TIP3    H225941   0.825   6.504   2.129
 1436TIP3   OH225942   2.865   4.201   6.220
 1436TIP3    H125943   2.895   4.273   6.163
 1436TIP3    H225944   2.945   4.153   6.240
 1437TIP3   OH225945   1.033   6.475   1.422
 1437TIP3    H125946   1.091   6.413   1.379
 1437TIP3    H225947   0.949   6.465   1.377
 1438TIP3   OH225948   0.282   0.233   1.938
 1438TIP3    H125949   0.322   0.162   1.989
 1438TIP3    H225950   0.235   0.188   1.868
 1439TIP3   OH225951   0.375   5.121   8.612
 1439TIP3    H125952   0.380   5.175   8.691
 1439TIP3    H225953   0.298   5.153   8.566
 1440TIP3   OH225954   6.241   4.553   2.128
 1440TIP3    H125955   6.275   4.616   2.191
 1440TIP3    H225956   6.302   4.479   2.131
 1441TIP3   OH225957   0.761   0.113   0.935
 1441TIP3    H125958   0.828   0.180   0.949
 1441TIP3    H225959   0.680   0.163   0.925
 1442TIP3   OH225960   3.475   6.396   0.173
 1442TIP3    H125961   3.545   6.393   0.108
 1442TIP3    H225962   3.457   6.489   0.186
 1443TIP3   OH225963   1.856   5.272   1.175
 1443TIP3    H125964   1.810   5.216   1.113
 1443TIP3    H225965   1.949   5.257   1.155
 1444TIP3   OH225966   3.230   4.676   8.477
 1444TIP3    H125967   3.319   4.697   8.505
 1444TIP3    H225968   3.214   4.733   8.402
 1445TIP3   OH225969   3.886   6.387   8.371
 1445TIP3    H125970   3.832   6.447   8.422
 1445TIP3    H225971   3.970   6.384   8.418
 1446TIP3   OH225972   5.782   4.150   0.509
 1446TIP3    H125973   5.719   4.111   0.569
 1446TIP3    H225974   5.785   4.242   0.533
 1447TIP3   OH225975   0.853   0.462   7.371
 1447TIP3    H125976   0.946   0.454   7.392
 1447TIP3    H225977   0.845   0.546   7.326
 1448TIP3   OH225978   6.656   4.614   0.597
 1448TIP3    H125979   6.568   4.600   0.562
 1448TIP3    H225980   6.649   4.696   0.647
 1449TIP3   OH225981   2.567   2.166   7.448
 1449TIP3    H125982   2.600   2.201   7.366
 1449TIP3    H225983   2.578   2.071   7.439
 1450TIP3   OH225984   0.692   1.246   7.419
 1450TIP3    H125985   0.776   1.239   7.374
 1450TIP3    H225986   0.709   1.306   7.492
 1451TIP3   OH225987   6.279   0.100   0.978
 1451TIP3    H125988   6.192   0.118   1.014
 1451TIP3    H225989   6.328   0.065   1.053
 1452TIP3   OH225990   3.571   5.460   1.108
 1452TIP3    H125991   3.650   5.411   1.131
 1452TIP3    H225992   3.594   5.552   1.125
 1453TIP3   OH225993   3.862   3.716   7.546
 1453TIP3    H125994   3.808   3.637   7.536
 1453TIP3    H225995   3.921   3.696   7.618
 1454TIP3   OH225996   5.618   0.460   1.638
 1454TIP3    H125997   5.641   0.484   1.548
 1454TIP3    H225998   5.531   0.420   1.629
 1455TIP3   OH225999   2.125   5.477   7.145
 1455TIP3    H126000   2.050   5.418   7.136
 1455TIP3    H226001   2.195   5.435   7.094
 1456TIP3   OH226002   2.119   4.317   6.266
 1456TIP3    H126003   2.125   4.402   6.223
 1456TIP3    H226004   2.025   4.295   6.262
 1457TIP3   OH226005   0.675   4.019   0.797
 1457TIP3    H126006   0.587   3.999   0.765
 1457TIP3    H226007   0.710   3.935   0.824
 1458TIP3   OH226008   0.603   2.286   0.279
 1458TIP3    H126009   0.632   2.200   0.308
 1458TIP3    H226010   0.530   2.268   0.220
 1459TIP3   OH226011   1.325   4.427   2.480
 1459TIP3    H126012   1.290   4.434   2.569
 1459TIP3    H226013   1.247   4.430   2.424
 1460TIP3   OH226014   1.948   4.002   0.226
 1460TIP3    H126015   2.017   4.067   0.240
 1460TIP3    H226016   1.947   3.988   0.132
 1461TIP3   OH226017   3.361   0.321   7.661
 1461TIP3    H126018   3.447   0.311   7.701
 1461TIP3    H226019   3.379   0.319   7.566
 1462TIP3   OH226020   3.000   0.451   7.458
 1462TIP3    H126021   3.034   0.469   7.546
 1462TIP3    H226022   2.962   0.363   7.464
 1463TIP3   OH226023   1.729   6.026   1.348
 1463TIP3    H126024   1.813   6.016   1.303
 1463TIP3    H226025   1.664   6.016   1.279
 1464TIP3   OH226026   5.953   1.560   2.580
 1464TIP3    H126027   6.047   1.577   2.590
 1464TIP3    H226028   5.934   1.490   2.643
 1465TIP3   OH226029   5.439   3.519   7.854
 1465TIP3    H126030   5.509   3.573   7.890
 1465TIP3    H226031   5.383   3.499   7.929
 1466TIP3   OH226032   0.878   3.562   7.255
 1466TIP3    H126033   0.883   3.469   7.280
 1466TIP3    H226034   0.960   3.579   7.208
 1467TIP3   OH226035   6.083   5.173   2.471
 1467TIP3    H126036   6.160   5.217   2.507
 1467TIP3    H226037   6.047   5.235   2.408
 1468TIP3   OH226038   2.416   6.292   1.603
 1468TIP3    H126039   2.437   6.255   1.517
 1468TIP3    H226040   2.471   6.244   1.664
 1469TIP3   OH226041   1.810   4.976   0.807
 1469TIP3    H126042   1.781   4.909   0.745
 1469TIP3    H226043   1.853   5.042   0.752
 1470TIP3   OH226044   1.992   0.546   0.913
 1470TIP3    H126045   1.994   0.452   0.898
 1470TIP3    H226046   1.926   0.558   0.981
 1471TIP3   OH226047   3.411   0.425   7.409
 1471TIP3    H126048   3.340   0.448   7.349
 1471TIP3    H226049   3.481   0.488   7.390
 1472TIP3   OH226050   4.753   4.300   7.581
 1472TIP3    H126051   4.716   4.219   7.617
 1472TIP3    H226052   4.846   4.281   7.569
 1473TIP3   OH226053   3.668   0.862   1.503
 1473TIP3    H126054   3.624   0.818   1.431
 1473TIP3    H226055   3.754   0.820   1.509
 1474TIP3   OH226056   4.477   1.249   2.330
 1474TIP3    H126057   4.478   1.154   2.323
 1474TIP3    H226058   4.386   1.271   2.351
 1475TIP3   OH226059   4.694   0.171   8.319
 1475TIP3    H126060   4.639   0.105   8.277
 1475TIP3    H226061   4.758   0.195   8.252
 1476TIP3   OH226062   1.635   4.031   0.023
 1476TIP3    H126063   1.577   3.968   0.066
 1476TIP3    H226064   1.601   4.037  -0.067
 1477TIP3   OH226065   3.614   1.100   8.380
 1477TIP3    H126066   3.702   1.064   8.379
 1477TIP3    H226067   3.607   1.146   8.464
 1478TIP3   OH226068   1.598   0.136   8.966
 1478TIP3    H126069   1.608   0.156   9.059
 1478TIP3    H226070   1.670   0.075   8.947
 1479TIP3   OH226071   4.976   4.431   0.531
 1479TIP3    H126072   5.071   4.435   0.518
 1479TIP3    H226073   4.956   4.337   0.532
 1480TIP3   OH226074   5.642   3.683   0.079
 1480TIP3    H126075   5.710   3.686   0.146
 1480TIP3    H226076   5.564   3.654   0.125
 1481TIP3   OH226077   2.704   6.428   7.796
 1481TIP3    H126078   2.789   6.390   7.775
 1481TIP3    H226079   2.695   6.419   7.891
 1482TIP3   OH226080   4.132   4.537   8.171
 1482TIP3    H126081   4.198   4.518   8.237
 1482TIP3    H226082   4.182   4.561   8.093
 1483TIP3   OH226083   6.231   0.737   8.887
 1483TIP3    H126084   6.271   0.738   8.800
 1483TIP3    H226085   6.277   0.666   8.933
 1484TIP3   OH226086   4.430   2.948   8.201
 1484TIP3    H126087   4.468   2.983   8.281
 1484TIP3    H226088   4.342   2.919   8.227
 1485TIP3   OH226089   2.540   0.999   2.130
 1485TIP3    H126090   2.552   0.986   2.036
 1485TIP3    H226091   2.450   1.028   2.139
 1486TIP3   OH226092   6.288   0.493   0.524
 1486TIP3    H126093   6.277   0.444   0.442
 1486TIP3    H226094   6.371   0.461   0.559
 1487TIP3   OH226095   3.714   0.048   8.607
 1487TIP3    H126096   3.804   0.052   8.638
 1487TIP3    H226097   3.690   0.139   8.590
 1488TIP3   OH226098   1.502   1.397   7.162
 1488TIP3    H126099   1.571   1.436   7.108
 1488TIP3    H226100   1.448   1.348   7.099
 1489TIP3   OH226101   2.137   6.378   1.558
 1489TIP3    H126102   2.230   6.357   1.545
 1489TIP3    H226103   2.136   6.438   1.633
 1490TIP3   OH226104   0.780   5.745   6.448
 1490TIP3    H126105   0.876   5.749   6.445
 1490TIP3    H226106   0.761   5.657   6.482
 1491TIP3   OH226107   5.390   5.051   0.730
 1491TIP3    H126108   5.397   5.139   0.768
 1491TIP3    H226109   5.440   5.057   0.648
 1492TIP3   OH226110   4.818   6.302   1.062
 1492TIP3    H126111   4.831   6.276   0.971
 1492TIP3    H226112   4.883   6.252   1.111
 1493TIP3   OH226113   3.211   0.762   7.495
 1493TIP3    H126114   3.303   0.753   7.521
 1493TIP3    H226115   3.171   0.678   7.520
 1494TIP3   OH226116   5.246   0.586   0.671
 1494TIP3    H126117   5.192   0.652   0.715
 1494TIP3    H226118   5.201   0.568   0.589
 1495TIP3   OH226119   4.405   4.166   0.079
 1495TIP3    H126120   4.424   4.211  -0.003
 1495TIP3    H226121   4.316   4.192   0.102
 1496TIP3   OH226122   1.614   4.440   7.872
 1496TIP3    H126123   1.578   4.511   7.820
 1496TIP3    H226124   1.709   4.455   7.872
 1497TIP3   OH226125   0.250   5.752   1.875
 1497TIP3    H126126   0.307   5.788   1.942
 1497TIP3    H226127   0.161   5.765   1.909
 1498TIP3   OH226128   0.640   2.829   8.163
 1498TIP3    H126129   0.620   2.839   8.070
 1498TIP3    H226130   0.555   2.824   8.206
 1499TIP3   OH226131   2.742   3.387   0.646
 1499TIP3    H126132   2.743   3.315   0.583
 1499TIP3    H226133   2.651   3.416   0.646
 1500TIP3   OH226134   1.077   4.822   7.133
 1500TIP3    H126135   1.025   4.743   7.120
 1500TIP3    H226136   1.062   4.874   7.053
 1501TIP3   OH226137   6.541   0.187   0.490
 1501TIP3    H126138   6.604   0.249   0.455
 1501TIP3    H226139   6.566   0.103   0.451
 1502TIP3   OH226140   0.956   4.940   0.938
 1502TIP3    H126141   0.930   5.032   0.937
 1502TIP3    H226142   0.915   4.903   1.015
 1503TIP3   OH226143   5.990   3.822   6.917
 1503TIP3    H126144   5.915   3.847   6.862
 1503TIP3    H226145   5.986   3.726   6.918
 1504TIP3   OH226146   5.650   1.133   2.025
 1504TIP3    H126147   5.741   1.163   2.029
 1504TIP3    H226148   5.615   1.154   2.112
 1505TIP3   OH226149   0.144   6.375   7.239
 1505TIP3    H126150   0.060   6.334   7.256
 1505TIP3    H226151   0.162   6.357   7.146
 1506TIP3   OH226152   3.627   2.816   6.873
 1506TIP3    H126153   3.550   2.827   6.929
 1506TIP3    H226154   3.700   2.806   6.935
 1507TIP3   OH226155   1.180   3.686   1.214
 1507TIP3    H126156   1.149   3.597   1.231
 1507TIP3    H226157   1.101   3.740   1.221
 1508TIP3   OH226158   0.635   2.995   2.471
 1508TIP3    H126159   0.649   2.954   2.385
 1508TIP3    H226160   0.711   3.051   2.484
 1509TIP3   OH226161   6.012   2.164   0.909
 1509TIP3    H126162   5.975   2.182   0.823
 1509TIP3    H226163   5.942   2.118   0.956
 1510TIP3   OH226164   3.240   5.901   1.860
 1510TIP3    H126165   3.146   5.914   1.844
 1510TIP3    H226166   3.244   5.830   1.923
 1511TIP3   OH226167   6.156   1.523   8.598
 1511TIP3    H126168   6.231   1.541   8.542
 1511TIP3    H226169   6.088   1.583   8.568
 1512TIP3   OH226170   1.787   1.480   7.942
 1512TIP3    H126171   1.791   1.500   8.035
 1512TIP3    H226172   1.820   1.559   7.899
 1513TIP3   OH226173   3.293   0.141   2.173
 1513TIP3    H126174   3.204   0.152   2.139
 1513TIP3    H226175   3.304   0.046   2.180
 1514TIP3   OH226176   1.816   1.922   8.124
 1514TIP3    H126177   1.890   1.984   8.128
 1514TIP3    H226178   1.820   1.875   8.207
 1515TIP3   OH226179   5.177   0.581   1.401
 1515TIP3    H126180   5.159   0.540   1.316
 1515TIP3    H226181   5.091   0.594   1.440
 1516TIP3   OH226182   1.955   0.435   7.534
 1516TIP3    H126183   1.864   0.441   7.505
 1516TIP3    H226184   1.998   0.383   7.467
 1517TIP3   OH226185   1.305   6.785   1.253
 1517TIP3    H126186   1.249   6.862   1.244
 1517TIP3    H226187   1.275   6.743   1.334
 1518TIP3   OH226188   0.688   2.847   7.464
 1518TIP3    H126189   0.774   2.809   7.482
 1518TIP3    H226190   0.626   2.786   7.503
 1519TIP3   OH226191   3.478   5.273   7.812
 1519TIP3    H126192   3.454   5.184   7.835
 1519TIP3    H226193   3.396   5.323   7.823
 1520TIP3   OH226194   6.472   2.477   6.735
 1520TIP3    H126195   6.385   2.449   6.708
 1520TIP3    H226196   6.500   2.538   6.666
 1521TIP3   OH226197   0.901   3.516   0.709
 1521TIP3    H126198   0.858   3.505   0.794
 1521TIP3    H226199   0.994   3.528   0.730
 1522TIP3   OH226200   6.571   5.456   2.358
 1522TIP3    H126201   6.598   5.386   2.298
 1522TIP3    H226202   6.653   5.490   2.393
 1523TIP3   OH226203   4.425   3.366   1.563
 1523TIP3    H126204   4.515   3.346   1.588
 1523TIP3    H226205   4.432   3.415   1.481
 1524TIP3   OH226206   3.508   5.167   7.250
 1524TIP3    H126207   3.476   5.108   7.319
 1524TIP3    H226208   3.584   5.122   7.215
 1525TIP3   OH226209   5.107   0.217   7.910
 1525TIP3    H126210   5.168   0.153   7.946
 1525TIP3    H226211   5.135   0.301   7.946
 1526TIP3   OH226212   4.027   3.880   7.212
 1526TIP3    H126213   4.017   3.906   7.120
 1526TIP3    H226214   3.938   3.883   7.247
 1527TIP3   OH226215   2.890   3.566   0.061
 1527TIP3    H126216   2.824   3.624   0.100
 1527TIP3    H226217   2.846   3.526  -0.014
 1528TIP3   OH226218   5.226   0.082   7.697
 1528TIP3    H126219   5.221   0.063   7.603
 1528TIP3    H226220   5.319   0.073   7.718
 1529TIP3   OH226221   6.686   4.832   0.775
 1529TIP3    H126222   6.774   4.801   0.795
 1529TIP3    H226223   6.680   4.918   0.818
 1530TIP3   OH226224   4.493   4.614   7.679
 1530TIP3    H126225   4.509   4.542   7.618
 1530TIP3    H226226   4.515   4.578   7.765
 1531TIP3   OH226227   0.374   3.598   1.939
 1531TIP3    H126228   0.463   3.579   1.911
 1531TIP3    H226229   0.352   3.526   1.998
 1532TIP3   OH226230   1.405   0.668   8.354
 1532TIP3    H126231   1.379   0.612   8.280
 1532TIP3    H226232   1.442   0.607   8.418
 1533TIP3   OH226233   5.930   0.933   0.541
 1533TIP3    H126234   6.019   0.897   0.534
 1533TIP3    H226235   5.931   1.009   0.482
 1534TIP3   OH226236   2.459   5.681   6.200
 1534TIP3    H126237   2.528   5.728   6.153
 1534TIP3    H226238   2.476   5.589   6.182
 1535TIP3   OH226239   6.637   5.802   2.442
 1535TIP3    H126240   6.664   5.760   2.525
 1535TIP3    H226241   6.542   5.794   2.441
 1536TIP3   OH226242   3.140   1.464   1.177
 1536TIP3    H126243   3.114   1.429   1.092
 1536TIP3    H226244   3.185   1.545   1.157
 1537TIP3   OH226245   4.464   1.505   2.140
 1537TIP3    H126246   4.477   1.594   2.108
 1537TIP3    H226247   4.390   1.512   2.200
 1538TIP3   OH226248   3.516   0.119   8.978
 1538TIP3    H126249   3.568   0.060   8.923
 1538TIP3    H226250   3.555   0.205   8.964
 1539TIP3   OH226251   3.564   3.519   7.603
 1539TIP3    H126252   3.608   3.516   7.688
 1539TIP3    H226253   3.632   3.493   7.541
 1540TIP3   OH226254   2.140   4.512   0.458
 1540TIP3    H126255   2.231   4.518   0.428
 1540TIP3    H226256   2.120   4.600   0.491
 1541TIP3   OH226257   6.548   0.129   7.770
 1541TIP3    H126258   6.459   0.132   7.804
 1541TIP3    H226259   6.574   0.037   7.776
 1542TIP3   OH226260   6.728   0.406   2.610
 1542TIP3    H126261   6.712   0.438   2.699
 1542TIP3    H226262   6.640   0.386   2.577
 1543TIP3   OH226263   5.446   0.742   7.038
 1543TIP3    H126264   5.499   0.772   6.964
 1543TIP3    H226265   5.466   0.804   7.108
 1544TIP3   OH226266   3.845   4.605   1.535
 1544TIP3    H126267   3.904   4.608   1.459
 1544TIP3    H226268   3.886   4.662   1.599
 1545TIP3   OH226269   3.084   4.298   7.850
 1545TIP3    H126270   3.008   4.332   7.803
 1545TIP3    H226271   3.140   4.261   7.782
 1546TIP3   OH226272   6.055   1.038   7.584
 1546TIP3    H126273   6.021   1.000   7.665
 1546TIP3    H226274   6.148   1.051   7.602
 1547TIP3   OH226275   1.677   2.713   0.595
 1547TIP3    H126276   1.649   2.627   0.565
 1547TIP3    H226277   1.764   2.698   0.632
 1548TIP3   OH226278   2.195   3.603   8.025
 1548TIP3    H126279   2.131   3.671   8.045
 1548TIP3    H226280   2.276   3.631   8.069
 1549TIP3   OH226281   6.394   2.260   7.977
 1549TIP3    H126282   6.370   2.336   8.030
 1549TIP3    H226283   6.368   2.284   7.888
 1550TIP3   OH226284   0.657   5.761   1.948
 1550TIP3    H126285   0.694   5.813   2.019
 1550TIP3    H226286   0.569   5.740   1.977
 1551TIP3   OH226287   4.765   4.351   1.758
 1551TIP3    H126288   4.803   4.273   1.719
 1551TIP3    H226289   4.773   4.337   1.852
 1552TIP3   OH226290   6.503   6.646   7.358
 1552TIP3    H126291   6.513   6.741   7.356
 1552TIP3    H226292   6.417   6.630   7.321
 1553TIP3   OH226293   1.782   2.626   1.525
 1553TIP3    H126294   1.825   2.650   1.607
 1553TIP3    H226295   1.806   2.534   1.512
 1554TIP3   OH226296   5.722   5.228   0.172
 1554TIP3    H126297   5.653   5.289   0.148
 1554TIP3    H226298   5.679   5.142   0.173
 1555TIP3   OH226299   6.569   2.855   1.413
 1555TIP3    H126300   6.504   2.819   1.473
 1555TIP3    H226301   6.518   2.899   1.345
 1556TIP3   OH226302   3.187   0.413   7.243
 1556TIP3    H126303   3.167   0.490   7.190
 1556TIP3    H226304   3.126   0.417   7.316
 1557TIP3   OH226305   1.373   2.156   8.960
 1557TIP3    H126306   1.370   2.131   9.053
 1557TIP3    H226307   1.334   2.244   8.958
 1558TIP3   OH226308   5.913   3.843   7.964
 1558TIP3    H126309   5.932   3.934   7.986
 1558TIP3    H226310   5.864   3.810   8.039
 1559TIP3   OH226311   6.496   1.588   7.573
 1559TIP3    H126312   6.451   1.508   7.601
 1559TIP3    H226313   6.471   1.598   7.481
 1560TIP3   OH226314   6.571   3.573   8.205
 1560TIP3    H126315   6.651   3.603   8.249
 1560TIP3    H226316   6.573   3.478   8.214
 1561TIP3   OH226317   4.373   6.739   7.423
 1561TIP3    H126318   4.442   6.726   7.359
 1561TIP3    H226319   4.292   6.727   7.373
 1562TIP3   OH226320   5.443   5.891   8.698
 1562TIP3    H126321   5.458   5.924   8.786
 1562TIP3    H226322   5.527   5.901   8.654
 1563TIP3   OH226323   3.877   5.943   0.487
 1563TIP3    H126324   3.863   5.946   0.582
 1563TIP3    H226325   3.789   5.949   0.449
 1564TIP3   OH226326   5.357   4.203   2.029
 1564TIP3    H126327   5.342   4.161   2.114
 1564TIP3    H226328   5.295   4.276   2.027
 1565TIP3   OH226329   1.493   4.697   1.817
 1565TIP3    H126330   1.449   4.612   1.805
 1565TIP3    H226331   1.546   4.707   1.738
 1566TIP3   OH226332   6.368   3.978   8.582
 1566TIP3    H126333   6.394   4.070   8.581
 1566TIP3    H226334   6.317   3.966   8.502
 1567TIP3   OH226335   2.220   2.190   1.586
 1567TIP3    H126336   2.145   2.132   1.593
 1567TIP3    H226337   2.215   2.224   1.497
 1568TIP3   OH226338   2.548   1.870   8.711
 1568TIP3    H126339   2.641   1.850   8.696
 1568TIP3    H226340   2.539   1.962   8.687
 1569TIP3   OH226341   2.428   5.093   7.178
 1569TIP3    H126342   2.410   5.074   7.086
 1569TIP3    H226343   2.476   5.175   7.177
 1570TIP3   OH226344   3.802   2.468   0.516
 1570TIP3    H126345   3.709   2.453   0.535
 1570TIP3    H226346   3.829   2.393   0.464
 1571TIP3   OH226347   2.188   4.958   1.627
 1571TIP3    H126348   2.140   4.958   1.544
 1571TIP3    H226349   2.125   4.925   1.691
 1572TIP3   OH226350   4.833   2.599   1.136
 1572TIP3    H126351   4.879   2.606   1.053
 1572TIP3    H226352   4.860   2.514   1.171
 1573TIP3   OH226353   2.337   4.702   1.695
 1573TIP3    H126354   2.246   4.724   1.675
 1573TIP3    H226355   2.342   4.704   1.790
 1574TIP3   OH226356   5.749   2.100   8.187
 1574TIP3    H126357   5.674   2.117   8.130
 1574TIP3    H226358   5.740   2.008   8.211
 1575TIP3   OH226359   2.618   5.199   8.443
 1575TIP3    H126360   2.667   5.216   8.363
 1575TIP3    H226361   2.680   5.155   8.500
 1576TIP3   OH226362   5.043   4.963   8.561
 1576TIP3    H126363   5.086   5.007   8.488
 1576TIP3    H226364   4.989   5.031   8.602
 1577TIP3   OH226365   5.615   4.746   0.138
 1577TIP3    H126366   5.603   4.731   0.044
 1577TIP3    H226367   5.584   4.665   0.179
 1578TIP3   OH226368   3.633   0.167   1.227
 1578TIP3    H126369   3.590   0.117   1.297
 1578TIP3    H226370   3.711   0.116   1.206
 1579TIP3   OH226371   0.013   0.980   8.409
 1579TIP3    H126372  -0.069   0.973   8.360
 1579TIP3    H226373   0.068   0.909   8.376
 1580TIP3   OH226374   1.014   2.610   7.720
 1580TIP3    H126375   1.076   2.543   7.749
 1580TIP3    H226376   0.968   2.636   7.801
 1581TIP3   OH226377   3.020   0.987   8.923
 1581TIP3    H126378   3.050   1.059   8.869
 1581TIP3    H226379   2.937   1.016   8.960
 1582TIP3   OH226380   1.273   1.984   1.323
 1582TIP3    H126381   1.209   1.919   1.297
 1582TIP3    H226382   1.308   2.018   1.241
 1583TIP3   OH226383   3.684   2.947   1.046
 1583TIP3    H126384   3.661   2.867   0.998
 1583TIP3    H226385   3.759   2.983   0.999
 1584TIP3   OH226386   1.690   5.090   0.442
 1584TIP3    H126387   1.596   5.107   0.437
 1584TIP3    H226388   1.697   5.002   0.479
 1585TIP3   OH226389   0.500   5.769   1.044
 1585TIP3    H126390   0.536   5.839   1.099
 1585TIP3    H226391   0.454   5.712   1.104
 1586TIP3   OH226392   0.493   2.756   2.155
 1586TIP3    H126393   0.578   2.791   2.183
 1586TIP3    H226394   0.468   2.698   2.226
 1587TIP3   OH226395   4.341   5.943   8.249
 1587TIP3    H126396   4.381   6.010   8.194
 1587TIP3    H226397   4.298   5.993   8.319
 1588TIP3   OH226398   4.545   3.018   8.455
 1588TIP3    H126399   4.629   2.979   8.479
 1588TIP3    H226400   4.518   3.066   8.534
 1589TIP3   OH226401   1.492   3.355   7.190
 1589TIP3    H126402   1.537   3.412   7.128
 1589TIP3    H226403   1.561   3.324   7.249
 1590TIP3   OH226404   5.326   5.711   7.988
 1590TIP3    H126405   5.274   5.697   8.067
 1590TIP3    H226406   5.265   5.750   7.925
 1591TIP3   OH226407   2.962   4.840   1.912
 1591TIP3    H126408   3.023   4.768   1.922
 1591TIP3    H226409   2.883   4.800   1.875
 1592TIP3   OH226410   5.627   4.698   8.823
 1592TIP3    H126411   5.555   4.637   8.807
 1592TIP3    H226412   5.644   4.737   8.738
 1593TIP3   OH226413   5.423   6.008   8.926
 1593TIP3    H126414   5.352   5.987   8.987
 1593TIP3    H226415   5.461   6.089   8.959
 1594TIP3   OH226416   4.539   6.354   7.392
 1594TIP3    H126417   4.622   6.327   7.353
 1594TIP3    H226418   4.517   6.284   7.453
 1595TIP3   OH226419   3.555   5.847   8.194
 1595TIP3    H126420   3.486   5.835   8.260
 1595TIP3    H226421   3.632   5.804   8.232
 1596TIP3   OH226422   4.438   0.194   7.829
 1596TIP3    H126423   4.527   0.164   7.814
 1596TIP3    H226424   4.382   0.130   7.786
 1597TIP3   OH226425   6.349   2.609   8.600
 1597TIP3    H126426   6.395   2.652   8.528
 1597TIP3    H226427   6.341   2.678   8.666
 1598TIP3   OH226428   5.543   1.186   0.190
 1598TIP3    H126429   5.496   1.253   0.140
 1598TIP3    H226430   5.636   1.207   0.175
 1599TIP3   OH226431   3.307   6.279   7.000
 1599TIP3    H126432   3.343   6.302   6.915
 1599TIP3    H226433   3.212   6.294   6.991
 1600TIP3   OH226434   6.130   3.286   8.518
 1600TIP3    H126435   6.153   3.240   8.437
 1600TIP3    H226436   6.039   3.262   8.534
 1601TIP3   OH226437   1.100   6.751   1.978
 1601TIP3    H126438   1.161   6.678   1.978
 1601TIP3    H226439   1.110   6.791   1.892
 1602TIP3   OH226440   5.417   3.588   8.712
 1602TIP3    H126441   5.331   3.595   8.753
 1602TIP3    H226442   5.450   3.678   8.710
 1603TIP3   OH226443   4.103   6.711   7.347
 1603TIP3    H126444   4.038   6.780   7.359
 1603TIP3    H226445   4.075   6.664   7.269
 1604TIP3   OH226446   2.121   2.097   1.941
 1604TIP3    H126447   2.085   2.061   1.860
 1604TIP3    H226448   2.046   2.137   1.985
 1605TIP3   OH226449   0.473   3.246   8.021
 1605TIP3    H126450   0.552   3.193   8.033
 1605TIP3    H226451   0.504   3.327   7.982
 1606TIP3   OH226452   1.970   3.138   7.162
 1606TIP3    H126453   1.997   3.183   7.243
 1606TIP3    H226454   1.955   3.048   7.190
 1607TIP3   OH226455   0.722   1.791   8.153
 1607TIP3    H126456   0.692   1.800   8.243
 1607TIP3    H226457   0.790   1.858   8.144
 1608TIP3   OH226458   3.332   2.156   1.102
 1608TIP3    H126459   3.336   2.198   1.188
 1608TIP3    H226460   3.375   2.218   1.043
 1609TIP3   OH226461   4.729   1.834   6.442
 1609TIP3    H126462   4.774   1.752   6.422
 1609TIP3    H226463   4.640   1.821   6.409
 1610TIP3   OH226464   0.097   3.463   1.106
 1610TIP3    H126465   0.054   3.377   1.113
 1610TIP3    H226466   0.183   3.450   1.146
 1611TIP3   OH226467   2.259   3.228   0.637
 1611TIP3    H126468   2.225   3.182   0.714
 1611TIP3    H226469   2.198   3.301   0.625
 1612TIP3   OH226470   3.897   1.926   7.039
 1612TIP3    H126471   3.881   2.006   6.988
 1612TIP3    H226472   3.896   1.856   6.973
 1613TIP3   OH226473   5.000   1.426   7.661
 1613TIP3    H126474   4.947   1.394   7.588
 1613TIP3    H226475   4.938   1.436   7.734
 1614TIP3   OH226476   0.416   2.199   7.421
 1614TIP3    H126477   0.350   2.267   7.406
 1614TIP3    H226478   0.366   2.117   7.417
 1615TIP3   OH226479   2.858   4.878   0.445
 1615TIP3    H126480   2.861   4.796   0.397
 1615TIP3    H226481   2.854   4.851   0.537
 1616TIP3   OH226482   4.136   2.325   7.584
 1616TIP3    H126483   4.066   2.267   7.613
 1616TIP3    H226484   4.192   2.270   7.530
 1617TIP3   OH226485   4.553   5.097   8.817
 1617TIP3    H126486   4.505   5.115   8.897
 1617TIP3    H226487   4.636   5.060   8.847
 1618TIP3   OH226488   3.881   5.447   0.813
 1618TIP3    H126489   3.970   5.417   0.831
 1618TIP3    H226490   3.825   5.376   0.844
 1619TIP3   OH226491   0.446   5.360   0.380
 1619TIP3    H126492   0.438   5.373   0.285
 1619TIP3    H226493   0.536   5.331   0.393
 1620TIP3   OH226494   1.476   4.771   8.393
 1620TIP3    H126495   1.382   4.766   8.413
 1620TIP3    H226496   1.515   4.702   8.446
 1621TIP3   OH226497   0.689   3.029   1.499
 1621TIP3    H126498   0.608   3.015   1.549
 1621TIP3    H226499   0.695   3.124   1.491
 1622TIP3   OH226500   1.219   6.487   1.933
 1622TIP3    H126501   1.187   6.486   1.842
 1622TIP3    H226502   1.310   6.459   1.926
 1623TIP3   OH226503   4.929   6.027   1.307
 1623TIP3    H126504   4.847   6.007   1.353
 1623TIP3    H226505   4.997   6.005   1.370
 1624TIP3   OH226506   2.347   3.868   1.586
 1624TIP3    H126507   2.375   3.950   1.628
 1624TIP3    H226508   2.263   3.849   1.626
 1625TIP3   OH226509   2.692   5.307   7.447
 1625TIP3    H126510   2.673   5.371   7.378
 1625TIP3    H226511   2.655   5.225   7.416
 1626TIP3   OH226512   4.038   3.614   1.203
 1626TIP3    H126513   3.988   3.569   1.272
 1626TIP3    H226514   4.098   3.547   1.171
 1627TIP3   OH226515   1.329   6.365   0.579
 1627TIP3    H126516   1.272   6.312   0.634
 1627TIP3    H226517   1.377   6.421   0.641
 1628TIP3   OH226518   3.589   0.422   1.331
 1628TIP3    H126519   3.599   0.393   1.422
 1628TIP3    H226520   3.624   0.349   1.279
 1629TIP3   OH226521   6.439   0.298   8.853
 1629TIP3    H126522   6.499   0.224   8.843
 1629TIP3    H226523   6.495   0.375   8.851
 1630TIP3   OH226524   0.207   1.930   8.024
 1630TIP3    H126525   0.289   1.881   8.019
 1630TIP3    H226526   0.187   1.953   7.934
 1631TIP3   OH226527   4.717   2.863   0.520
 1631TIP3    H126528   4.639   2.829   0.476
 1631TIP3    H226529   4.751   2.929   0.461
 1632TIP3   OH226530   1.315   1.431   8.650
 1632TIP3    H126531   1.260   1.478   8.712
 1632TIP3    H226532   1.295   1.469   8.565
 1633TIP3   OH226533   5.279   3.131   7.463
 1633TIP3    H126534   5.188   3.126   7.435
 1633TIP3    H226535   5.320   3.190   7.400
 1634TIP3   OH226536   0.142   2.749   0.364
 1634TIP3    H126537   0.102   2.669   0.397
 1634TIP3    H226538   0.210   2.770   0.427
 1635TIP3   OH226539   2.285   0.158   6.778
 1635TIP3    H126540   2.315   0.194   6.694
 1635TIP3    H226541   2.334   0.207   6.844
 1636TIP3   OH226542   6.131   5.560   0.046
 1636TIP3    H126543   6.097   5.479   0.085
 1636TIP3    H226544   6.221   5.539   0.022
 1637TIP3   OH226545   4.905   5.108   1.044
 1637TIP3    H126546   4.938   5.039   0.988
 1637TIP3    H226547   4.978   5.129   1.103
 1638TIP3   OH226548   4.200   2.309   1.135
 1638TIP3    H126549   4.163   2.332   1.221
 1638TIP3    H226550   4.230   2.392   1.099
 1639TIP3   OH226551   2.642   1.482   8.806
 1639TIP3    H126552   2.633   1.495   8.711
 1639TIP3    H226553   2.568   1.427   8.830
 1640TIP3   OH226554   1.024   5.432   0.240
 1640TIP3    H126555   0.991   5.356   0.288
 1640TIP3    H226556   1.119   5.419   0.238
 1641TIP3   OH226557   1.635   1.714   7.771
 1641TIP3    H126558   1.569   1.760   7.824
 1641TIP3    H226559   1.719   1.747   7.803
 1642TIP3   OH226560   4.010   6.680   1.236
 1642TIP3    H126561   4.042   6.721   1.156
 1642TIP3    H226562   3.915   6.678   1.226
 1643TIP3   OH226563   3.216   5.071   7.511
 1643TIP3    H126564   3.126   5.092   7.485
 1643TIP3    H226565   3.225   4.977   7.494
 1644TIP3   OH226566   5.628   1.151   6.709
 1644TIP3    H126567   5.539   1.134   6.676
 1644TIP3    H226568   5.635   1.246   6.710
 1645TIP3   OH226569   0.051   6.791   1.246
 1645TIP3    H126570  -0.001   6.734   1.189
 1645TIP3    H226571   0.134   6.802   1.200
 1646TIP3   OH226572   6.187   4.882   0.699
 1646TIP3    H126573   6.094   4.884   0.673
 1646TIP3    H226574   6.233   4.919   0.624
 1647TIP3   OH226575   0.025   2.220   7.216
 1647TIP3    H126576   0.112   2.260   7.225
 1647TIP3    H226577  -0.031   2.274   7.272
 1648TIP3   OH226578   0.875   0.071   6.436
 1648TIP3    H126579   0.932   0.044   6.508
 1648TIP3    H226580   0.881   0.167   6.436
 1649TIP3   OH226581   3.174   0.749   6.786
 1649TIP3    H126582   3.167   0.655   6.770
 1649TIP3    H226583   3.116   0.788   6.721
 1650TIP3   OH226584   6.421   4.460   1.333
 1650TIP3    H126585   6.444   4.383   1.385
 1650TIP3    H226586   6.326   4.469   1.344
 1651TIP3   OH226587   3.412   6.605   1.632
 1651TIP3    H126588   3.462   6.577   1.709
 1651TIP3    H226589   3.372   6.524   1.599
 1652TIP3   OH226590   3.361   0.860   8.948
 1652TIP3    H126591   3.266   0.853   8.960
 1652TIP3    H226592   3.393   0.898   9.030
 1653TIP3   OH226593   2.063   5.719   7.258
 1653TIP3    H126594   2.065   5.635   7.214
 1653TIP3    H226595   2.083   5.783   7.189
 1654TIP3   OH226596   3.719   6.585   2.069
 1654TIP3    H126597   3.812   6.560   2.064
 1654TIP3    H226598   3.716   6.653   2.136
 1655TIP3   OH226599   1.328   5.135   6.996
 1655TIP3    H126600   1.264   5.130   6.926
 1655TIP3    H226601   1.379   5.213   6.977
 1656TIP3   OH226602   1.988   4.103   8.238
 1656TIP3    H126603   1.971   4.046   8.163
 1656TIP3    H226604   1.970   4.191   8.206
 1657TIP3   OH226605   4.473   1.210   1.515
 1657TIP3    H126606   4.485   1.282   1.577
 1657TIP3    H226607   4.392   1.232   1.468
 1658TIP3   OH226608   1.063   1.141   6.800
 1658TIP3    H126609   1.084   1.234   6.794
 1658TIP3    H226610   1.121   1.099   6.737
 1659TIP3   OH226611   1.566   2.276   8.688
 1659TIP3    H126612   1.541   2.280   8.781
 1659TIP3    H226613   1.486   2.293   8.640
 1660TIP3   OH226614   2.444   1.068   7.818
 1660TIP3    H126615   2.512   1.036   7.758
 1660TIP3    H226616   2.461   1.021   7.900
 1661TIP3   OH226617   2.472   5.019   8.600
 1661TIP3    H126618   2.515   5.077   8.538
 1661TIP3    H226619   2.543   4.964   8.634
 1662TIP3   OH226620   4.120   2.196   0.853
 1662TIP3    H126621   4.169   2.224   0.930
 1662TIP3    H226622   4.095   2.106   0.871
 1663TIP3   OH226623   0.849   5.884   1.555
 1663TIP3    H126624   0.868   5.851   1.467
 1663TIP3    H226625   0.929   5.870   1.605
 1664TIP3   OH226626   5.387   4.202   7.971
 1664TIP3    H126627   5.483   4.206   7.970
 1664TIP3    H226628   5.360   4.294   7.968
 1665TIP3   OH226629   4.317   3.297   7.328
 1665TIP3    H126630   4.403   3.334   7.308
 1665TIP3    H226631   4.257   3.345   7.271
 1666TIP3   OH226632   6.550   1.227   0.779
 1666TIP3    H126633   6.632   1.201   0.737
 1666TIP3    H226634   6.534   1.158   0.844
 1667TIP3   OH226635   6.550   6.085   8.760
 1667TIP3    H126636   6.510   6.002   8.788
 1667TIP3    H226637   6.639   6.082   8.794
 1668TIP3   OH226638   5.415   2.739   7.914
 1668TIP3    H126639   5.380   2.661   7.956
 1668TIP3    H226640   5.345   2.803   7.919
 1669TIP3   OH226641   5.661   1.409   7.610
 1669TIP3    H126642   5.756   1.402   7.615
 1669TIP3    H226643   5.628   1.329   7.650
 1670TIP3   OH226644   1.632   5.313   7.220
 1670TIP3    H126645   1.662   5.306   7.129
 1670TIP3    H226646   1.601   5.403   7.228
 1671TIP3   OH226647   3.533   5.098   6.810
 1671TIP3    H126648   3.502   5.021   6.857
 1671TIP3    H226649   3.516   5.171   6.869
 1672TIP3   OH226650   3.773   6.776   2.252
 1672TIP3    H126651   3.743   6.833   2.322
 1672TIP3    H226652   3.853   6.736   2.285
 1673TIP3   OH226653   6.144   5.201   1.134
 1673TIP3    H126654   6.053   5.209   1.162
 1673TIP3    H226655   6.145   5.124   1.078
 1674TIP3   OH226656   1.810   2.139   0.143
 1674TIP3    H126657   1.817   2.063   0.085
 1674TIP3    H226658   1.752   2.199   0.097
 1675TIP3   OH226659   1.570   5.730   0.132
 1675TIP3    H126660   1.560   5.809   0.186
 1675TIP3    H226661   1.642   5.682   0.174
 1676TIP3   OH226662   5.917   3.557   7.249
 1676TIP3    H126663   5.867   3.628   7.209
 1676TIP3    H226664   5.932   3.586   7.339
 1677TIP3   OH226665   5.077   1.811   8.357
 1677TIP3    H126666   5.071   1.906   8.361
 1677TIP3    H226667   4.993   1.780   8.390
 1678TIP3   OH226668   1.263   3.059   1.477
 1678TIP3    H126669   1.291   3.033   1.389
 1678TIP3    H226670   1.327   3.124   1.505
 1679TIP3   OH226671   5.475   4.174   0.062
 1679TIP3    H126672   5.523   4.095   0.039
 1679TIP3    H226673   5.420   4.148   0.136
 1680TIP3   OH226674   1.602   6.583   1.417
 1680TIP3    H126675   1.516   6.604   1.452
 1680TIP3    H226676   1.585   6.525   1.342
 1681TIP3   OH226677   6.190   6.646   1.459
 1681TIP3    H126678   6.170   6.614   1.371
 1681TIP3    H226679   6.248   6.721   1.445
 1682TIP3   OH226680   1.275   3.337   8.878
 1682TIP3    H126681   1.211   3.323   8.948
 1682TIP3    H226682   1.300   3.249   8.850
 1683TIP3   OH226683   2.122   4.428   2.042
 1683TIP3    H126684   2.194   4.370   2.017
 1683TIP3    H226685   2.122   4.426   2.138
 1684TIP3   OH226686   2.143   5.155   7.012
 1684TIP3    H126687   2.080   5.205   7.063
 1684TIP3    H226688   2.090   5.103   6.952
 1685TIP3   OH226689   1.580   4.032   8.716
 1685TIP3    H126690   1.487   4.012   8.703
 1685TIP3    H226691   1.621   4.011   8.633
 1686TIP3   OH226692   5.924   2.988   0.772
 1686TIP3    H126693   5.933   3.024   0.861
 1686TIP3    H226694   5.937   2.893   0.784
 1687TIP3   OH226695   1.911   1.337   0.791
 1687TIP3    H126696   1.938   1.337   0.700
 1687TIP3    H226697   1.823   1.300   0.790
 1688TIP3   OH226698   3.034   5.199   8.761
 1688TIP3    H126699   3.087   5.119   8.759
 1688TIP3    H226700   3.000   5.202   8.851
 1689TIP3   OH226701   4.448   1.796   7.398
 1689TIP3    H126702   4.363   1.826   7.431
 1689TIP3    H226703   4.478   1.866   7.340
 1690TIP3   OH226704   3.800   0.332   2.172
 1690TIP3    H126705   3.848   0.318   2.253
 1690TIP3    H226706   3.812   0.425   2.153
 1691TIP3   OH226707   3.422   4.548   8.135
 1691TIP3    H126708   3.449   4.638   8.157
 1691TIP3    H226709   3.461   4.494   8.204
 1692TIP3   OH226710   2.953   3.180   0.684
 1692TIP3    H126711   2.904   3.214   0.609
 1692TIP3    H226712   2.996   3.257   0.722
 1693TIP3   OH226713   2.191   2.688   0.423
 1693TIP3    H126714   2.222   2.672   0.334
 1693TIP3    H226715   2.103   2.723   0.412
 1694TIP3   OH226716   1.627   5.387   1.943
 1694TIP3    H126717   1.660   5.446   2.011
 1694TIP3    H226718   1.633   5.300   1.983
 1695TIP3   OH226719   6.747   6.107   6.553
 1695TIP3    H126720   6.697   6.040   6.600
 1695TIP3    H226721   6.787   6.060   6.479
 1696TIP3   OH226722   0.629   4.022   8.208
 1696TIP3    H126723   0.664   3.937   8.182
 1696TIP3    H226724   0.581   4.004   8.289
 1697TIP3   OH226725   3.257   3.056   7.021
 1697TIP3    H126726   3.170   3.048   6.983
 1697TIP3    H226727   3.249   3.127   7.084
 1698TIP3   OH226728   4.525   2.186   0.162
 1698TIP3    H126729   4.444   2.136   0.157
 1698TIP3    H226730   4.583   2.134   0.218
 1699TIP3   OH226731   0.221   4.500   6.927
 1699TIP3    H126732   0.202   4.491   6.834
 1699TIP3    H226733   0.311   4.530   6.931
 1700TIP3   OH226734   0.759   4.244   0.382
 1700TIP3    H126735   0.794   4.158   0.359
 1700TIP3    H226736   0.830   4.305   0.363
 1701TIP3   OH226737   5.409   4.252   1.435
 1701TIP3    H126738   5.323   4.212   1.424
 1701TIP3    H226739   5.470   4.178   1.438
 1702TIP3   OH226740   2.588   2.697   0.626
 1702TIP3    H126741   2.536   2.631   0.580
 1702TIP3    H226742   2.674   2.692   0.584
 1703TIP3   OH226743   0.054   5.292   1.853
 1703TIP3    H126744   0.017   5.316   1.768
 1703TIP3    H226745  -0.019   5.253   1.901
 1704TIP3   OH226746   0.700   2.126   1.050
 1704TIP3    H126747   0.641   2.069   1.000
 1704TIP3    H226748   0.704   2.207   0.999
 1705TIP3   OH226749   5.920   4.452   7.271
 1705TIP3    H126750   5.989   4.410   7.221
 1705TIP3    H226751   5.885   4.383   7.328
 1706TIP3   OH226752   2.772   0.539   1.527
 1706TIP3    H126753   2.774   0.635   1.535
 1706TIP3    H226754   2.809   0.508   1.610
 1707TIP3   OH226755   4.612   3.126   8.749
 1707TIP3    H126756   4.699   3.087   8.739
 1707TIP3    H226757   4.587   3.105   8.839
 1708TIP3   OH226758   6.179   6.053   0.916
 1708TIP3    H126759   6.208   6.085   1.002
 1708TIP3    H226760   6.168   6.133   0.864
 1709TIP3   OH226761   4.897   5.163   0.635
 1709TIP3    H126762   4.814   5.119   0.620
 1709TIP3    H226763   4.959   5.091   0.653
 1710TIP3   OH226764   4.183   1.684   6.270
 1710TIP3    H126765   4.215   1.610   6.217
 1710TIP3    H226766   4.088   1.683   6.258
 1711TIP3   OH226767   3.819   6.590   7.494
 1711TIP3    H126768   3.855   6.502   7.487
 1711TIP3    H226769   3.779   6.593   7.581
 1712TIP3   OH226770   0.349   6.302   8.242
 1712TIP3    H126771   0.292   6.281   8.168
 1712TIP3    H226772   0.398   6.380   8.213
 1713TIP3   OH226773   4.305   0.203   0.596
 1713TIP3    H126774   4.350   0.243   0.670
 1713TIP3    H226775   4.230   0.260   0.579
 1714TIP3   OH226776   1.816   6.400   7.392
 1714TIP3    H126777   1.742   6.367   7.342
 1714TIP3    H226778   1.788   6.485   7.426
 1715TIP3   OH226779   2.685   4.216   7.155
 1715TIP3    H126780   2.700   4.174   7.070
 1715TIP3    H226781   2.764   4.196   7.206
 1716TIP3   OH226782   1.548   0.745   2.360
 1716TIP3    H126783   1.466   0.711   2.395
 1716TIP3    H226784   1.554   0.708   2.272
 1717TIP3   OH226785   3.322   0.070   0.664
 1717TIP3    H126786   3.249   0.083   0.604
 1717TIP3    H226787   3.342   0.157   0.698
 1718TIP3   OH226788   2.203   1.370   0.313
 1718TIP3    H126789   2.161   1.453   0.333
 1718TIP3    H226790   2.235   1.338   0.398
 1719TIP3   OH226791   3.683   1.992   8.307
 1719TIP3    H126792   3.719   2.073   8.342
 1719TIP3    H226793   3.605   2.019   8.258
 1720TIP3   OH226794   1.920   5.467   6.904
 1720TIP3    H126795   1.857   5.409   6.948
 1720TIP3    H226796   1.953   5.414   6.831
 1721TIP3   OH226797   0.515   2.599   8.411
 1721TIP3    H126798   0.473   2.524   8.453
 1721TIP3    H226799   0.532   2.660   8.483
 1722TIP3   OH226800   5.434   2.868   0.495
 1722TIP3    H126801   5.449   2.946   0.442
 1722TIP3    H226802   5.482   2.885   0.576
 1723TIP3   OH226803   2.197   6.136   7.850
 1723TIP3    H126804   2.291   6.146   7.838
 1723TIP3    H226805   2.159   6.217   7.815
 1724TIP3   OH226806   0.623   6.593   1.527
 1724TIP3    H126807   0.577   6.618   1.447
 1724TIP3    H226808   0.555   6.590   1.594
 1725TIP3   OH226809   5.874   2.927   2.051
 1725TIP3    H126810   5.779   2.922   2.040
 1725TIP3    H226811   5.909   2.873   1.981
 1726TIP3   OH226812   2.999   5.342   8.397
 1726TIP3    H126813   3.082   5.388   8.412
 1726TIP3    H226814   2.941   5.376   8.465
 1727TIP3   OH226815   5.716   4.581   7.479
 1727TIP3    H126816   5.681   4.570   7.568
 1727TIP3    H226817   5.806   4.550   7.485
 1728TIP3   OH226818   5.430   5.683   0.469
 1728TIP3    H126819   5.355   5.661   0.413
 1728TIP3    H226820   5.391   5.702   0.555
 1729TIP3   OH226821   5.734   1.633   2.473
 1729TIP3    H126822   5.818   1.622   2.518
 1729TIP3    H226823   5.687   1.552   2.489
 1730TIP3   OH226824   3.356   6.631   0.821
 1730TIP3    H126825   3.367   6.713   0.772
 1730TIP3    H226826   3.296   6.579   0.767
 1731TIP3   OH226827   6.019   2.048   0.262
 1731TIP3    H126828   6.045   2.136   0.237
 1731TIP3    H226829   6.016   2.000   0.179
 1732TIP3   OH226830   4.360   6.742   1.525
 1732TIP3    H126831   4.396   6.761   1.439
 1732TIP3    H226832   4.379   6.820   1.577
 1733TIP3   OH226833   6.662   2.213   1.350
 1733TIP3    H126834   6.634   2.263   1.273
 1733TIP3    H226835   6.675   2.124   1.317
 1734TIP3   OH226836   6.121   0.315   2.672
 1734TIP3    H126837   6.204   0.278   2.703
 1734TIP3    H226838   6.120   0.403   2.708
 1735TIP3   OH226839   1.793   2.239   1.680
 1735TIP3    H126840   1.758   2.158   1.717
 1735TIP3    H226841   1.784   2.304   1.750
 1736TIP3   OH226842   0.082   0.895   1.716
 1736TIP3    H126843   0.121   0.819   1.672
 1736TIP3    H226844  -0.003   0.863   1.747
 1737TIP3   OH226845   6.251   0.528   8.431
 1737TIP3    H126846   6.294   0.613   8.415
 1737TIP3    H226847   6.281   0.503   8.519
 1738TIP3   OH226848   2.460   1.509   7.910
 1738TIP3    H126849   2.364   1.506   7.911
 1738TIP3    H226850   2.480   1.602   7.902
 1739TIP3   OH226851   0.387   1.791   0.050
 1739TIP3    H126852   0.434   1.719   0.091
 1739TIP3    H226853   0.445   1.820  -0.020
 1740TIP3   OH226854   2.219   1.201   8.113
 1740TIP3    H126855   2.201   1.130   8.051
 1740TIP3    H226856   2.159   1.271   8.087
 1741TIP3   OH226857   5.025   1.441   8.717
 1741TIP3    H126858   5.048   1.400   8.634
 1741TIP3    H226859   5.031   1.370   8.781
 1742TIP3   OH226860   3.038   0.236   1.684
 1742TIP3    H126861   3.050   0.147   1.716
 1742TIP3    H226862   2.983   0.278   1.750
 1743TIP3   OH226863   2.212   6.201   7.013
 1743TIP3    H126864   2.257   6.202   7.097
 1743TIP3    H226865   2.276   6.237   6.951
 1744TIP3   OH226866   2.160   1.043   7.914
 1744TIP3    H126867   2.087   0.984   7.896
 1744TIP3    H226868   2.233   1.006   7.864
 1745TIP3   OH226869   3.649   6.705   8.858
 1745TIP3    H126870   3.579   6.653   8.820
 1745TIP3    H226871   3.681   6.760   8.787
 1746TIP3   OH226872   1.201   4.493   2.051
 1746TIP3    H126873   1.184   4.511   2.144
 1746TIP3    H226874   1.236   4.404   2.049
 1747TIP3   OH226875   1.336   2.665   6.487
 1747TIP3    H126876   1.364   2.747   6.528
 1747TIP3    H226877   1.284   2.692   6.411
 1748TIP3   OH226878   2.768   3.678   8.001
 1748TIP3    H126879   2.805   3.627   8.073
 1748TIP3    H226880   2.751   3.764   8.039
 1749TIP3   OH226881   0.581   2.141   7.612
 1749TIP3    H126882   0.520   2.091   7.665
 1749TIP3    H226883   0.532   2.162   7.533
 1750TIP3   OH226884   1.825   4.028   0.928
 1750TIP3    H126885   1.891   4.079   0.881
 1750TIP3    H226886   1.821   4.069   1.015
 1751TIP3   OH226887   4.098   4.168   8.575
 1751TIP3    H126888   4.074   4.126   8.658
 1751TIP3    H226889   4.178   4.216   8.595
 1752TIP3   OH226890   4.677   3.393   1.702
 1752TIP3    H126891   4.735   3.320   1.681
 1752TIP3    H226892   4.687   3.404   1.797
 1753TIP3   OH226893   1.129   0.090   1.740
 1753TIP3    H126894   1.144   0.184   1.727
 1753TIP3    H226895   1.145   0.051   1.654
 1754TIP3   OH226896   0.781   1.690   1.198
 1754TIP3    H126897   0.731   1.659   1.123
 1754TIP3    H226898   0.733   1.766   1.230
 1755TIP3   OH226899   5.085   5.721   1.047
 1755TIP3    H126900   5.079   5.754   1.137
 1755TIP3    H226901   5.128   5.790   0.998
 1756TIP3   OH226902   4.381   2.104   1.186
 1756TIP3    H126903   4.334   2.182   1.157
 1756TIP3    H226904   4.328   2.031   1.155
 1757TIP3   OH226905   3.575   2.834   1.352
 1757TIP3    H126906   3.542   2.812   1.265
 1757TIP3    H226907   3.664   2.864   1.337
 1758TIP3   OH226908   1.523   0.339   1.898
 1758TIP3    H126909   1.604   0.293   1.917
 1758TIP3    H226910   1.507   0.394   1.975
 1759TIP3   OH226911   5.104   5.746   7.394
 1759TIP3    H126912   5.057   5.678   7.443
 1759TIP3    H226913   5.037   5.787   7.340
 1760TIP3   OH226914   4.108   0.532   1.045
 1760TIP3    H126915   4.180   0.577   1.000
 1760TIP3    H226916   4.148   0.452   1.080
 1761TIP3   OH226917   6.446   0.006   1.201
 1761TIP3    H126918   6.417  -0.056   1.268
 1761TIP3    H226919   6.499  -0.046   1.141
 1762TIP3   OH226920   4.420   0.614   8.588
 1762TIP3    H126921   4.466   0.549   8.535
 1762TIP3    H226922   4.346   0.566   8.626
 1763TIP3   OH226923   0.505   6.344   0.263
 1763TIP3    H126924   0.575   6.315   0.204
 1763TIP3    H226925   0.478   6.428   0.228
 1764TIP3   OH226926   3.211   4.989   8.784
 1764TIP3    H126927   3.206   5.014   8.876
 1764TIP3    H226928   3.305   4.978   8.767
 1765TIP3   OH226929   0.941   6.657   7.437
 1765TIP3    H126930   0.946   6.618   7.350
 1765TIP3    H226931   0.895   6.740   7.423
 1766TIP3   OH226932   4.122   4.762   1.485
 1766TIP3    H126933   4.077   4.841   1.454
 1766TIP3    H226934   4.101   4.757   1.578
 1767TIP3   OH226935   2.087   0.198   8.240
 1767TIP3    H126936   2.093   0.205   8.144
 1767TIP3    H226937   2.163   0.245   8.272
 1768TIP3   OH226938   3.265   6.097   8.127
 1768TIP3    H126939   3.279   6.006   8.152
 1768TIP3    H226940   3.307   6.106   8.041
 1769TIP3   OH226941   6.670   0.618   2.278
 1769TIP3    H126942   6.743   0.574   2.235
 1769TIP3    H226943   6.596   0.559   2.265
 1770TIP3   OH226944   1.690   5.691   8.505
 1770TIP3    H126945   1.675   5.597   8.497
 1770TIP3    H226946   1.604   5.731   8.493
 1771TIP3   OH226947   4.701   0.223   0.070
 1771TIP3    H126948   4.667   0.308   0.099
 1771TIP3    H226949   4.681   0.164   0.143
 1772TIP3   OH226950   3.990   0.701   1.767
 1772TIP3    H126951   4.020   0.784   1.806
 1772TIP3    H226952   3.912   0.678   1.818
 1773TIP3   OH226953   4.379   0.504   0.021
 1773TIP3    H126954   4.309   0.461  -0.028
 1773TIP3    H226955   4.367   0.597   0.003
 1774TIP3   OH226956   3.278   3.318   7.158
 1774TIP3    H126957   3.262   3.346   7.068
 1774TIP3    H226958   3.363   3.357   7.181
 1775TIP3   OH226959   0.915   0.886   7.316
 1775TIP3    H126960   0.943   0.978   7.318
 1775TIP3    H226961   0.821   0.889   7.334
 1776TIP3   OH226962   1.364   2.700   0.695
 1776TIP3    H126963   1.278   2.742   0.686
 1776TIP3    H226964   1.404   2.710   0.608
 1777TIP3   OH226965   2.250   2.054   6.517
 1777TIP3    H126966   2.236   2.148   6.509
 1777TIP3    H226967   2.340   2.041   6.485
 1778TIP3   OH226968   5.236   3.998   8.973
 1778TIP3    H126969   5.284   3.943   8.912
 1778TIP3    H226970   5.187   4.058   8.917
 1779TIP3   OH226971   5.047   0.213   7.189
 1779TIP3    H126972   5.024   0.247   7.275
 1779TIP3    H226973   5.055   0.119   7.201
 1780TIP3   OH226974   3.454   6.039   7.099
 1780TIP3    H126975   3.390   5.993   7.044
 1780TIP3    H226976   3.460   6.127   7.061
 1781TIP3   OH226977   1.088   2.132   7.342
 1781TIP3    H126978   1.108   2.177   7.424
 1781TIP3    H226979   1.172   2.095   7.315
 1782TIP3   OH226980   1.265   3.243   8.084
 1782TIP3    H126981   1.247   3.194   8.004
 1782TIP3    H226982   1.226   3.191   8.154
 1783TIP3   OH226983   0.372   1.451   7.300
 1783TIP3    H126984   0.316   1.527   7.286
 1783TIP3    H226985   0.327   1.400   7.367
 1784TIP3   OH226986   4.949   2.985   0.395
 1784TIP3    H126987   4.947   2.910   0.336
 1784TIP3    H226988   5.027   2.971   0.449
 1785TIP3   OH226989   4.081   4.555   6.630
 1785TIP3    H126990   4.043   4.525   6.713
 1785TIP3    H226991   4.015   4.533   6.564
 1786TIP3   OH226992   5.928   0.611   8.346
 1786TIP3    H126993   5.973   0.527   8.338
 1786TIP3    H226994   5.985   0.673   8.299
 1787TIP3   OH226995   6.389   6.653   8.078
 1787TIP3    H126996   6.461   6.645   8.140
 1787TIP3    H226997   6.311   6.655   8.133
 1788TIP3   OH226998   0.645   1.358   7.930
 1788TIP3    H126999   0.673   1.449   7.922
 1788TIP3    H227000   0.648   1.340   8.024
 1789TIP3   OH227001   1.784   5.720   1.353
 1789TIP3    H127002   1.822   5.717   1.440
 1789TIP3    H227003   1.837   5.785   1.306
 1790TIP3   OH227004   4.825   1.867   1.529
 1790TIP3    H127005   4.881   1.805   1.575
 1790TIP3    H227006   4.742   1.864   1.576
 1791TIP3   OH227007   1.601   0.832   7.120
 1791TIP3    H127008   1.632   0.858   7.207
 1791TIP3    H227009   1.554   0.751   7.135
 1792TIP3   OH227010   3.140   4.117   2.111
 1792TIP3    H127011   3.206   4.097   2.046
 1792TIP3    H227012   3.086   4.038   2.116
 1793TIP3   OH227013   5.893   0.519   7.448
 1793TIP3    H127014   5.956   0.561   7.506
 1793TIP3    H227015   5.847   0.456   7.504
 1794TIP3   OH227016   5.260   2.121   8.783
 1794TIP3    H127017   5.282   2.056   8.850
 1794TIP3    H227018   5.167   2.107   8.766
 1795TIP3   OH227019   1.800   5.337   7.536
 1795TIP3    H127020   1.738   5.375   7.474
 1795TIP3    H227021   1.752   5.331   7.618
 1796TIP3   OH227022   1.876   1.890   0.950
 1796TIP3    H127023   1.842   1.810   0.911
 1796TIP3    H227024   1.806   1.920   1.009
 1797TIP3   OH227025   5.974   0.237   7.758
 1797TIP3    H127026   6.054   0.232   7.704
 1797TIP3    H227027   5.959   0.331   7.769
 1798TIP3   OH227028   4.987   6.705   7.482
 1798TIP3    H127029   5.068   6.751   7.458
 1798TIP3    H227030   4.998   6.686   7.575
 1799TIP3   OH227031   4.385   0.321   8.337
 1799TIP3    H127032   4.335   0.240   8.321
 1799TIP3    H227033   4.434   0.304   8.417
 1800TIP3   OH227034   3.044   3.608   0.786
 1800TIP3    H127035   3.004   3.680   0.737
 1800TIP3    H227036   3.103   3.651   0.848
 1801TIP3   OH227037   4.191   1.258   6.888
 1801TIP3    H127038   4.133   1.270   6.813
 1801TIP3    H227039   4.231   1.344   6.903
 1802TIP3   OH227040   1.481   6.383   6.778
 1802TIP3    H127041   1.510   6.320   6.712
 1802TIP3    H227042   1.561   6.404   6.827
 1803TIP3   OH227043   0.323   4.732   1.150
 1803TIP3    H127044   0.285   4.776   1.074
 1803TIP3    H227045   0.415   4.758   1.148
 1804TIP3   OH227046   2.640   6.711   7.654
 1804TIP3    H127047   2.732   6.696   7.673
 1804TIP3    H227048   2.612   6.778   7.717
 1805TIP3   OH227049   0.153   3.924   7.306
 1805TIP3    H127050   0.082   3.987   7.307
 1805TIP3    H227051   0.202   3.940   7.387
 1806TIP3   OH227052   5.332   3.060   2.541
 1806TIP3    H127053   5.266   3.123   2.511
 1806TIP3    H227054   5.395   3.113   2.591
 1807TIP3   OH227055   3.443   6.673   0.225
 1807TIP3    H127056   3.472   6.733   0.294
 1807TIP3    H227057   3.463   6.719   0.144
 1808TIP3   OH227058   0.966   5.558   7.478
 1808TIP3    H127059   0.992   5.529   7.391
 1808TIP3    H227060   0.951   5.652   7.468
 1809TIP3   OH227061   2.743   2.000   0.747
 1809TIP3    H127062   2.688   1.935   0.792
 1809TIP3    H227063   2.778   1.953   0.671
 1810TIP3   OH227064   0.741   5.173   0.657
 1810TIP3    H127065   0.794   5.151   0.581
 1810TIP3    H227066   0.756   5.266   0.671
 1811TIP3   OH227067   6.167   3.625   8.697
 1811TIP3    H127068   6.255   3.653   8.723
 1811TIP3    H227069   6.116   3.706   8.697
 1812TIP3   OH227070   6.193   2.524   0.270
 1812TIP3    H127071   6.234   2.460   0.212
 1812TIP3    H227072   6.099   2.516   0.253
 1813TIP3   OH227073   0.429   3.813   0.028
 1813TIP3    H127074   0.423   3.816  -0.067
 1813TIP3    H227075   0.518   3.842   0.048
 1814TIP3   OH227076   5.661   0.579   1.132
 1814TIP3    H127077   5.599   0.637   1.088
 1814TIP3    H227078   5.705   0.533   1.060
 1815TIP3   OH227079   2.322   6.750   8.772
 1815TIP3    H127080   2.375   6.818   8.729
 1815TIP3    H227081   2.352   6.668   8.734
 1816TIP3   OH227082   4.506   4.708   8.574
 1816TIP3    H127083   4.431   4.745   8.527
 1816TIP3    H227084   4.468   4.672   8.654
 1817TIP3   OH227085   4.767   1.628   0.526
 1817TIP3    H127086   4.742   1.717   0.504
 1817TIP3    H227087   4.712   1.604   0.601
 1818TIP3   OH227088   2.955   2.627   6.458
 1818TIP3    H127089   2.865   2.642   6.428
 1818TIP3    H227090   2.966   2.689   6.530
 1819TIP3   OH227091   4.309   4.468   1.971
 1819TIP3    H127092   4.279   4.409   2.040
 1819TIP3    H227093   4.397   4.438   1.949
 1820TIP3   OH227094   5.245   0.358   0.382
 1820TIP3    H127095   5.208   0.440   0.347
 1820TIP3    H227096   5.292   0.320   0.307
 1821TIP3   OH227097   5.347   0.749   1.264
 1821TIP3    H127098   5.415   0.787   1.320
 1821TIP3    H227099   5.281   0.717   1.325
 1822TIP3   OH227100   4.952   2.096   0.718
 1822TIP3    H127101   4.905   2.027   0.765
 1822TIP3    H227102   4.949   2.172   0.776
 1823TIP3   OH227103   0.003   4.662   8.326
 1823TIP3    H127104   0.043   4.746   8.306
 1823TIP3    H227105   0.022   4.647   8.419
 1824TIP3   OH227106   4.380   6.074   7.276
 1824TIP3    H127107   4.310   6.136   7.260
 1824TIP3    H227108   4.416   6.100   7.361
 1825TIP3   OH227109   5.293   2.431   7.461
 1825TIP3    H127110   5.350   2.426   7.384
 1825TIP3    H227111   5.318   2.355   7.514
 1826TIP3   OH227112   2.010   6.461   7.944
 1826TIP3    H127113   1.957   6.540   7.929
 1826TIP3    H227114   2.039   6.434   7.856
 1827TIP3   OH227115   0.705   3.458   2.236
 1827TIP3    H127116   0.716   3.504   2.319
 1827TIP3    H227117   0.612   3.438   2.231
 1828TIP3   OH227118   6.115   0.846   7.398
 1828TIP3    H127119   6.100   0.907   7.471
 1828TIP3    H227120   6.200   0.872   7.363
 1829TIP3   OH227121   2.290   2.722   1.105
 1829TIP3    H127122   2.349   2.710   1.030
 1829TIP3    H227123   2.223   2.782   1.074
 1830TIP3   OH227124   0.258   6.782   1.526
 1830TIP3    H127125   0.165   6.777   1.549
 1830TIP3    H227126   0.260   6.836   1.447
 1831TIP3   OH227127   1.476   5.415   1.392
 1831TIP3    H127128   1.416   5.363   1.338
 1831TIP3    H227129   1.449   5.506   1.376
 1832TIP3   OH227130   0.880   3.694   8.631
 1832TIP3    H127131   0.853   3.645   8.553
 1832TIP3    H227132   0.950   3.752   8.599
 1833TIP3   OH227133   0.077   5.538   2.385
 1833TIP3    H127134   0.116   5.466   2.436
 1833TIP3    H227135   0.100   5.617   2.435
 1834TIP3   OH227136   0.361   5.107   0.163
 1834TIP3    H127137   0.269   5.108   0.188
 1834TIP3    H227138   0.379   5.196   0.132
 1835TIP3   OH227139   1.776   3.951   8.534
 1835TIP3    H127140   1.758   3.991   8.448
 1835TIP3    H227141   1.855   3.996   8.564
 1836TIP3   OH227142   2.017   1.807   8.854
 1836TIP3    H127143   2.111   1.820   8.850
 1836TIP3    H227144   1.980   1.894   8.841
 1837TIP3   OH227145   0.972   4.561   8.655
 1837TIP3    H127146   0.908   4.575   8.725
 1837TIP3    H227147   1.019   4.644   8.648
 1838TIP3   OH227148   1.558   1.715   0.762
 1838TIP3    H127149   1.615   1.791   0.757
 1838TIP3    H227150   1.469   1.751   0.755
 1839TIP3   OH227151   3.921   1.299   0.895
 1839TIP3    H127152   3.899   1.388   0.869
 1839TIP3    H227153   3.837   1.256   0.910
 1840TIP3   OH227154   1.050   0.987   7.067
 1840TIP3    H127155   1.124   0.976   7.127
 1840TIP3    H227156   1.049   1.080   7.046
 1841TIP3   OH227157   3.159   1.445   7.926
 1841TIP3    H127158   3.246   1.472   7.895
 1841TIP3    H227159   3.098   1.496   7.872
 1842TIP3   OH227160   0.064   3.371   1.934
 1842TIP3    H127161   0.150   3.359   1.973
 1842TIP3    H227162   0.006   3.317   1.987
 1843TIP3   OH227163   3.997   3.070   0.462
 1843TIP3    H127164   3.950   2.993   0.430
 1843TIP3    H227165   3.945   3.100   0.537
 1844TIP3   OH227166   5.869   2.987   1.067
 1844TIP3    H127167   5.907   3.039   1.138
 1844TIP3    H227168   5.940   2.932   1.036
 1845TIP3   OH227169   3.390   2.725   7.825
 1845TIP3    H127170   3.429   2.811   7.840
 1845TIP3    H227171   3.378   2.720   7.730
 1846TIP3   OH227172   0.131   4.462   1.134
 1846TIP3    H127173   0.037   4.442   1.134
 1846TIP3    H227174   0.151   4.488   1.044
 1847TIP3   OH227175   1.134   1.070   8.120
 1847TIP3    H127176   1.146   1.002   8.186
 1847TIP3    H227177   1.206   1.131   8.136
 1848TIP3   OH227178   6.633   6.315   6.685
 1848TIP3    H127179   6.683   6.245   6.644
 1848TIP3    H227180   6.683   6.395   6.668
 1849TIP3   OH227181   1.474   5.794   2.279
 1849TIP3    H127182   1.383   5.791   2.249
 1849TIP3    H227183   1.521   5.838   2.208
 1850TIP3   OH227184   0.866   2.226   7.934
 1850TIP3    H127185   0.912   2.201   8.015
 1850TIP3    H227186   0.823   2.308   7.955
 1851TIP3   OH227187   2.110   1.610   0.056
 1851TIP3    H127188   2.125   1.626   0.149
 1851TIP3    H227189   2.062   1.688   0.026
 1852TIP3   OH227190   5.513   5.496   2.491
 1852TIP3    H127191   5.604   5.496   2.521
 1852TIP3    H227192   5.491   5.403   2.480
 1853TIP3   OH227193   3.177   6.783   0.161
 1853TIP3    H127194   3.165   6.695   0.125
 1853TIP3    H227195   3.152   6.841   0.089
 1854TIP3   OH227196   3.402   5.416   7.331
 1854TIP3    H127197   3.424   5.324   7.323
 1854TIP3    H227198   3.446   5.458   7.257
 1855TIP3   OH227199   1.909   5.543   8.843
 1855TIP3    H127200   1.951   5.506   8.920
 1855TIP3    H227201   1.834   5.486   8.826
 1856TIP3   OH227202   0.820   4.849   7.339
 1856TIP3    H127203   0.771   4.814   7.413
 1856TIP3    H227204   0.912   4.833   7.362
 1857TIP3   OH227205   3.818   6.610   7.784
 1857TIP3    H127206   3.863   6.548   7.841
 1857TIP3    H227207   3.866   6.692   7.795
 1858TIP3   OH227208   0.208   0.253   7.994
 1858TIP3    H127209   0.141   0.193   8.026
 1858TIP3    H227210   0.290   0.205   8.004
 1859TIP3   OH227211   2.576   4.050   0.815
 1859TIP3    H127212   2.541   4.130   0.774
 1859TIP3    H227213   2.564   4.065   0.909
 1860TIP3   OH227214   4.017   4.646   8.408
 1860TIP3    H127215   4.027   4.591   8.330
 1860TIP3    H227216   3.942   4.609   8.455
 1861TIP3   OH227217   5.574   2.001   7.562
 1861TIP3    H127218   5.635   2.046   7.621
 1861TIP3    H227219   5.587   1.908   7.580
 1862TIP3   OH227220   4.947   0.666   7.607
 1862TIP3    H127221   4.854   0.647   7.619
 1862TIP3    H227222   4.958   0.675   7.513
 1863TIP3   OH227223   3.897   0.355   7.182
 1863TIP3    H127224   3.967   0.360   7.117
 1863TIP3    H227225   3.828   0.304   7.139
 1864TIP3   OH227226   3.090   1.663   1.823
 1864TIP3    H127227   3.149   1.593   1.854
 1864TIP3    H227228   3.030   1.678   1.896
 1865TIP3   OH227229   3.639   0.628   7.281
 1865TIP3    H127230   3.692   0.567   7.334
 1865TIP3    H227231   3.664   0.609   7.191
 1866TIP3   OH227232   0.265   2.047   8.830
 1866TIP3    H127233   0.207   2.036   8.755
 1866TIP3    H227234   0.210   2.026   8.906
 1867TIP3   OH227235   6.569   4.674   1.931
 1867TIP3    H127236   6.574   4.589   1.887
 1867TIP3    H227237   6.488   4.670   1.982
 1868TIP3   OH227238   0.647   0.949   7.428
 1868TIP3    H127239   0.587   0.884   7.466
 1868TIP3    H227240   0.590   1.019   7.396
 1869TIP3   OH227241   3.232   1.498   8.954
 1869TIP3    H127242   3.217   1.496   9.049
 1869TIP3    H227243   3.327   1.499   8.945
 1870TIP3   OH227244   5.167   2.922   2.371
 1870TIP3    H127245   5.083   2.964   2.350
 1870TIP3    H227246   5.219   2.991   2.411
 1871TIP3   OH227247   1.130   5.979   8.359
 1871TIP3    H127248   1.194   6.001   8.291
 1871TIP3    H227249   1.055   6.036   8.342
 1872TIP3   OH227250   2.390   4.520   7.783
 1872TIP3    H127251   2.455   4.450   7.796
 1872TIP3    H227252   2.325   4.503   7.851
 1873TIP3   OH227253   1.227   5.743   7.603
 1873TIP3    H127254   1.319   5.758   7.582
 1873TIP3    H227255   1.183   5.737   7.518
 1874TIP3   OH227256   6.188   1.367   0.959
 1874TIP3    H127257   6.247   1.314   1.013
 1874TIP3    H227258   6.245   1.404   0.892
 1875TIP3   OH227259   2.993   6.381   7.486
 1875TIP3    H127260   3.036   6.301   7.515
 1875TIP3    H227261   3.030   6.398   7.399
 1876TIP3   OH227262   6.356   0.624   1.999
 1876TIP3    H127263   6.373   0.534   2.027
 1876TIP3    H227264   6.435   0.650   1.951
 1877TIP3   OH227265   1.398   4.410   7.097
 1877TIP3    H127266   1.382   4.493   7.141
 1877TIP3    H227267   1.485   4.420   7.058
 1878TIP3   OH227268   5.709   4.136   8.736
 1878TIP3    H127269   5.688   4.205   8.799
 1878TIP3    H227270   5.735   4.182   8.656
 1879TIP3   OH227271   6.488   0.435   6.768
 1879TIP3    H127272   6.570   0.484   6.775
 1879TIP3    H227273   6.436   0.484   6.704
 1880TIP3   OH227274   0.512   1.334   7.109
 1880TIP3    H127275   0.448   1.269   7.081
 1880TIP3    H227276   0.473   1.375   7.186
 1881TIP3   OH227277   5.315   6.697   0.429
 1881TIP3    H127278   5.406   6.677   0.408
 1881TIP3    H227279   5.319   6.755   0.505
 1882TIP3   OH227280   0.127   2.860   8.514
 1882TIP3    H127281   0.206   2.901   8.479
 1882TIP3    H227282   0.138   2.864   8.609
 1883TIP3   OH227283   2.898   4.777   0.707
 1883TIP3    H127284   2.860   4.814   0.787
 1883TIP3    H227285   2.973   4.725   0.738
 1884TIP3   OH227286   5.641   4.131   0.743
 1884TIP3    H127287   5.568   4.073   0.765
 1884TIP3    H227288   5.681   4.153   0.827
 1885TIP3   OH227289   3.734   3.312   8.986
 1885TIP3    H127290   3.679   3.274   8.917
 1885TIP3    H227291   3.743   3.404   8.961
 1886TIP3   OH227292   5.284   1.857   1.057
 1886TIP3    H127293   5.197   1.887   1.084
 1886TIP3    H227294   5.280   1.854   0.962
 1887TIP3   OH227295   5.647   5.412   7.692
 1887TIP3    H127296   5.643   5.475   7.765
 1887TIP3    H227297   5.649   5.327   7.735
 1888TIP3   OH227298   2.968   3.130   1.178
 1888TIP3    H127299   2.911   3.086   1.115
 1888TIP3    H227300   2.976   3.220   1.145
 1889TIP3   OH227301   5.003   3.291   7.979
 1889TIP3    H127302   4.944   3.240   7.924
 1889TIP3    H227303   4.949   3.321   8.052
 1890TIP3   OH227304   0.612   0.066   7.558
 1890TIP3    H127305   0.608   0.161   7.554
 1890TIP3    H227306   0.704   0.045   7.542
 1891TIP3   OH227307   1.340   0.409   8.295
 1891TIP3    H127308   1.254   0.394   8.255
 1891TIP3    H227309   1.335   0.367   8.380
 1892TIP3   OH227310   0.748   3.679   6.794
 1892TIP3    H127311   0.721   3.636   6.713
 1892TIP3    H227312   0.819   3.624   6.827
 1893TIP3   OH227313   1.909   0.870   0.981
 1893TIP3    H127314   1.825   0.885   0.939
 1893TIP3    H227315   1.973   0.879   0.910
 1894TIP3   OH227316   3.599   0.220   0.672
 1894TIP3    H127317   3.646   0.293   0.713
 1894TIP3    H227318   3.630   0.143   0.719
 1895TIP3   OH227319   3.853   4.922   8.424
 1895TIP3    H127320   3.831   5.007   8.386
 1895TIP3    H227321   3.875   4.867   8.349
 1896TIP3   OH227322   3.534   5.936   1.109
 1896TIP3    H127323   3.606   5.899   1.160
 1896TIP3    H227324   3.461   5.940   1.171
 1897TIP3   OH227325   5.961   5.291   7.829
 1897TIP3    H127326   5.954   5.238   7.749
 1897TIP3    H227327   6.043   5.339   7.818
 1898TIP3   OH227328   3.785   2.233   2.126
 1898TIP3    H127329   3.705   2.180   2.130
 1898TIP3    H227330   3.797   2.251   2.033
 1899TIP3   OH227331   4.643   5.878   1.318
 1899TIP3    H127332   4.572   5.843   1.265
 1899TIP3    H227333   4.651   5.969   1.290
 1900TIP3   OH227334   2.133   4.016   1.278
 1900TIP3    H127335   2.141   4.018   1.374
 1900TIP3    H227336   2.050   3.969   1.263
 1901TIP3   OH227337   4.574   4.870   7.675
 1901TIP3    H127338   4.546   4.779   7.675
 1901TIP3    H227339   4.666   4.867   7.650
 1902TIP3   OH227340   3.580   3.393   1.848
 1902TIP3    H127341   3.651   3.428   1.901
 1902TIP3    H227342   3.501   3.433   1.884
 1903TIP3   OH227343   3.788   1.246   6.755
 1903TIP3    H127344   3.733   1.186   6.705
 1903TIP3    H227345   3.878   1.220   6.733
 1904TIP3   OH227346   4.662   6.295   8.816
 1904TIP3    H127347   4.659   6.376   8.765
 1904TIP3    H227348   4.663   6.324   8.907
 1905TIP3   OH227349   4.434   4.836   1.795
 1905TIP3    H127350   4.406   4.925   1.819
 1905TIP3    H227351   4.495   4.811   1.865
 1906TIP3   OH227352   1.987   0.083   8.607
 1906TIP3    H127353   1.994   0.064   8.701
 1906TIP3    H227354   2.073   0.063   8.572
 1907TIP3   OH227355   1.694   4.523   1.943
 1907TIP3    H127356   1.704   4.585   1.871
 1907TIP3    H227357   1.661   4.443   1.902
 1908TIP3   OH227358   4.559   0.274   7.455
 1908TIP3    H127359   4.473   0.315   7.462
 1908TIP3    H227360   4.546   0.200   7.396
 1909TIP3   OH227361   4.453   6.107   2.268
 1909TIP3    H127362   4.459   6.199   2.291
 1909TIP3    H227363   4.450   6.107   2.172
 1910TIP3   OH227364   5.501   3.379   7.393
 1910TIP3    H127365   5.576   3.405   7.339
 1910TIP3    H227366   5.447   3.326   7.335
 1911TIP3   OH227367   2.171   1.849   7.921
 1911TIP3    H127368   2.115   1.815   7.852
 1911TIP3    H227369   2.200   1.771   7.969
 1912TIP3   OH227370   1.959   5.849   6.628
 1912TIP3    H127371   1.886   5.788   6.623
 1912TIP3    H227372   2.035   5.796   6.603
 1913TIP3   OH227373   1.468   0.707   8.671
 1913TIP3    H127374   1.542   0.758   8.703
 1913TIP3    H227375   1.506   0.643   8.612
 1914TIP3   OH227376   5.433   1.193   0.818
 1914TIP3    H127377   5.406   1.149   0.899
 1914TIP3    H227378   5.437   1.285   0.842
 1915TIP3   OH227379   6.444   2.152   7.274
 1915TIP3    H127380   6.455   2.144   7.179
 1915TIP3    H227381   6.431   2.062   7.304
 1916TIP3   OH227382   0.375   2.335   8.292
 1916TIP3    H127383   0.345   2.368   8.377
 1916TIP3    H227384   0.330   2.252   8.280
 1917TIP3   OH227385   3.173   4.527   8.026
 1917TIP3    H127386   3.257   4.507   8.067
 1917TIP3    H227387   3.156   4.453   7.968
 1918TIP3   OH227388   3.249   1.753   0.735
 1918TIP3    H127389   3.230   1.676   0.681
 1918TIP3    H227390   3.172   1.763   0.790
 1919TIP3   OH227391   4.793   6.144   8.173
 1919TIP3    H127392   4.765   6.119   8.261
 1919TIP3    H227393   4.850   6.220   8.187
 1920TIP3   OH227394   4.195   2.506   8.628
 1920TIP3    H127395   4.206   2.541   8.539
 1920TIP3    H227396   4.215   2.413   8.619
 1921TIP3   OH227397   2.271   6.682   0.044
 1921TIP3    H127398   2.327   6.726   0.108
 1921TIP3    H227399   2.270   6.741  -0.031
 1922TIP3   OH227400   3.096   1.183   1.610
 1922TIP3    H127401   3.092   1.254   1.546
 1922TIP3    H227402   3.105   1.227   1.695
 1923TIP3   OH227403   0.649   5.145   8.582
 1923TIP3    H127404   0.689   5.060   8.562
 1923TIP3    H227405   0.555   5.131   8.571
 1924TIP3   OH227406   1.635   3.931   7.951
 1924TIP3    H127407   1.566   3.879   7.994
 1924TIP3    H227408   1.592   4.013   7.929
 1925TIP3   OH227409   6.683   4.004   0.197
 1925TIP3    H127410   6.772   3.988   0.227
 1925TIP3    H227411   6.692   4.024   0.104
 1926TIP3   OH227412   0.989   6.721   8.620
 1926TIP3    H127413   1.002   6.718   8.525
 1926TIP3    H227414   1.058   6.664   8.655
 1927TIP3   OH227415   2.244   1.476   1.514
 1927TIP3    H127416   2.171   1.424   1.548
 1927TIP3    H227417   2.236   1.469   1.419
 1928TIP3   OH227418   2.004   5.003   0.407
 1928TIP3    H127419   1.959   5.030   0.327
 1928TIP3    H227420   2.092   5.041   0.400
 1929TIP3   OH227421   3.622   0.856   0.612
 1929TIP3    H127422   3.549   0.795   0.611
 1929TIP3    H227423   3.608   0.909   0.691
 1930TIP3   OH227424   1.881   1.115   7.364
 1930TIP3    H127425   1.863   1.203   7.396
 1930TIP3    H227426   1.958   1.088   7.414
 1931TIP3   OH227427   3.297   5.718   0.600
 1931TIP3    H127428   3.278   5.757   0.515
 1931TIP3    H227429   3.241   5.766   0.661
 1932TIP3   OH227430   2.038   4.067   8.679
 1932TIP3    H127431   2.104   4.012   8.639
 1932TIP3    H227432   2.040   4.148   8.629
 1933TIP3   OH227433   1.098   3.347   7.162
 1933TIP3    H127434   1.117   3.440   7.153
 1933TIP3    H227435   1.165   3.303   7.111
 1934TIP3   OH227436   0.578   3.371   7.799
 1934TIP3    H127437   0.669   3.399   7.786
 1934TIP3    H227438   0.548   3.350   7.711
 1935TIP3   OH227439   5.363   4.481   7.844
 1935TIP3    H127440   5.281   4.498   7.890
 1935TIP3    H227441   5.338   4.475   7.751
 1936TIP3   OH227442   3.503   5.746   6.510
 1936TIP3    H127443   3.521   5.814   6.575
 1936TIP3    H227444   3.435   5.692   6.551
 1937TIP3   OH227445   0.937   0.698   7.842
 1937TIP3    H127446   0.961   0.657   7.759
 1937TIP3    H227447   0.842   0.705   7.840
 1938TIP3   OH227448   3.882   3.188   0.695
 1938TIP3    H127449   3.884   3.161   0.786
 1938TIP3    H227450   3.908   3.281   0.696
 1939TIP3   OH227451   1.797   0.057   6.649
 1939TIP3    H127452   1.890   0.082   6.647
 1939TIP3    H227453   1.752   0.138   6.671
 1940TIP3   OH227454   4.540   5.134   7.683
 1940TIP3    H127455   4.548   5.042   7.661
 1940TIP3    H227456   4.457   5.161   7.643
 1941TIP3   OH227457   1.381   5.654   8.879
 1941TIP3    H127458   1.437   5.655   8.801
 1941TIP3    H227459   1.315   5.721   8.862
 1942TIP3   OH227460   5.412   4.748   7.148
 1942TIP3    H127461   5.461   4.828   7.134
 1942TIP3    H227462   5.428   4.726   7.240
 1943TIP3   OH227463   0.616   5.970   8.566
 1943TIP3    H127464   0.527   5.977   8.530
 1943TIP3    H227465   0.672   5.960   8.489
 1944TIP3   OH227466   5.377   2.742   1.569
 1944TIP3    H127467   5.373   2.779   1.481
 1944TIP3    H227468   5.362   2.817   1.627
 1945TIP3   OH227469   3.769   6.360   8.688
 1945TIP3    H127470   3.694   6.304   8.710
 1945TIP3    H227471   3.822   6.361   8.768
 1946TIP3   OH227472   0.103   0.727   8.321
 1946TIP3    H127473   0.199   0.727   8.320
 1946TIP3    H227474   0.079   0.718   8.228
 1947TIP3   OH227475   2.096   6.698   7.486
 1947TIP3    H127476   2.024   6.698   7.549
 1947TIP3    H227477   2.174   6.683   7.539
 1948TIP3   OH227478   0.711   3.083   8.645
 1948TIP3    H127479   0.772   3.046   8.709
 1948TIP3    H227480   0.731   3.038   8.563
 1949TIP3   OH227481   1.015   0.373   0.547
 1949TIP3    H127482   0.973   0.360   0.461
 1949TIP3    H227483   0.959   0.325   0.608
 1950TIP3   OH227484   6.191   4.353   7.210
 1950TIP3    H127485   6.282   4.333   7.234
 1950TIP3    H227486   6.175   4.299   7.132
 1951TIP3   OH227487   0.146   1.519   1.966
 1951TIP3    H127488   0.152   1.523   2.061
 1951TIP3    H227489   0.056   1.545   1.946
 1952TIP3   OH227490   1.774   1.684   1.555
 1952TIP3    H127491   1.866   1.711   1.555
 1952TIP3    H227492   1.758   1.656   1.645
 1953TIP3   OH227493   6.444   1.366   7.011
 1953TIP3    H127494   6.455   1.451   6.970
 1953TIP3    H227495   6.431   1.305   6.938
 1954TIP3   OH227496   0.948   0.303   0.987
 1954TIP3    H127497   1.039   0.308   1.015
 1954TIP3    H227498   0.903   0.369   1.040
 1955TIP3   OH227499   3.117   3.422   1.614
 1955TIP3    H127500   3.206   3.395   1.640
 1955TIP3    H227501   3.070   3.432   1.697
 1956TIP3   OH227502   6.411   5.876   8.884
 1956TIP3    H127503   6.398   5.785   8.856
 1956TIP3    H227504   6.468   5.869   8.961
 1957TIP3   OH227505   1.536   0.114   1.724
 1957TIP3    H127506   1.536   0.185   1.788
 1957TIP3    H227507   1.628   0.086   1.720
 1958TIP3   OH227508   1.961   4.960   1.401
 1958TIP3    H127509   1.904   4.951   1.324
 1958TIP3    H227510   1.902   4.961   1.476
 1959TIP3   OH227511   1.677   6.629   0.762
 1959TIP3    H127512   1.689   6.657   0.853
 1959TIP3    H227513   1.764   6.639   0.723
 1960TIP3   OH227514   3.405   6.493   8.002
 1960TIP3    H127515   3.462   6.476   7.927
 1960TIP3    H227516   3.465   6.516   8.073
 1961TIP3   OH227517   2.543   4.334   8.819
 1961TIP3    H127518   2.505   4.352   8.733
 1961TIP3    H227519   2.496   4.392   8.879
 1962TIP3   OH227520   6.184   2.081   0.614
 1962TIP3    H127521   6.195   1.998   0.661
 1962TIP3    H227522   6.195   2.057   0.522
 1963TIP3   OH227523   6.362   1.424   0.759
 1963TIP3    H127524   6.328   1.401   0.672
 1963TIP3    H227525   6.417   1.350   0.783
 1964TIP3   OH227526   0.072   3.598   8.168
 1964TIP3    H127527   0.044   3.689   8.160
 1964TIP3    H227528   0.044   3.557   8.087
 1965TIP3   OH227529   3.177   1.962   8.471
 1965TIP3    H127530   3.152   2.052   8.451
 1965TIP3    H227531   3.107   1.908   8.434
 1966TIP3   OH227532   0.024   2.383   1.542
 1966TIP3    H127533  -0.031   2.418   1.612
 1966TIP3    H227534  -0.035   2.329   1.489
 1967TIP3   OH227535   3.185   6.122   0.232
 1967TIP3    H127536   3.167   6.105   0.324
 1967TIP3    H227537   3.185   6.217   0.224
 1968TIP3   OH227538   5.888   4.168   7.334
 1968TIP3    H127539   5.918   4.078   7.349
 1968TIP3    H227540   5.816   4.180   7.396
 1969TIP3   OH227541   3.198   2.127   1.541
 1969TIP3    H127542   3.123   2.075   1.571
 1969TIP3    H227543   3.261   2.063   1.510
 1970TIP3   OH227544   1.952   5.183   8.161
 1970TIP3    H127545   1.983   5.141   8.081
 1970TIP3    H227546   2.023   5.241   8.187
 1971TIP3   OH227547   4.627   0.925   7.932
 1971TIP3    H127548   4.675   0.854   7.974
 1971TIP3    H227549   4.684   1.002   7.942
 1972TIP3   OH227550   5.348   6.003   0.664
 1972TIP3    H127551   5.293   6.001   0.586
 1972TIP3    H227552   5.432   5.967   0.635
 1973TIP3   OH227553   6.336   3.042   1.483
 1973TIP3    H127554   6.258   3.085   1.517
 1973TIP3    H227555   6.392   3.114   1.454
 1974TIP3   OH227556   2.531   3.055   0.047
 1974TIP3    H127557   2.557   3.115  -0.024
 1974TIP3    H227558   2.551   3.104   0.127
 1975TIP3   OH227559   4.379   2.792   8.508
 1975TIP3    H127560   4.451   2.817   8.450
 1975TIP3    H227561   4.304   2.844   8.477
 1976TIP3   OH227562   3.430   2.731   8.903
 1976TIP3    H127563   3.392   2.660   8.956
 1976TIP3    H227564   3.473   2.787   8.968
 1977TIP3   OH227565   1.240   3.761   8.048
 1977TIP3    H127566   1.185   3.837   8.030
 1977TIP3    H227567   1.186   3.705   8.104
 1978TIP3   OH227568   2.025   4.071   0.760
 1978TIP3    H127569   2.099   4.092   0.817
 1978TIP3    H227570   2.053   4.101   0.673
 1979TIP3   OH227571   3.094   3.102   8.600
 1979TIP3    H127572   3.048   3.018   8.609
 1979TIP3    H227573   3.107   3.112   8.506
 1980TIP3   OH227574   1.339   1.856   0.714
 1980TIP3    H127575   1.263   1.822   0.762
 1980TIP3    H227576   1.334   1.950   0.725
 1981TIP3   OH227577   0.426   5.849   2.060
 1981TIP3    H127578   0.456   5.931   2.099
 1981TIP3    H227579   0.421   5.788   2.134
 1982TIP3   OH227580   3.695   0.803   7.023
 1982TIP3    H127581   3.613   0.821   6.978
 1982TIP3    H227582   3.693   0.709   7.040
 1983TIP3   OH227583   3.716   4.360   1.517
 1983TIP3    H127584   3.732   4.319   1.602
 1983TIP3    H227585   3.752   4.448   1.525
 1984TIP3   OH227586   4.434   1.794   2.239
 1984TIP3    H127587   4.492   1.848   2.185
 1984TIP3    H227588   4.411   1.850   2.313
 1985TIP3   OH227589   0.431   5.507   0.608
 1985TIP3    H127590   0.433   5.486   0.515
 1985TIP3    H227591   0.510   5.561   0.622
 1986TIP3   OH227592   3.737   1.899   6.457
 1986TIP3    H127593   3.660   1.863   6.414
 1986TIP3    H227594   3.810   1.874   6.401
 1987TIP3   OH227595   3.862   2.134   7.995
 1987TIP3    H127596   3.776   2.175   8.007
 1987TIP3    H227597   3.917   2.175   8.062
 1988TIP3   OH227598   6.530   4.248   1.537
 1988TIP3    H127599   6.526   4.155   1.559
 1988TIP3    H227600   6.620   4.263   1.510
 1989TIP3   OH227601   1.034   5.600   0.912
 1989TIP3    H127602   1.051   5.522   0.964
 1989TIP3    H227603   0.941   5.618   0.926
 1990TIP3   OH227604   5.518   5.934   1.254
 1990TIP3    H127605   5.437   5.982   1.241
 1990TIP3    H227606   5.501   5.876   1.328
 1991TIP3   OH227607   5.978   3.133   1.822
 1991TIP3    H127608   5.906   3.090   1.776
 1991TIP3    H227609   5.952   3.132   1.914
 1992TIP3   OH227610   3.528   2.771   1.617
 1992TIP3    H127611   3.575   2.688   1.619
 1992TIP3    H227612   3.537   2.802   1.526
 1993TIP3   OH227613   0.256   4.681   7.535
 1993TIP3    H127614   0.188   4.622   7.567
 1993TIP3    H227615   0.263   4.749   7.602
 1994TIP3   OH227616   3.663   1.321   7.398
 1994TIP3    H127617   3.711   1.329   7.480
 1994TIP3    H227618   3.634   1.230   7.396
 1995TIP3   OH227619   2.587   1.815   0.866
 1995TIP3    H127620   2.495   1.799   0.846
 1995TIP3    H227621   2.627   1.728   0.868
 1996TIP3   OH227622   3.938   0.429   6.136
 1996TIP3    H127623   3.856   0.406   6.178
 1996TIP3    H227624   3.946   0.524   6.148
 1997TIP3   OH227625   4.256   1.834   1.268
 1997TIP3    H127626   4.191   1.874   1.325
 1997TIP3    H227627   4.334   1.825   1.324
 1998TIP3   OH227628   3.864   4.685   0.801
 1998TIP3    H127629   3.818   4.716   0.723
 1998TIP3    H227630   3.821   4.603   0.823
 1999TIP3   OH227631   0.861   5.076   1.183
 1999TIP3    H127632   0.955   5.092   1.196
 1999TIP3    H227633   0.825   5.076   1.271
 2000TIP3   OH227634   5.542   4.448   8.505
 2000TIP3    H127635   5.477   4.389   8.465
 2000TIP3    H227636   5.516   4.535   8.474
 2001TIP3   OH227637   2.996   6.505   8.592
 2001TIP3    H127638   3.012   6.475   8.503
 2001TIP3    H227639   3.024   6.596   8.593
 2002TIP3   OH227640   4.265   1.602   0.780
 2002TIP3    H127641   4.264   1.527   0.840
 2002TIP3    H227642   4.210   1.668   0.823
 2003TIP3   OH227643   1.435   2.737   0.132
 2003TIP3    H127644   1.386   2.820   0.130
 2003TIP3    H227645   1.522   2.762   0.165
 2004TIP3   OH227646   0.315   6.601   0.427
 2004TIP3    H127647   0.292   6.633   0.340
 2004TIP3    H227648   0.360   6.676   0.468
 2005TIP3   OH227649   5.297   2.581   8.957
 2005TIP3    H127650   5.361   2.652   8.953
 2005TIP3    H227651   5.338   2.509   8.910
 2006TIP3   OH227652   3.318   0.340   8.070
 2006TIP3    H127653   3.329   0.247   8.051
 2006TIP3    H227654   3.226   0.348   8.096
 2007TIP3   OH227655   0.554   6.536   7.128
 2007TIP3    H127656   0.578   6.459   7.076
 2007TIP3    H227657   0.531   6.500   7.214
 2008TIP3   OH227658   5.867   2.020   1.557
 2008TIP3    H127659   5.961   2.001   1.550
 2008TIP3    H227660   5.846   1.998   1.648
 2009TIP3   OH227661   2.664   0.045   6.297
 2009TIP3    H127662   2.710  -0.014   6.237
 2009TIP3    H227663   2.586  -0.003   6.324
 2010TIP3   OH227664   5.086   4.321   2.594
 2010TIP3    H127665   5.145   4.320   2.670
 2010TIP3    H227666   5.010   4.371   2.624
 2011TIP3   OH227667   4.631   4.068   1.019
 2011TIP3    H127668   4.663   3.991   1.065
 2011TIP3    H227669   4.630   4.137   1.085
 2012TIP3   OH227670   4.030   5.018   7.839
 2012TIP3    H127671   4.063   4.955   7.902
 2012TIP3    H227672   4.099   5.084   7.831
 2013TIP3   OH227673   1.915   4.386   8.243
 2013TIP3    H127674   1.957   4.445   8.181
 2013TIP3    H227675   1.890   4.442   8.317
 2014TIP3   OH227676   3.310   6.586   6.548
 2014TIP3    H127677   3.252   6.560   6.477
 2014TIP3    H227678   3.252   6.608   6.620
 2015TIP3   OH227679   3.383   1.613   2.364
 2015TIP3    H127680   3.357   1.599   2.273
 2015TIP3    H227681   3.325   1.556   2.415
 2016TIP3   OH227682   0.449   0.826   1.152
 2016TIP3    H127683   0.516   0.891   1.171
 2016TIP3    H227684   0.478   0.784   1.071
 2017TIP3   OH227685   1.714   4.181   7.328
 2017TIP3    H127686   1.793   4.141   7.364
 2017TIP3    H227687   1.730   4.185   7.234
 2018TIP3   OH227688   4.809   1.297   7.413
 2018TIP3    H127689   4.821   1.392   7.409
 2018TIP3    H227690   4.874   1.262   7.351
 2019TIP3   OH227691   5.418   5.905   1.827
 2019TIP3    H127692   5.422   5.969   1.756
 2019TIP3    H227693   5.472   5.942   1.896
 2020TIP3   OH227694   0.319   1.955   7.472
 2020TIP3    H127695   0.317   1.907   7.389
 2020TIP3    H227696   0.232   1.993   7.479
 2021TIP3   OH227697   1.391   4.360   8.979
 2021TIP3    H127698   1.478   4.390   8.951
 2021TIP3    H227699   1.340   4.357   8.898
 2022TIP3   OH227700   6.592   5.581   0.753
 2022TIP3    H127701   6.544   5.630   0.686
 2022TIP3    H227702   6.667   5.637   0.774
 2023TIP3   OH227703   6.687   0.159   7.486
 2023TIP3    H127704   6.723   0.245   7.464
 2023TIP3    H227705   6.748   0.124   7.551
 2024TIP3   OH227706   3.628   2.484   8.443
 2024TIP3    H127707   3.660   2.434   8.518
 2024TIP3    H227708   3.625   2.574   8.475
 2025TIP3   OH227709   3.249   5.951   8.461
 2025TIP3    H127710   3.214   5.948   8.372
 2025TIP3    H227711   3.328   6.003   8.453
 2026TIP3   OH227712   6.673   0.757   0.581
 2026TIP3    H127713   6.655   0.745   0.488
 2026TIP3    H227714   6.753   0.707   0.596
 2027TIP3   OH227715   2.889   1.019   6.204
 2027TIP3    H127716   2.849   0.935   6.224
 2027TIP3    H227717   2.854   1.079   6.269
 2028TIP3   OH227718   5.914   6.606   2.283
 2028TIP3    H127719   5.985   6.607   2.347
 2028TIP3    H227720   5.863   6.528   2.305
 2029TIP3   OH227721   4.003   0.437   1.598
 2029TIP3    H127722   4.080   0.450   1.544
 2029TIP3    H227723   3.969   0.526   1.612
 2030TIP3   OH227724   2.040   1.607   7.728
 2030TIP3    H127725   1.998   1.645   7.805
 2030TIP3    H227726   2.093   1.535   7.762
 2031TIP3   OH227727   4.407   3.512   0.244
 2031TIP3    H127728   4.315   3.488   0.236
 2031TIP3    H227729   4.423   3.516   0.339
 2032TIP3   OH227730   5.753   1.645   0.569
 2032TIP3    H127731   5.733   1.717   0.509
 2032TIP3    H227732   5.709   1.569   0.530
 2033TIP3   OH227733   3.301   5.458   0.513
 2033TIP3    H127734   3.295   5.551   0.537
 2033TIP3    H227735   3.240   5.415   0.573
 2034TIP3   OH227736   3.045   1.073   1.140
 2034TIP3    H127737   2.990   1.000   1.169
 2034TIP3    H227738   3.100   1.093   1.216
 2035TIP3   OH227739   0.953   0.345   6.587
 2035TIP3    H127740   1.048   0.344   6.588
 2035TIP3    H227741   0.930   0.416   6.527
 2036TIP3   OH227742   2.233   6.670   6.561
 2036TIP3    H127743   2.170   6.598   6.562
 2036TIP3    H227744   2.284   6.657   6.641
 2037TIP3   OH227745   1.446   0.568   8.891
 2037TIP3    H127746   1.461   0.611   8.807
 2037TIP3    H227747   1.357   0.594   8.916
 2038TIP3   OH227748   4.222   4.583   7.928
 2038TIP3    H127749   4.316   4.574   7.938
 2038TIP3    H227750   4.210   4.658   7.870
 2039TIP3   OH227751   6.530   4.227   8.329
 2039TIP3    H127752   6.515   4.317   8.301
 2039TIP3    H227753   6.478   4.218   8.409
 2040TIP3   OH227754   5.870   1.698   0.177
 2040TIP3    H127755   5.799   1.641   0.148
 2040TIP3    H227756   5.828   1.758   0.240
 2041TIP3   OH227757   0.103   3.740   1.118
 2041TIP3    H127758   0.117   3.645   1.122
 2041TIP3    H227759   0.166   3.771   1.052
 2042TIP3   OH227760   6.095   2.317   0.483
 2042TIP3    H127761   6.169   2.377   0.486
 2042TIP3    H227762   6.121   2.243   0.537
 2043TIP3   OH227763   3.304   6.330   1.634
 2043TIP3    H127764   3.392   6.303   1.608
 2043TIP3    H227765   3.294   6.299   1.724
 2044TIP3   OH227766   4.971   4.880   0.873
 2044TIP3    H127767   5.005   4.926   0.796
 2044TIP3    H227768   4.969   4.788   0.846
 2045TIP3   OH227769   2.941   5.615   0.330
 2045TIP3    H127770   2.897   5.530   0.323
 2045TIP3    H227771   2.888   5.674   0.276
 2046TIP3   OH227772   0.843   0.601   1.864
 2046TIP3    H127773   0.765   0.611   1.919
 2046TIP3    H227774   0.916   0.595   1.927
 2047TIP3   OH227775   1.089   0.380   7.551
 2047TIP3    H127776   1.010   0.415   7.594
 2047TIP3    H227777   1.161   0.408   7.608
 2048TIP3   OH227778   1.846   3.081   7.637
 2048TIP3    H127779   1.930   3.085   7.592
 2048TIP3    H227780   1.823   3.173   7.653
 2049TIP3   OH227781   5.116   1.574   0.266
 2049TIP3    H127782   5.106   1.507   0.199
 2049TIP3    H227783   5.031   1.618   0.270
 2050TIP3   OH227784   6.403   1.305   8.585
 2050TIP3    H127785   6.325   1.268   8.628
 2050TIP3    H227786   6.447   1.354   8.655
 2051TIP3   OH227787   2.805   5.038   0.243
 2051TIP3    H127788   2.839   4.986   0.316
 2051TIP3    H227789   2.754   4.976   0.191
 2052TIP3   OH227790   2.198   2.650   0.115
 2052TIP3    H127791   2.235   2.738   0.118
 2052TIP3    H227792   2.104   2.664   0.108
 2053TIP3   OH227793   6.055   1.442   8.899
 2053TIP3    H127794   5.960   1.444   8.912
 2053TIP3    H227795   6.091   1.471   8.982
 2054TIP3   OH227796   4.176   5.044   1.634
 2054TIP3    H127797   4.084   5.069   1.642
 2054TIP3    H227798   4.209   5.047   1.723
 2055TIP3   OH227799   6.146   5.973   8.882
 2055TIP3    H127800   6.087   5.960   8.956
 2055TIP3    H227801   6.233   5.957   8.916
 2056TIP3   OH227802   1.105   0.583   6.338
 2056TIP3    H127803   1.136   0.512   6.395
 2056TIP3    H227804   1.183   0.609   6.289
 2057TIP3   OH227805   6.552   5.776   0.122
 2057TIP3    H127806   6.521   5.694   0.162
 2057TIP3    H227807   6.629   5.800   0.174
 2058TIP3   OH227808   1.488   6.468   1.830
 2058TIP3    H127809   1.542   6.441   1.755
 2058TIP3    H227810   1.547   6.467   1.904
 2059TIP3   OH227811   6.586   1.604   8.140
 2059TIP3    H127812   6.590   1.700   8.143
 2059TIP3    H227813   6.601   1.576   8.230
 2060TIP3   OH227814   5.190   4.717   7.545
 2060TIP3    H127815   5.181   4.699   7.451
 2060TIP3    H227816   5.213   4.810   7.549
 2061TIP3   OH227817   2.872   6.568   1.255
 2061TIP3    H127818   2.950   6.622   1.262
 2061TIP3    H227819   2.861   6.528   1.341
 2062TIP3   OH227820   4.441   5.343   1.926
 2062TIP3    H127821   4.418   5.371   2.015
 2062TIP3    H227822   4.465   5.423   1.881
 2063TIP3   OH227823   5.242   5.536   7.252
 2063TIP3    H127824   5.190   5.591   7.311
 2063TIP3    H227825   5.219   5.447   7.276
 2064TIP3   OH227826   5.862   3.868   1.265
 2064TIP3    H127827   5.846   3.907   1.179
 2064TIP3    H227828   5.916   3.791   1.246
 2065TIP3   OH227829   0.250   0.665   8.979
 2065TIP3    H127830   0.338   0.628   8.974
 2065TIP3    H227831   0.264   0.756   9.006
 2066TIP3   OH227832   6.178   1.046   1.719
 2066TIP3    H127833   6.097   1.002   1.747
 2066TIP3    H227834   6.149   1.128   1.681
 2067TIP3   OH227835   0.583   2.674   7.672
 2067TIP3    H127836   0.499   2.647   7.709
 2067TIP3    H227837   0.640   2.598   7.681
 2068TIP3   OH227838   0.946   4.497   7.640
 2068TIP3    H127839   1.033   4.538   7.640
 2068TIP3    H227840   0.900   4.542   7.711
 2069TIP3   OH227841   6.332   2.915   8.649
 2069TIP3    H127842   6.369   2.950   8.568
 2069TIP3    H227843   6.257   2.970   8.667
 2070TIP3   OH227844   5.825   3.791   0.602
 2070TIP3    H127845   5.875   3.710   0.588
 2070TIP3    H227846   5.854   3.823   0.687
 2071TIP3   OH227847   5.165   6.575   1.720
 2071TIP3    H127848   5.233   6.611   1.663
 2071TIP3    H227849   5.168   6.630   1.799
 2072TIP3   OH227850   5.193   1.104   8.423
 2072TIP3    H127851   5.223   1.033   8.366
 2072TIP3    H227852   5.158   1.170   8.363
 2073TIP3   OH227853   6.173   3.857   8.040
 2073TIP3    H127854   6.233   3.783   8.041
 2073TIP3    H227855   6.090   3.820   8.011
 2074TIP3   OH227856   1.391   1.201   7.563
 2074TIP3    H127857   1.392   1.158   7.477
 2074TIP3    H227858   1.476   1.178   7.601
 2075TIP3   OH227859   3.269   6.781   6.220
 2075TIP3    H127860   3.357   6.788   6.182
 2075TIP3    H227861   3.262   6.689   6.247
 2076TIP3   OH227862   6.256   6.141   1.159
 2076TIP3    H127863   6.345   6.113   1.181
 2076TIP3    H227864   6.220   6.175   1.241
 2077TIP3   OH227865   4.483   4.158   7.913
 2077TIP3    H127866   4.388   4.171   7.919
 2077TIP3    H227867   4.495   4.104   7.835
 2078TIP3   OH227868   0.411   5.317   6.096
 2078TIP3    H127869   0.443   5.333   6.185
 2078TIP3    H227870   0.425   5.399   6.050
 2079TIP3   OH227871   2.912   1.280   2.142
 2079TIP3    H127872   2.990   1.333   2.157
 2079TIP3    H227873   2.839   1.341   2.152
 2080TIP3   OH227874   1.821   6.777   1.994
 2080TIP3    H127875   1.813   6.750   1.902
 2080TIP3    H227876   1.855   6.700   2.038
 2081TIP3   OH227877   4.283   3.766   1.763
 2081TIP3    H127878   4.271   3.680   1.723
 2081TIP3    H227879   4.377   3.784   1.755
 2082TIP3   OH227880   1.402   6.701   1.561
 2082TIP3    H127881   1.448   6.767   1.613
 2082TIP3    H227882   1.309   6.715   1.581
 2083TIP3   OH227883   6.308   3.681   1.743
 2083TIP3    H127884   6.339   3.737   1.814
 2083TIP3    H227885   6.356   3.712   1.666
 2084TIP3   OH227886   5.572   3.113   0.017
 2084TIP3    H127887   5.547   3.201  -0.011
 2084TIP3    H227888   5.560   3.113   0.112
 2085TIP3   OH227889   5.347   5.183   7.711
 2085TIP3    H127890   5.301   5.266   7.696
 2085TIP3    H227891   5.309   5.149   7.792
 2086TIP3   OH227892   0.377   3.040   8.887
 2086TIP3    H127893   0.403   3.059   8.977
 2086TIP3    H227894   0.285   3.066   8.883
 2087TIP3   OH227895   3.318   1.715   6.606
 2087TIP3    H127896   3.257   1.735   6.535
 2087TIP3    H227897   3.366   1.639   6.575
 2088TIP3   OH227898   4.868   1.217   0.327
 2088TIP3    H127899   4.824   1.159   0.389
 2088TIP3    H227900   4.804   1.287   0.311
 2089TIP3   OH227901   2.109   0.782   7.884
 2089TIP3    H127902   2.165   0.728   7.941
 2089TIP3    H227903   2.032   0.728   7.869
 2090TIP3   OH227904   2.334   6.215   8.837
 2090TIP3    H127905   2.285   6.141   8.801
 2090TIP3    H227906   2.340   6.196   8.931
 2091TIP3   OH227907   2.177   1.121   6.622
 2091TIP3    H127908   2.116   1.190   6.595
 2091TIP3    H227909   2.195   1.140   6.714
 2092TIP3   OH227910   5.818   2.301   1.482
 2092TIP3    H127911   5.814   2.213   1.521
 2092TIP3    H227912   5.820   2.285   1.388
 2093TIP3   OH227913   1.917   3.672   8.106
 2093TIP3    H127914   1.959   3.597   8.150
 2093TIP3    H227915   1.863   3.632   8.038
 2094TIP3   OH227916   5.464   1.553   0.639
 2094TIP3    H127917   5.377   1.553   0.599
 2094TIP3    H227918   5.451   1.596   0.723
 2095TIP3   OH227919   4.246   2.108   7.463
 2095TIP3    H127920   4.282   2.051   7.532
 2095TIP3    H227921   4.267   2.063   7.382
 2096TIP3   OH227922   1.604   2.659   6.837
 2096TIP3    H127923   1.695   2.631   6.841
 2096TIP3    H227924   1.609   2.754   6.830
 2097TIP3   OH227925   0.750   4.868   8.601
 2097TIP3    H127926   0.840   4.860   8.633
 2097TIP3    H227927   0.724   4.778   8.580
 2098TIP3   OH227928   2.614   5.833   6.405
 2098TIP3    H127929   2.660   5.901   6.356
 2098TIP3    H227930   2.522   5.842   6.378
 2099TIP3   OH227931   2.518   2.147   7.899
 2099TIP3    H127932   2.491   2.163   7.989
 2099TIP3    H227933   2.456   2.082   7.867
 2100TIP3   OH227934   2.790   0.337   6.811
 2100TIP3    H127935   2.801   0.410   6.751
 2100TIP3    H227936   2.705   0.352   6.853
 2101TIP3   OH227937   4.670   3.399   0.223
 2101TIP3    H127938   4.686   3.371   0.133
 2101TIP3    H227939   4.582   3.436   0.222
 2102TIP3   OH227940   0.585   4.699   8.100
 2102TIP3    H127941   0.548   4.679   8.013
 2102TIP3    H227942   0.611   4.791   8.094
 2103TIP3   OH227943   6.134   0.472   1.484
 2103TIP3    H127944   6.052   0.423   1.481
 2103TIP3    H227945   6.187   0.434   1.414
 2104TIP3   OH227946   2.813   2.970   0.261
 2104TIP3    H127947   2.820   2.890   0.313
 2104TIP3    H227948   2.814   2.940   0.170
 2105TIP3   OH227949   6.785   4.049   7.630
 2105TIP3    H127950   6.803   3.989   7.702
 2105TIP3    H227951   6.840   4.019   7.559
 2106TIP3   OH227952   4.075   4.792   8.897
 2106TIP3    H127953   4.077   4.697   8.898
 2106TIP3    H227954   4.129   4.816   8.821
 2107TIP3   OH227955   4.681   1.987   0.505
 2107TIP3    H127956   4.773   1.990   0.480
 2107TIP3    H227957   4.664   2.072   0.545
 2108TIP3   OH227958   2.895   1.795   0.075
 2108TIP3    H127959   2.931   1.742   0.004
 2108TIP3    H227960   2.800   1.790   0.063
 2109TIP3   OH227961   1.223   4.694   1.204
 2109TIP3    H127962   1.192   4.611   1.169
 2109TIP3    H227963   1.235   4.750   1.127
 2110TIP3   OH227964   1.715   6.298   0.367
 2110TIP3    H127965   1.736   6.309   0.460
 2110TIP3    H227966   1.737   6.207   0.348
 2111TIP3   OH227967   4.844   0.247   8.645
 2111TIP3    H127968   4.879   0.282   8.727
 2111TIP3    H227969   4.921   0.235   8.590
 2112TIP3   OH227970   6.367   3.468   8.554
 2112TIP3    H127971   6.416   3.385   8.555
 2112TIP3    H227972   6.285   3.449   8.598
 2113TIP3   OH227973   1.093   3.177   1.261
 2113TIP3    H127974   1.011   3.133   1.283
 2113TIP3    H227975   1.124   3.131   1.183
 2114TIP3   OH227976   0.548   0.991   8.142
 2114TIP3    H127977   0.625   0.952   8.184
 2114TIP3    H227978   0.574   1.003   8.051
 2115TIP3   OH227979   1.175   2.886   0.495
 2115TIP3    H127980   1.226   2.967   0.485
 2115TIP3    H227981   1.151   2.885   0.587
 2116TIP3   OH227982   0.622   1.826   8.839
 2116TIP3    H127983   0.646   1.737   8.814
 2116TIP3    H227984   0.681   1.847   8.910
 2117TIP3   OH227985   0.776   2.293   7.432
 2117TIP3    H127986   0.779   2.209   7.477
 2117TIP3    H227987   0.866   2.310   7.405
 2118TIP3   OH227988   6.266   1.382   2.515
 2118TIP3    H127989   6.343   1.408   2.565
 2118TIP3    H227990   6.262   1.445   2.442
 2119TIP3   OH227991   3.922   0.272   1.145
 2119TIP3    H127992   3.994   0.209   1.151
 2119TIP3    H227993   3.893   0.284   1.235
 2120TIP3   OH227994   1.798   5.751   7.323
 2120TIP3    H127995   1.881   5.717   7.291
 2120TIP3    H227996   1.785   5.833   7.275
 2121TIP3   OH227997   1.369   4.550   0.388
 2121TIP3    H127998   1.327   4.574   0.305
 2121TIP3    H227999   1.314   4.478   0.421
 2122TIP3   OH228000   2.024   4.151   0.510
 2122TIP3    H128001   1.949   4.201   0.477
 2122TIP3    H228002   2.099   4.184   0.461
 2123TIP3   OH228003   1.298   4.154   6.133
 2123TIP3    H128004   1.220   4.099   6.121
 2123TIP3    H228005   1.353   4.133   6.058
 2124TIP3   OH228006   2.491   5.748   1.280
 2124TIP3    H128007   2.538   5.808   1.337
 2124TIP3    H228008   2.560   5.698   1.236
 2125TIP3   OH228009   2.199   0.358   8.916
 2125TIP3    H128010   2.108   0.342   8.941
 2125TIP3    H228011   2.250   0.314   8.985
 2126TIP3   OH228012   2.599   0.978   7.593
 2126TIP3    H128013   2.518   1.000   7.547
 2126TIP3    H228014   2.668   0.993   7.528
 2127TIP3   OH228015   0.168   4.318   0.259
 2127TIP3    H128016   0.229   4.292   0.190
 2127TIP3    H228017   0.223   4.359   0.326
 2128TIP3   OH228018   4.450   0.512   1.566
 2128TIP3    H128019   4.485   0.600   1.552
 2128TIP3    H228020   4.426   0.510   1.659
 2129TIP3   OH228021   2.428   1.196   1.564
 2129TIP3    H128022   2.521   1.208   1.542
 2129TIP3    H228023   2.404   1.115   1.519
 2130TIP3   OH228024   0.564   5.841   6.574
 2130TIP3    H128025   0.587   5.922   6.619
 2130TIP3    H228026   0.648   5.805   6.546
 2131TIP3   OH228027   5.088   1.028   1.556
 2131TIP3    H128028   5.077   1.115   1.595
 2131TIP3    H228029   5.105   0.970   1.630
 2132TIP3   OH228030   3.073   5.053   0.480
 2132TIP3    H128031   3.098   5.062   0.572
 2132TIP3    H228032   3.016   4.977   0.479
 2133TIP3   OH228033   6.387   5.588   7.342
 2133TIP3    H128034   6.322   5.652   7.311
 2133TIP3    H228035   6.454   5.641   7.385
 2134TIP3   OH228036   5.434   6.655   1.602
 2134TIP3    H128037   5.469   6.568   1.581
 2134TIP3    H228038   5.504   6.699   1.649
 2135TIP3   OH228039   1.362   0.691   1.944
 2135TIP3    H128040   1.400   0.611   1.981
 2135TIP3    H228041   1.291   0.713   2.004
 2136TIP3   OH228042   2.008   3.714   1.447
 2136TIP3    H128043   2.046   3.741   1.531
 2136TIP3    H228044   1.937   3.655   1.470
 2137TIP3   OH228045   6.148   3.724   0.661
 2137TIP3    H128046   6.234   3.714   0.620
 2137TIP3    H228047   6.129   3.638   0.698
 2138TIP3   OH228048   5.685   4.369   8.903
 2138TIP3    H128049   5.590   4.375   8.918
 2138TIP3    H228050   5.724   4.394   8.987
 2139TIP3   OH228051   3.007   2.003   1.853
 2139TIP3    H128052   3.011   2.090   1.892
 2139TIP3    H228053   2.916   1.976   1.866
 2140TIP3   OH228054   0.802   2.767   0.671
 2140TIP3    H128055   0.716   2.750   0.633
 2140TIP3    H228056   0.843   2.681   0.679
 2141TIP3   OH228057   0.139   6.539   0.874
 2141TIP3    H128058   0.188   6.491   0.807
 2141TIP3    H228059   0.179   6.626   0.874
 2142TIP3   OH228060   6.229   4.527   8.430
 2142TIP3    H128061   6.166   4.462   8.463
 2142TIP3    H228062   6.208   4.536   8.337
 2143TIP3   OH228063   0.368   4.719   0.184
 2143TIP3    H128064   0.390   4.729   0.277
 2143TIP3    H228065   0.278   4.687   0.184
 2144TIP3   OH228066   1.275   2.821   6.920
 2144TIP3    H128067   1.322   2.769   6.985
 2144TIP3    H228068   1.226   2.757   6.869
 2145TIP3   OH228069   1.008   4.005   0.682
 2145TIP3    H128070   0.921   3.991   0.644
 2145TIP3    H228071   1.013   3.942   0.754
 2146TIP3   OH228072   0.643   2.353   0.853
 2146TIP3    H128073   0.638   2.444   0.824
 2146TIP3    H228074   0.553   2.331   0.877
 2147TIP3   OH228075   0.784   3.309   7.021
 2147TIP3    H128076   0.696   3.332   6.992
 2147TIP3    H228077   0.836   3.388   7.003
 2148TIP3   OH228078   1.943   5.410   0.902
 2148TIP3    H128079   1.994   5.330   0.911
 2148TIP3    H228080   1.976   5.451   0.822
 2149TIP3   OH228081   2.741   2.930   6.559
 2149TIP3    H128082   2.746   2.988   6.482
 2149TIP3    H228083   2.754   2.842   6.523
 2150TIP3   OH228084   3.831   3.092   0.121
 2150TIP3    H128085   3.786   3.165   0.078
 2150TIP3    H228086   3.924   3.115   0.115
 2151TIP3   OH228087   3.826   4.970   1.965
 2151TIP3    H128088   3.883   5.030   2.013
 2151TIP3    H228089   3.738   5.007   1.974
 2152TIP3   OH228090   2.484   0.854   8.949
 2152TIP3    H128091   2.542   0.864   9.024
 2152TIP3    H228092   2.479   0.759   8.935
 2153TIP3   OH228093   2.270   5.241   1.436
 2153TIP3    H128094   2.180   5.271   1.430
 2153TIP3    H228095   2.270   5.154   1.396
 2154TIP3   OH228096   2.779   0.836   0.957
 2154TIP3    H128097   2.729   0.882   1.024
 2154TIP3    H228098   2.835   0.776   1.006
 2155TIP3   OH228099   2.705   3.377   7.572
 2155TIP3    H128100   2.636   3.406   7.633
 2155TIP3    H228101   2.787   3.402   7.615
 2156TIP3   OH228102   4.385   5.812   0.576
 2156TIP3    H128103   4.344   5.774   0.654
 2156TIP3    H228104   4.465   5.854   0.609
 2157TIP3   OH228105   5.287   2.527   8.064
 2157TIP3    H128106   5.333   2.533   8.148
 2157TIP3    H228107   5.201   2.493   8.086
 2158TIP3   OH228108   1.642   2.956   1.241
 2158TIP3    H128109   1.691   2.986   1.165
 2158TIP3    H228110   1.592   3.032   1.270
 2159TIP3   OH228111   2.736   6.542   0.764
 2159TIP3    H128112   2.772   6.508   0.846
 2159TIP3    H228113   2.694   6.625   0.790
 2160TIP3   OH228114   4.095   2.615   0.373
 2160TIP3    H128115   4.119   2.666   0.451
 2160TIP3    H228116   4.083   2.526   0.405
 2161TIP3   OH228117   5.158   5.565   1.840
 2161TIP3    H128118   5.248   5.595   1.832
 2161TIP3    H228119   5.165   5.471   1.859
 2162TIP3   OH228120   2.992   0.859   7.621
 2162TIP3    H128121   3.014   0.931   7.680
 2162TIP3    H228122   3.072   0.845   7.570
 2163TIP3   OH228123   1.439   6.695   6.576
 2163TIP3    H128124   1.345   6.675   6.579
 2163TIP3    H228125   1.482   6.610   6.572
 2164TIP3   OH228126   5.856   1.073   8.712
 2164TIP3    H128127   5.852   1.131   8.637
 2164TIP3    H228128   5.844   0.985   8.675
 2165TIP3   OH228129   2.644   2.136   1.063
 2165TIP3    H128130   2.631   2.230   1.047
 2165TIP3    H228131   2.732   2.119   1.030
 2166TIP3   OH228132   6.552   3.181   1.804
 2166TIP3    H128133   6.584   3.234   1.732
 2166TIP3    H228134   6.560   3.238   1.881
 2167TIP3   OH228135   5.533   5.728   0.851
 2167TIP3    H128136   5.576   5.643   0.841
 2167TIP3    H228137   5.448   5.717   0.808
 2168TIP3   OH228138   3.418   0.909   5.976
 2168TIP3    H128139   3.437   1.001   5.957
 2168TIP3    H228140   3.323   0.906   5.984
 2169TIP3   OH228141   3.224   4.591   7.555
 2169TIP3    H128142   3.167   4.639   7.615
 2169TIP3    H228143   3.164   4.553   7.491
 2170TIP3   OH228144   4.378   4.588   8.790
 2170TIP3    H128145   4.365   4.499   8.757
 2170TIP3    H228146   4.291   4.613   8.823
 2171TIP3   OH228147   0.325   6.555   7.927
 2171TIP3    H128148   0.414   6.553   7.963
 2171TIP3    H228149   0.327   6.623   7.860
 2172TIP3   OH228150   2.404   0.596   8.969
 2172TIP3    H128151   2.361   0.600   9.054
 2172TIP3    H228152   2.332   0.585   8.906
 2173TIP3   OH228153   1.530   4.856   7.854
 2173TIP3    H128154   1.500   4.860   7.944
 2173TIP3    H228155   1.613   4.905   7.854
 2174TIP3   OH228156   5.601   2.119   8.702
 2174TIP3    H128157   5.666   2.078   8.644
 2174TIP3    H228158   5.604   2.066   8.782
 2175TIP3   OH228159   4.189   4.462   7.425
 2175TIP3    H128160   4.137   4.410   7.486
 2175TIP3    H228161   4.194   4.548   7.466
 2176TIP3   OH228162   0.743   2.786   0.129
 2176TIP3    H128163   0.831   2.789   0.166
 2176TIP3    H228164   0.689   2.833   0.192
 2177TIP3   OH228165   0.800   3.389   7.584
 2177TIP3    H128166   0.836   3.471   7.619
 2177TIP3    H228167   0.840   3.382   7.497
 2178TIP3   OH228168   6.477   0.375   0.683
 2178TIP3    H128169   6.536   0.319   0.632
 2178TIP3    H228170   6.423   0.315   0.733
 2179TIP3   OH228171   3.579   4.035   8.061
 2179TIP3    H128172   3.575   4.125   8.029
 2179TIP3    H228173   3.488   4.011   8.078
 2180TIP3   OH228174   3.046   4.438   6.143
 2180TIP3    H128175   3.055   4.534   6.143
 2180TIP3    H228176   3.136   4.406   6.148
 2181TIP3   OH228177   1.470   0.174   6.420
 2181TIP3    H128178   1.493   0.085   6.447
 2181TIP3    H228179   1.484   0.227   6.498
 2182TIP3   OH228180   3.036   2.319   8.598
 2182TIP3    H128181   2.980   2.272   8.659
 2182TIP3    H228182   3.124   2.308   8.633
 2183TIP3   OH228183   1.802   0.774   1.528
 2183TIP3    H128184   1.887   0.731   1.544
 2183TIP3    H228185   1.774   0.805   1.614
 2184TIP3   OH228186   2.209   3.389   7.117
 2184TIP3    H128187   2.120   3.400   7.152
 2184TIP3    H228188   2.226   3.469   7.068
 2185TIP3   OH228189   0.251   4.521   2.121
 2185TIP3    H128190   0.225   4.522   2.029
 2185TIP3    H228191   0.236   4.431   2.151
 2186TIP3   OH228192   5.217   5.300   8.749
 2186TIP3    H128193   5.213   5.381   8.799
 2186TIP3    H228194   5.311   5.283   8.737
 2187TIP3   OH228195   3.683   4.921   8.838
 2187TIP3    H128196   3.713   4.872   8.762
 2187TIP3    H228197   3.610   4.974   8.805
 2188TIP3   OH228198   2.492   1.402   1.320
 2188TIP3    H128199   2.452   1.433   1.401
 2188TIP3    H228200   2.447   1.320   1.301
 2189TIP3   OH228201   6.103   4.538   7.474
 2189TIP3    H128202   6.086   4.530   7.380
 2189TIP3    H228203   6.042   4.477   7.515
 2190TIP3   OH228204   4.430   6.374   1.273
 2190TIP3    H128205   4.520   6.402   1.254
 2190TIP3    H228206   4.376   6.446   1.240
 2191TIP3   OH228207   0.770   1.449   1.917
 2191TIP3    H128208   0.705   1.501   1.964
 2191TIP3    H228209   0.798   1.382   1.980
 2192TIP3   OH228210   1.132   3.712   2.350
 2192TIP3    H128211   1.167   3.640   2.402
 2192TIP3    H228212   1.066   3.671   2.294
 2193TIP3   OH228213   5.950   3.598   7.514
 2193TIP3    H128214   5.953   3.669   7.579
 2193TIP3    H228215   5.954   3.518   7.566
 2194TIP3   OH228216   3.486   0.892   7.730
 2194TIP3    H128217   3.561   0.951   7.731
 2194TIP3    H228218   3.471   0.869   7.821
 2195TIP3   OH228219   2.196   4.963   2.028
 2195TIP3    H128220   2.286   4.993   2.018
 2195TIP3    H228221   2.204   4.885   2.083
 2196TIP3   OH228222   0.615   6.483   0.967
 2196TIP3    H128223   0.541   6.473   0.907
 2196TIP3    H228224   0.586   6.547   1.032
 2197TIP3   OH228225   5.408   2.078   1.363
 2197TIP3    H128226   5.485   2.040   1.405
 2197TIP3    H228227   5.411   2.171   1.388
 2198TIP3   OH228228   5.366   1.760   2.099
 2198TIP3    H128229   5.274   1.743   2.121
 2198TIP3    H228230   5.388   1.838   2.150
 2199TIP3   OH228231   1.690   2.552   1.209
 2199TIP3    H128232   1.680   2.509   1.294
 2199TIP3    H228233   1.645   2.495   1.147
 2200TIP3   OH228234   3.354   2.754   7.330
 2200TIP3    H128235   3.402   2.798   7.260
 2200TIP3    H228236   3.395   2.668   7.337
 2201TIP3   OH228237   5.696   5.741   8.099
 2201TIP3    H128238   5.696   5.651   8.065
 2201TIP3    H228239   5.718   5.795   8.024
 2202TIP3   OH228240   6.769   4.292   0.442
 2202TIP3    H128241   6.820   4.293   0.361
 2202TIP3    H228242   6.778   4.202   0.475
 2203TIP3   OH228243   4.592   4.333   8.102
 2203TIP3    H128244   4.597   4.427   8.086
 2203TIP3    H228245   4.559   4.296   8.020
 2204TIP3   OH228246   4.857   1.091   7.684
 2204TIP3    H128247   4.898   1.074   7.599
 2204TIP3    H228248   4.886   1.179   7.707
 2205TIP3   OH228249   5.337   5.344   0.747
 2205TIP3    H128250   5.304   5.372   0.833
 2205TIP3    H228251   5.430   5.368   0.748
 2206TIP3   OH228252   6.144   0.919   8.576
 2206TIP3    H128253   6.196   0.977   8.632
 2206TIP3    H228254   6.150   0.958   8.489
 2207TIP3   OH228255   1.403   3.090   1.834
 2207TIP3    H128256   1.381   3.010   1.785
 2207TIP3    H228257   1.460   3.139   1.775
 2208TIP3   OH228258   3.401   1.908   1.501
 2208TIP3    H128259   3.486   1.947   1.519
 2208TIP3    H228260   3.367   1.883   1.587
 2209TIP3   OH228261   1.543   1.389   1.299
 2209TIP3    H128262   1.571   1.368   1.211
 2209TIP3    H228263   1.449   1.369   1.300
 2210TIP3   OH228264   2.066   3.672   7.337
 2210TIP3    H128265   2.020   3.682   7.254
 2210TIP3    H228266   2.005   3.703   7.403
 2211TIP3   OH228267   4.353   2.426   7.788
 2211TIP3    H128268   4.310   2.477   7.857
 2211TIP3    H228269   4.288   2.421   7.718
 2212TIP3   OH228270   6.453   5.220   1.852
 2212TIP3    H128271   6.392   5.291   1.869
 2212TIP3    H228272   6.415   5.172   1.779
 2213TIP3   OH228273   1.446   1.663   6.976
 2213TIP3    H128274   1.363   1.706   6.996
 2213TIP3    H228275   1.429   1.614   6.895
 2214TIP3   OH228276   4.904   0.660   1.186
 2214TIP3    H128277   4.855   0.660   1.104
 2214TIP3    H228278   4.915   0.752   1.208
 2215TIP3   OH228279   1.177   4.778   1.462
 2215TIP3    H128280   1.190   4.697   1.511
 2215TIP3    H228281   1.187   4.753   1.370
 2216TIP3   OH228282   3.536   3.420   7.148
 2216TIP3    H128283   3.590   3.342   7.141
 2216TIP3    H228284   3.551   3.468   7.067
 2217TIP3   OH228285   0.947   4.017   8.541
 2217TIP3    H128286   0.919   4.103   8.573
 2217TIP3    H228287   0.968   3.968   8.621
 2218TIP3   OH228288   1.906   3.173   0.353
 2218TIP3    H128289   1.998   3.147   0.365
 2218TIP3    H228290   1.855   3.101   0.390
 2219TIP3   OH228291   2.573   0.860   1.848
 2219TIP3    H128292   2.586   0.795   1.917
 2219TIP3    H228293   2.480   0.854   1.826
 2220TIP3   OH228294   5.558   1.053   1.144
 2220TIP3    H128295   5.473   1.097   1.150
 2220TIP3    H228296   5.600   1.073   1.228
 2221TIP3   OH228297   4.096   1.917   0.893
 2221TIP3    H128298   4.123   1.845   0.950
 2221TIP3    H228299   4.175   1.971   0.886
 2222TIP3   OH228300   1.187   0.241   1.330
 2222TIP3    H128301   1.163   0.304   1.398
 2222TIP3    H228302   1.282   0.229   1.341
 2223TIP3   OH228303   3.295   1.181   1.271
 2223TIP3    H128304   3.281   1.213   1.182
 2223TIP3    H228305   3.371   1.230   1.303
 2224TIP3   OH228306   5.393   3.687   1.355
 2224TIP3    H128307   5.393   3.617   1.420
 2224TIP3    H228308   5.334   3.754   1.391
 2225TIP3   OH228309   1.267   6.463   8.336
 2225TIP3    H128310   1.172   6.454   8.328
 2225TIP3    H228311   1.297   6.480   8.247
 2226TIP3   OH228312   5.673   0.927   7.929
 2226TIP3    H128313   5.632   0.885   7.853
 2226TIP3    H228314   5.635   1.015   7.931
 2227TIP3   OH228315   5.472   2.323   0.544
 2227TIP3    H128316   5.405   2.388   0.524
 2227TIP3    H228317   5.461   2.255   0.478
 2228TIP3   OH228318   2.300   1.985   8.121
 2228TIP3    H128319   2.250   1.953   8.197
 2228TIP3    H228320   2.255   1.947   8.045
 2229TIP3   OH228321   6.312   4.875   1.364
 2229TIP3    H128322   6.222   4.870   1.333
 2229TIP3    H228323   6.361   4.910   1.290
 2230TIP3   OH228324   6.160   2.392   8.484
 2230TIP3    H128325   6.175   2.477   8.526
 2230TIP3    H228326   6.248   2.362   8.459
 2231TIP3   OH228327   0.702   4.945   1.939
 2231TIP3    H128328   0.620   4.953   1.987
 2231TIP3    H228329   0.733   5.035   1.929
 2232TIP3   OH228330   5.192   1.192   7.477
 2232TIP3    H128331   5.149   1.107   7.486
 2232TIP3    H228332   5.279   1.170   7.443
 2233TIP3   OH228333   0.111   1.891   6.895
 2233TIP3    H128334   0.097   1.980   6.864
 2233TIP3    H228335   0.054   1.884   6.972
 2234TIP3   OH228336   6.435   1.795   1.505
 2234TIP3    H128337   6.520   1.751   1.499
 2234TIP3    H228338   6.422   1.833   1.418
 2235TIP3   OH228339   3.683   1.588   7.838
 2235TIP3    H128340   3.694   1.584   7.743
 2235TIP3    H228341   3.671   1.497   7.865
 2236TIP3   OH228342   3.073   2.465   6.648
 2236TIP3    H128343   3.013   2.482   6.576
 2236TIP3    H228344   3.030   2.503   6.725
 2237TIP3   OH228345   4.895   3.775   8.705
 2237TIP3    H128346   4.899   3.853   8.760
 2237TIP3    H228347   4.956   3.793   8.633
 2238TIP3   OH228348   0.046   5.017   0.621
 2238TIP3    H128349   0.028   5.090   0.679
 2238TIP3    H228350   0.111   5.050   0.559
 2239TIP3   OH228351   2.557   5.375   1.791
 2239TIP3    H128352   2.514   5.401   1.873
 2239TIP3    H228353   2.650   5.392   1.806
 2240TIP3   OH228354   1.579   5.923   0.464
 2240TIP3    H128355   1.623   5.981   0.402
 2240TIP3    H228356   1.649   5.872   0.504
 2241TIP3   OH228357   2.360   5.103   0.600
 2241TIP3    H128358   2.410   5.023   0.583
 2241TIP3    H228359   2.421   5.160   0.647
 2242TIP3   OH228360   5.978   1.113   8.973
 2242TIP3    H128361   6.004   1.023   8.991
 2242TIP3    H228362   5.914   1.106   8.902
 2243TIP3   OH228363   0.673   1.256   8.617
 2243TIP3    H128364   0.694   1.215   8.701
 2243TIP3    H228365   0.715   1.200   8.551
 2244TIP3   OH228366   4.562   0.681   7.573
 2244TIP3    H128367   4.516   0.745   7.628
 2244TIP3    H228368   4.544   0.708   7.483
 2245TIP3   OH228369   6.036   2.911   7.662
 2245TIP3    H128370   6.091   2.897   7.585
 2245TIP3    H228371   5.955   2.864   7.643
 2246TIP3   OH228372   6.569   0.256   1.266
 2246TIP3    H128373   6.635   0.243   1.198
 2246TIP3    H228374   6.523   0.172   1.270
 2247TIP3   OH228375   1.499   4.642   7.689
 2247TIP3    H128376   1.551   4.649   7.609
 2247TIP3    H228377   1.516   4.724   7.736
 2248TIP3   OH228378   1.902   4.835   6.289
 2248TIP3    H128379   1.961   4.871   6.223
 2248TIP3    H228380   1.892   4.743   6.265
 2249TIP3   OH228381   6.227   6.393   1.793
 2249TIP3    H128382   6.141   6.351   1.789
 2249TIP3    H228383   6.248   6.397   1.886
 2250TIP3   OH228384   3.116   2.351   0.385
 2250TIP3    H128385   3.075   2.376   0.303
 2250TIP3    H228386   3.102   2.426   0.443
 2251TIP3   OH228387   4.277   2.559   1.038
 2251TIP3    H128388   4.295   2.575   0.946
 2251TIP3    H228389   4.330   2.622   1.085
 2252TIP3   OH228390   6.522   2.300   1.589
 2252TIP3    H128391   6.559   2.268   1.507
 2252TIP3    H228392   6.430   2.273   1.586
 2253TIP3   OH228393   0.178   3.303   1.687
 2253TIP3    H128394   0.133   3.346   1.760
 2253TIP3    H228395   0.170   3.365   1.615
 2254TIP3   OH228396   6.658   4.627   7.906
 2254TIP3    H128397   6.622   4.715   7.910
 2254TIP3    H228398   6.722   4.624   7.977
 2255TIP3   OH228399   0.807   0.760   1.083
 2255TIP3    H128400   0.878   0.778   1.144
 2255TIP3    H228401   0.807   0.835   1.023
 2256TIP3   OH228402   0.202   5.445   7.545
 2256TIP3    H128403   0.198   5.383   7.618
 2256TIP3    H228404   0.243   5.396   7.474
 2257TIP3   OH228405   5.951   5.727   8.627
 2257TIP3    H128406   5.952   5.667   8.701
 2257TIP3    H228407   6.026   5.785   8.643
 2258TIP3   OH228408   1.504   0.377   6.248
 2258TIP3    H128409   1.483   0.311   6.314
 2258TIP3    H228410   1.599   0.388   6.254
 2259TIP3   OH228411   4.719   2.666   1.407
 2259TIP3    H128412   4.652   2.604   1.435
 2259TIP3    H228413   4.755   2.627   1.327
 2260TIP3   OH228414   4.395   6.224   1.972
 2260TIP3    H128415   4.357   6.304   1.934
 2260TIP3    H228416   4.334   6.155   1.947
 2261TIP3   OH228417   1.971   5.244   6.690
 2261TIP3    H128418   1.960   5.149   6.693
 2261TIP3    H228419   2.061   5.258   6.720
 2262TIP3   OH228420   3.131   2.091   7.552
 2262TIP3    H128421   3.181   2.155   7.501
 2262TIP3    H228422   3.059   2.066   7.494
 2263TIP3   OH228423   6.182   0.799   6.604
 2263TIP3    H128424   6.122   0.870   6.627
 2263TIP3    H228425   6.212   0.820   6.516
 2264TIP3   OH228426   1.995   4.847   8.955
 2264TIP3    H128427   2.044   4.819   9.031
 2264TIP3    H228428   1.996   4.943   8.960
 2265TIP3   OH228429   3.924   4.252   6.532
 2265TIP3    H128430   4.019   4.251   6.546
 2265TIP3    H228431   3.906   4.337   6.492
 2266TIP3   OH228432   5.631   6.009   8.360
 2266TIP3    H128433   5.674   5.976   8.440
 2266TIP3    H228434   5.700   6.009   8.294
 2267TIP3   OH228435   2.729   2.308   7.835
 2267TIP3    H128436   2.667   2.236   7.850
 2267TIP3    H228437   2.752   2.300   7.742
 2268TIP3   OH228438   1.843   5.737   6.934
 2268TIP3    H128439   1.795   5.783   6.865
 2268TIP3    H228440   1.829   5.645   6.915
 2269TIP3   OH228441   6.758   3.476   0.850
 2269TIP3    H128442   6.728   3.399   0.802
 2269TIP3    H228443   6.826   3.443   0.909
 2270TIP3   OH228444   4.985   5.385   0.764
 2270TIP3    H128445   5.078   5.389   0.743
 2270TIP3    H228446   4.957   5.299   0.734
 2271TIP3   OH228447   5.128   4.192   1.133
 2271TIP3    H128448   5.087   4.233   1.209
 2271TIP3    H228449   5.187   4.259   1.098
 2272TIP3   OH228450   2.737   4.895   1.284
 2272TIP3    H128451   2.771   4.984   1.292
 2272TIP3    H228452   2.669   4.890   1.350
 2273TIP3   OH228453   0.713   6.126   7.104
 2273TIP3    H128454   0.729   6.184   7.178
 2273TIP3    H228455   0.786   6.141   7.045
 2274TIP3   OH228456   2.980   6.675   8.221
 2274TIP3    H128457   2.891   6.665   8.256
 2274TIP3    H228458   2.997   6.594   8.174
 2275TIP3   OH228459   1.824   5.959   6.205
 2275TIP3    H128460   1.841   6.018   6.279
 2275TIP3    H228461   1.813   5.873   6.245
 2276TIP3   OH228462   5.134   1.370   1.411
 2276TIP3    H128463   5.126   1.356   1.317
 2276TIP3    H228464   5.073   1.442   1.429
 2277TIP3   OH228465   1.213   1.474   7.195
 2277TIP3    H128466   1.200   1.532   7.270
 2277TIP3    H228467   1.292   1.508   7.152
 2278TIP3   OH228468   2.176   0.419   7.079
 2278TIP3    H128469   2.125   0.395   7.157
 2278TIP3    H228470   2.255   0.366   7.084
 2279TIP3   OH228471   3.725   6.183   1.923
 2279TIP3    H128472   3.700   6.258   1.976
 2279TIP3    H228473   3.650   6.124   1.927
 2280TIP3   OH228474   1.743   5.814   0.955
 2280TIP3    H128475   1.660   5.825   1.002
 2280TIP3    H228476   1.792   5.750   1.007
 2281TIP3   OH228477   6.548   2.012   8.580
 2281TIP3    H128478   6.524   1.930   8.537
 2281TIP3    H228479   6.604   2.057   8.516
 2282TIP3   OH228480   4.402   1.453   6.936
 2282TIP3    H128481   4.472   1.429   6.997
 2282TIP3    H228482   4.447   1.505   6.869
 2283TIP3   OH228483   0.477   1.123   7.316
 2283TIP3    H128484   0.553   1.179   7.331
 2283TIP3    H228485   0.495   1.081   7.232
 2284TIP3   OH228486   0.403   3.745   8.730
 2284TIP3    H128487   0.495   3.751   8.755
 2284TIP3    H228488   0.395   3.661   8.685
 2285TIP3   OH228489   5.704   0.230   1.455
 2285TIP3    H128490   5.674   0.170   1.387
 2285TIP3    H228491   5.626   0.249   1.507
 2286TIP3   OH228492   3.095   4.187   0.823
 2286TIP3    H128493   3.072   4.162   0.913
 2286TIP3    H228494   3.190   4.199   0.825
 2287TIP3   OH228495   1.483   3.554   6.565
 2287TIP3    H128496   1.575   3.575   6.551
 2287TIP3    H228497   1.440   3.586   6.485
 2288TIP3   OH228498   4.627   1.956   2.175
 2288TIP3    H128499   4.656   2.041   2.209
 2288TIP3    H228500   4.708   1.907   2.162
 2289TIP3   OH228501   5.149   3.554   8.224
 2289TIP3    H128502   5.111   3.620   8.282
 2289TIP3    H228503   5.132   3.587   8.136
 2290TIP3   OH228504   5.250   2.465   2.671
 2290TIP3    H128505   5.156   2.474   2.656
 2290TIP3    H228506   5.284   2.554   2.666
 2291TIP3   OH228507   3.972   3.167   1.729
 2291TIP3    H128508   3.930   3.115   1.660
 2291TIP3    H228509   4.056   3.124   1.743
 2292TIP3   OH228510   3.096   6.135   0.780
 2292TIP3    H128511   3.017   6.189   0.781
 2292TIP3    H228512   3.102   6.100   0.869
 2293TIP3   OH228513   3.076   5.671   8.397
 2293TIP3    H128514   3.093   5.755   8.440
 2293TIP3    H228515   2.988   5.680   8.362
 2294TIP3   OH228516   1.672   2.332   8.011
 2294TIP3    H128517   1.727   2.405   8.040
 2294TIP3    H228518   1.678   2.334   7.916
 2295TIP3   OH228519   3.915   6.209   0.341
 2295TIP3    H128520   3.839   6.265   0.331
 2295TIP3    H228521   3.880   6.124   0.369
 2296TIP3   OH228522   4.716   6.001   1.000
 2296TIP3    H128523   4.806   6.034   0.992
 2296TIP3    H228524   4.721   5.909   0.975
 2297TIP3   OH228525   5.279   5.738   0.744
 2297TIP3    H128526   5.190   5.703   0.744
 2297TIP3    H228527   5.270   5.826   0.708
 2298TIP3   OH228528   0.070   0.596   1.425
 2298TIP3    H128529   0.142   0.655   1.450
 2298TIP3    H228530   0.058   0.612   1.332
 2299TIP3   OH228531   4.571   0.680   7.158
 2299TIP3    H128532   4.567   0.756   7.101
 2299TIP3    H228533   4.492   0.687   7.213
 2300TIP3   OH228534   4.453   0.964   8.759
 2300TIP3    H128535   4.442   0.959   8.664
 2300TIP3    H228536   4.526   0.905   8.777
 2301TIP3   OH228537   3.983   0.880   7.843
 2301TIP3    H128538   4.038   0.826   7.899
 2301TIP3    H228539   4.040   0.906   7.771
 2302TIP3   OH228540   2.237   4.909   8.689
 2302TIP3    H128541   2.169   4.928   8.624
 2302TIP3    H228542   2.315   4.955   8.655
 2303TIP3   OH228543   1.554   4.633   0.580
 2303TIP3    H128544   1.496   4.637   0.505
 2303TIP3    H228545   1.604   4.552   0.567
 2304TIP3   OH228546   2.131   5.472   0.700
 2304TIP3    H128547   2.160   5.455   0.610
 2304TIP3    H228548   2.122   5.567   0.705
 2305TIP3   OH228549   4.948   2.291   0.220
 2305TIP3    H128550   5.010   2.363   0.209
 2305TIP3    H228551   4.985   2.237   0.289
 2306TIP3   OH228552   2.997   5.988   8.589
 2306TIP3    H128553   3.092   5.998   8.587
 2306TIP3    H228554   2.965   6.049   8.522
 2307TIP3   OH228555   1.988   1.666   0.701
 2307TIP3    H128556   1.949   1.656   0.788
 2307TIP3    H228557   2.006   1.760   0.693
 2308TIP3   OH228558   4.798   4.281   1.444
 2308TIP3    H128559   4.776   4.192   1.415
 2308TIP3    H228560   4.885   4.272   1.483
 2309TIP3   OH228561   6.484   1.365   1.773
 2309TIP3    H128562   6.412   1.401   1.722
 2309TIP3    H228563   6.475   1.405   1.859
 2310TIP3   OH228564   2.467   5.433   0.625
 2310TIP3    H128565   2.526   5.438   0.699
 2310TIP3    H228566   2.400   5.370   0.652
 2311TIP3   OH228567   4.955   6.655   0.358
 2311TIP3    H128568   4.928   6.686   0.445
 2311TIP3    H228569   4.947   6.560   0.363
 2312TIP3   OH228570   5.892   6.574   8.158
 2312TIP3    H128571   5.923   6.522   8.085
 2312TIP3    H228572   5.972   6.610   8.197
 2313TIP3   OH228573   3.563   1.972   0.983
 2313TIP3    H128574   3.501   1.926   1.040
 2313TIP3    H228575   3.539   2.064   0.990
 2314TIP3   OH228576   3.601   6.334   8.393
 2314TIP3    H128577   3.591   6.387   8.472
 2314TIP3    H228578   3.695   6.333   8.376
 2315TIP3   OH228579   4.304   1.975   7.694
 2315TIP3    H128580   4.284   2.046   7.755
 2315TIP3    H228581   4.228   1.916   7.701
 2316TIP3   OH228582   5.598   0.498   7.353
 2316TIP3    H128583   5.583   0.592   7.339
 2316TIP3    H228584   5.547   0.477   7.431
 2317TIP3   OH228585   6.769   3.101   1.465
 2317TIP3    H128586   6.822   3.066   1.536
 2317TIP3    H228587   6.693   3.044   1.461
 2318TIP3   OH228588   4.157   3.323   1.909
 2318TIP3    H128589   4.205   3.250   1.948
 2318TIP3    H228590   4.073   3.286   1.881
 2319TIP3   OH228591   4.794   0.123   7.300
 2319TIP3    H128592   4.848   0.165   7.366
 2319TIP3    H228593   4.856   0.078   7.242
 2320TIP3   OH228594   6.398   2.370   0.771
 2320TIP3    H128595   6.371   2.316   0.697
 2320TIP3    H228596   6.322   2.369   0.831
 2321TIP3   OH228597   4.404   4.099   0.845
 2321TIP3    H128598   4.476   4.079   0.905
 2321TIP3    H228599   4.433   4.177   0.798
 2322TIP3   OH228600   0.378   1.090   8.770
 2322TIP3    H128601   0.462   1.076   8.812
 2322TIP3    H228602   0.398   1.096   8.676
 2323TIP3   OH228603   4.321   3.393   6.601
 2323TIP3    H128604   4.277   3.413   6.518
 2323TIP3    H228605   4.250   3.378   6.663
 2324TIP3   OH228606   3.870   0.011   0.939
 2324TIP3    H128607   3.908  -0.071   0.908
 2324TIP3    H228608   3.800  -0.016   0.999
 2325TIP3   OH228609   4.315   1.874   8.698
 2325TIP3    H128610   4.380   1.937   8.729
 2325TIP3    H228611   4.231   1.913   8.720
 2326TIP3   OH228612   1.210   0.383   6.524
 2326TIP3    H128613   1.293   0.387   6.572
 2326TIP3    H228614   1.230   0.332   6.446
 2327TIP3   OH228615   3.933   1.954   7.297
 2327TIP3    H128616   3.916   1.923   7.208
 2327TIP3    H228617   4.010   2.009   7.289
 2328TIP3   OH228618   2.869   1.615   0.979
 2328TIP3    H128619   2.953   1.571   0.964
 2328TIP3    H228620   2.808   1.570   0.921
 2329TIP3   OH228621   3.166   6.734   1.587
 2329TIP3    H128622   3.195   6.717   1.677
 2329TIP3    H228623   3.236   6.699   1.532
 2330TIP3   OH228624   0.576   1.561   2.079
 2330TIP3    H128625   0.546   1.602   2.160
 2330TIP3    H228626   0.589   1.635   2.019
 2331TIP3   OH228627   6.365   0.581   6.556
 2331TIP3    H128628   6.332   0.547   6.473
 2331TIP3    H228629   6.300   0.645   6.583
 2332TIP3   OH228630   3.064   1.478   6.621
 2332TIP3    H128631   2.983   1.467   6.571
 2332TIP3    H228632   3.128   1.506   6.556
 2333TIP3   OH228633   0.703   2.394   8.879
 2333TIP3    H128634   0.656   2.458   8.933
 2333TIP3    H228635   0.643   2.319   8.873
 2334TIP3   OH228636   3.478   0.849   7.313
 2334TIP3    H128637   3.526   0.768   7.297
 2334TIP3    H228638   3.405   0.822   7.369
 2335TIP3   OH228639   6.564   1.126   0.414
 2335TIP3    H128640   6.530   1.136   0.325
 2335TIP3    H228641   6.507   1.061   0.454
 2336TIP3   OH228642   2.777   2.231   8.920
 2336TIP3    H128643   2.693   2.194   8.947
 2336TIP3    H228644   2.806   2.283   8.995
 2337TIP3   OH228645   2.560   2.076   0.007
 2337TIP3    H128646   2.595   1.996   0.047
 2337TIP3    H228647   2.466   2.071   0.022
 2338TIP3   OH228648   2.156   3.886   0.566
 2338TIP3    H128649   2.182   3.975   0.542
 2338TIP3    H228650   2.120   3.849   0.485
 2339TIP3   OH228651   1.047   0.308   2.514
 2339TIP3    H128652   1.096   0.241   2.561
 2339TIP3    H228653   0.957   0.297   2.544
 2340TIP3   OH228654   5.806   3.813   8.216
 2340TIP3    H128655   5.832   3.772   8.298
 2340TIP3    H228656   5.721   3.775   8.195
 2341TIP3   OH228657   5.172   1.872   7.248
 2341TIP3    H128658   5.216   1.883   7.332
 2341TIP3    H228659   5.199   1.785   7.218
 2342TIP3   OH228660   3.932   0.974   0.474
 2342TIP3    H128661   3.881   0.895   0.488
 2342TIP3    H228662   3.990   0.953   0.400
 2343TIP3   OH228663   2.895   1.075   8.297
 2343TIP3    H128664   2.874   1.033   8.381
 2343TIP3    H228665   2.842   1.028   8.233
 2344TIP3   OH228666   6.462   1.061   1.749
 2344TIP3    H128667   6.372   1.050   1.719
 2344TIP3    H228668   6.478   1.155   1.744
 2345TIP3   OH228669   4.050   1.854   7.685
 2345TIP3    H128670   3.979   1.903   7.726
 2345TIP3    H228671   4.045   1.767   7.724
 2346TIP3   OH228672   5.139   5.830   1.299
 2346TIP3    H128673   5.155   5.865   1.386
 2346TIP3    H228674   5.211   5.768   1.284
 2347TIP3   OH228675   0.718   5.479   6.764
 2347TIP3    H128676   0.675   5.557   6.801
 2347TIP3    H228677   0.705   5.488   6.670
 2348TIP3   OH228678   6.541   4.221   8.805
 2348TIP3    H128679   6.586   4.300   8.837
 2348TIP3    H228680   6.493   4.251   8.728
 2349TIP3   OH228681   5.760   6.399   7.293
 2349TIP3    H128682   5.794   6.470   7.347
 2349TIP3    H228683   5.837   6.347   7.271
 2350TIP3   OH228684   2.321   1.406   7.184
 2350TIP3    H128685   2.262   1.444   7.120
 2350TIP3    H228686   2.277   1.418   7.268
 2351TIP3   OH228687   0.203   2.297   0.313
 2351TIP3    H128688   0.171   2.281   0.225
 2351TIP3    H228689   0.290   2.256   0.315
 2352TIP3   OH228690   3.663   5.488   7.193
 2352TIP3    H128691   3.658   5.490   7.098
 2352TIP3    H228692   3.727   5.420   7.213
 2353TIP3   OH228693   5.677   2.954   0.631
 2353TIP3    H128694   5.718   2.945   0.544
 2353TIP3    H228695   5.750   2.947   0.692
 2354TIP3   OH228696   3.865   6.144   7.208
 2354TIP3    H128697   3.797   6.207   7.184
 2354TIP3    H228698   3.913   6.128   7.127
 2355TIP3   OH228699   1.218   0.843   1.371
 2355TIP3    H128700   1.287   0.887   1.321
 2355TIP3    H228701   1.250   0.843   1.461
 2356TIP3   OH228702   1.273   2.704   8.735
 2356TIP3    H128703   1.287   2.610   8.744
 2356TIP3    H228704   1.192   2.722   8.783
 2357TIP3   OH228705   2.521   2.148   8.573
 2357TIP3    H128706   2.611   2.162   8.604
 2357TIP3    H228707   2.494   2.233   8.539
 2358TIP3   OH228708   0.775   1.391   0.918
 2358TIP3    H128709   0.776   1.318   0.856
 2358TIP3    H228710   0.730   1.462   0.871
 2359TIP3   OH228711   0.852   1.595   7.436
 2359TIP3    H128712   0.843   1.561   7.347
 2359TIP3    H228713   0.765   1.582   7.475
 2360TIP3   OH228714   1.853   1.483   7.183
 2360TIP3    H128715   1.905   1.519   7.254
 2360TIP3    H228716   1.795   1.554   7.156
 2361TIP3   OH228717   4.858   5.554   0.445
 2361TIP3    H128718   4.787   5.502   0.483
 2361TIP3    H228719   4.819   5.596   0.369
 2362TIP3   OH228720   1.643   0.673   2.642
 2362TIP3    H128721   1.607   0.636   2.561
 2362TIP3    H228722   1.615   0.614   2.711
 2363TIP3   OH228723   4.263   2.092   2.249
 2363TIP3    H128724   4.306   2.162   2.298
 2363TIP3    H228725   4.191   2.064   2.306
 2364TIP3   OH228726   6.678   6.113   7.881
 2364TIP3    H128727   6.589   6.085   7.860
 2364TIP3    H228728   6.696   6.185   7.820
 2365TIP3   OH228729   4.505   6.490   0.865
 2365TIP3    H128730   4.575   6.551   0.887
 2365TIP3    H228731   4.551   6.411   0.837
 2366TIP3   OH228732   3.080   2.999   0.907
 2366TIP3    H128733   2.995   3.011   0.949
 2366TIP3    H228734   3.077   3.058   0.831
 2367TIP3   OH228735   4.860   0.243   8.127
 2367TIP3    H128736   4.871   0.272   8.037
 2367TIP3    H228737   4.949   0.225   8.157
 2368TIP3   OH228738   1.408   3.440   7.718
 2368TIP3    H128739   1.350   3.416   7.646
 2368TIP3    H228740   1.452   3.520   7.688
 2369TIP3   OH228741   6.157   4.174   6.997
 2369TIP3    H128742   6.142   4.086   7.031
 2369TIP3    H228743   6.175   4.160   6.904
 2370TIP3   OH228744   5.914   4.524   1.789
 2370TIP3    H128745   5.974   4.595   1.813
 2370TIP3    H228746   5.875   4.553   1.706
 2371TIP3   OH228747   1.885   3.757   7.536
 2371TIP3    H128748   1.807   3.730   7.487
 2371TIP3    H228749   1.856   3.764   7.627
 2372TIP3   OH228750   0.739   5.687   8.442
 2372TIP3    H128751   0.720   5.722   8.529
 2372TIP3    H228752   0.703   5.598   8.444
 2373TIP3   OH228753   1.178   5.388   6.982
 2373TIP3    H128754   1.089   5.422   6.983
 2373TIP3    H228755   1.169   5.298   6.951
 2374TIP3   OH228756   3.543   5.958   6.345
 2374TIP3    H128757   3.506   5.878   6.382
 2374TIP3    H228758   3.598   5.928   6.273
 2375TIP3   OH228759   1.518   3.398   0.710
 2375TIP3    H128760   1.566   3.469   0.752
 2375TIP3    H228761   1.570   3.376   0.633
 2376TIP3   OH228762   1.546   4.943   8.763
 2376TIP3    H128763   1.527   4.984   8.847
 2376TIP3    H228764   1.461   4.933   8.721
 2377TIP3   OH228765   3.998   2.967   8.780
 2377TIP3    H128766   3.907   2.962   8.809
 2377TIP3    H228767   4.027   2.876   8.777
 2378TIP3   OH228768   3.030   1.836   8.208
 2378TIP3    H128769   3.015   1.742   8.216
 2378TIP3    H228770   3.111   1.843   8.158
 2379TIP3   OH228771   4.035   0.754   8.792
 2379TIP3    H128772   4.024   0.802   8.873
 2379TIP3    H228773   3.999   0.812   8.724
 2380TIP3   OH228774   4.853   1.600   6.710
 2380TIP3    H128775   4.833   1.598   6.616
 2380TIP3    H228776   4.818   1.518   6.744
 2381TIP3   OH228777   4.362   5.207   8.364
 2381TIP3    H128778   4.432   5.218   8.300
 2381TIP3    H228779   4.298   5.151   8.321
 2382TIP3   OH228780   5.911   1.217   2.062
 2382TIP3    H128781   5.970   1.224   2.137
 2382TIP3    H228782   5.949   1.274   1.995
 2383TIP3   OH228783   1.652   1.760   2.104
 2383TIP3    H128784   1.598   1.683   2.083
 2383TIP3    H228785   1.599   1.835   2.077
 2384TIP3   OH228786   1.739   0.197   0.996
 2384TIP3    H128787   1.690   0.254   1.055
 2384TIP3    H228788   1.675   0.172   0.929
 2385TIP3   OH228789   6.296   5.868   7.244
 2385TIP3    H128790   6.376   5.902   7.283
 2385TIP3    H228791   6.260   5.941   7.194
 2386TIP3   OH228792   0.442   0.317   0.672
 2386TIP3    H128793   0.347   0.311   0.685
 2386TIP3    H228794   0.469   0.229   0.647
 2387TIP3   OH228795   6.658   4.445   8.918
 2387TIP3    H128796   6.626   4.525   8.960
 2387TIP3    H228797   6.753   4.458   8.910
 2388TIP3   OH228798   1.392   1.166   1.522
 2388TIP3    H128799   1.396   1.213   1.439
 2388TIP3    H228800   1.299   1.167   1.546
 2389TIP3   OH228801   1.319   5.819   0.469
 2389TIP3    H128802   1.406   5.857   0.476
 2389TIP3    H228803   1.288   5.813   0.560
 2390TIP3   OH228804   6.434   2.642   7.383
 2390TIP3    H128805   6.426   2.689   7.301
 2390TIP3    H228806   6.493   2.569   7.363
 2391TIP3   OH228807   3.887   3.184   2.065
 2391TIP3    H128808   3.926   3.241   2.132
 2391TIP3    H228809   3.954   3.118   2.047
 2392TIP3   OH228810   5.693   4.870   1.784
 2392TIP3    H128811   5.640   4.948   1.770
 2392TIP3    H228812   5.673   4.843   1.874
 2393TIP3   OH228813   5.610   6.529   2.482
 2393TIP3    H128814   5.624   6.491   2.568
 2393TIP3    H228815   5.679   6.491   2.427
 2394TIP3   OH228816   0.569   2.608   0.015
 2394TIP3    H128817   0.552   2.653  -0.068
 2394TIP3    H228818   0.624   2.669   0.065
 2395TIP3   OH228819   5.169   3.322   7.761
 2395TIP3    H128820   5.239   3.378   7.794
 2395TIP3    H228821   5.117   3.299   7.838
 2396TIP3   OH228822   6.497   0.004   6.561
 2396TIP3    H128823   6.443   0.071   6.520
 2396TIP3    H228824   6.586   0.039   6.556
 2397TIP3   OH228825   5.865   5.453   7.509
 2397TIP3    H128826   5.793   5.445   7.572
 2397TIP3    H228827   5.873   5.366   7.470
 2398TIP3   OH228828   0.659   2.487   0.494
 2398TIP3    H128829   0.711   2.463   0.570
 2398TIP3    H228830   0.649   2.405   0.445
 2399TIP3   OH228831   1.100   2.011   0.914
 2399TIP3    H128832   1.059   2.034   0.998
 2399TIP3    H228833   1.048   2.058   0.849
 2400TIP3   OH228834   0.815   2.954   0.868
 2400TIP3    H128835   0.826   2.903   0.788
 2400TIP3    H228836   0.720   2.961   0.879
 2401TIP3   OH228837   2.394   0.216   1.116
 2401TIP3    H128838   2.342   0.296   1.117
 2401TIP3    H228839   2.407   0.195   1.209
 2402TIP3   OH228840   6.294   2.668   1.228
 2402TIP3    H128841   6.229   2.606   1.195
 2402TIP3    H228842   6.295   2.654   1.323
 2403TIP3   OH228843   2.929   2.339   7.341
 2403TIP3    H128844   2.960   2.251   7.319
 2403TIP3    H228845   3.008   2.393   7.339
 2404TIP3   OH228846   6.011   2.459   1.929
 2404TIP3    H128847   6.096   2.497   1.903
 2404TIP3    H228848   6.031   2.407   2.007
 2405TIP3   OH228849   6.559   6.683   8.312
 2405TIP3    H128850   6.524   6.770   8.295
 2405TIP3    H228851   6.519   6.657   8.396
 2406TIP3   OH228852   3.675   3.865   7.040
 2406TIP3    H128853   3.603   3.916   7.003
 2406TIP3    H228854   3.650   3.774   7.025
 2407TIP3   OH228855   3.656   2.571   8.755
 2407TIP3    H128856   3.666   2.563   8.850
 2407TIP3    H228857   3.739   2.542   8.719
 2408TIP3   OH228858   2.604   6.038   7.819
 2408TIP3    H128859   2.648   5.989   7.750
 2408TIP3    H228860   2.578   5.972   7.883
 2409TIP3   OH228861   3.554   1.648   0.582
 2409TIP3    H128862   3.561   1.740   0.607
 2409TIP3    H228863   3.598   1.643   0.497
 2410TIP3   OH228864   3.610   1.721   2.281
 2410TIP3    H128865   3.550   1.784   2.240
 2410TIP3    H228866   3.553   1.660   2.326
 2411TIP3   OH228867   5.275   6.633   8.230
 2411TIP3    H128868   5.300   6.554   8.279
 2411TIP3    H228869   5.185   6.618   8.204
 2412TIP3   OH228870   5.230   0.328   6.512
 2412TIP3    H128871   5.231   0.234   6.528
 2412TIP3    H228872   5.157   0.341   6.452
 2413TIP3   OH228873   0.144   5.863   1.005
 2413TIP3    H128874   0.079   5.827   0.944
 2413TIP3    H228875   0.165   5.790   1.063
 2414TIP3   OH228876   2.337   1.521   8.726
 2414TIP3    H128877   2.252   1.503   8.687
 2414TIP3    H228878   2.395   1.539   8.652
 2415TIP3   OH228879   6.350   2.962   0.166
 2415TIP3    H128880   6.326   3.042   0.119
 2415TIP3    H228881   6.443   2.949   0.145
 2416TIP3   OH228882   3.329   4.298   0.891
 2416TIP3    H128883   3.306   4.370   0.948
 2416TIP3    H228884   3.402   4.330   0.838
 2417TIP3   OH228885   3.321   0.360   0.320
 2417TIP3    H128886   3.228   0.376   0.301
 2417TIP3    H228887   3.358   0.333   0.236
 2418TIP3   OH228888   2.646   2.857   6.800
 2418TIP3    H128889   2.646   2.763   6.782
 2418TIP3    H228890   2.679   2.897   6.720
 2419TIP3   OH228891   3.220   2.812   8.272
 2419TIP3    H128892   3.178   2.748   8.214
 2419TIP3    H228893   3.292   2.849   8.219
 2420TIP3   OH228894   0.210   1.181   1.947
 2420TIP3    H128895   0.301   1.204   1.966
 2420TIP3    H228896   0.159   1.233   2.010
 2421TIP3   OH228897   6.401   1.004   8.651
 2421TIP3    H128898   6.395   1.090   8.609
 2421TIP3    H228899   6.490   0.975   8.631
 2422TIP3   OH228900   2.475   4.702   8.745
 2422TIP3    H128901   2.423   4.676   8.669
 2422TIP3    H228902   2.413   4.746   8.803
 2423TIP3   OH228903   6.095   2.720   0.558
 2423TIP3    H128904   6.008   2.689   0.531
 2423TIP3    H228905   6.123   2.776   0.486
 2424TIP3   OH228906   4.558   3.424   8.523
 2424TIP3    H128907   4.620   3.497   8.521
 2424TIP3    H228908   4.559   3.390   8.434
 2425TIP3   OH228909   2.068   4.288   8.507
 2425TIP3    H128910   2.144   4.275   8.450
 2425TIP3    H228911   2.032   4.373   8.481
 2426TIP3   OH228912   0.642   6.572   0.429
 2426TIP3    H128913   0.610   6.597   0.343
 2426TIP3    H228914   0.643   6.653   0.479
 2427TIP3   OH228915   2.979   1.015   0.728
 2427TIP3    H128916   3.018   0.943   0.778
 2427TIP3    H228917   2.937   1.070   0.794
 2428TIP3   OH228918   4.995   2.717   1.490
 2428TIP3    H128919   4.910   2.681   1.519
 2428TIP3    H228920   4.972   2.794   1.439
 2429TIP3   OH228921   2.648   6.370   8.806
 2429TIP3    H128922   2.643   6.448   8.860
 2429TIP3    H228923   2.638   6.402   8.716
 2430TIP3   OH228924   3.984   1.072   1.285
 2430TIP3    H128925   3.995   1.022   1.366
 2430TIP3    H228926   4.024   1.018   1.217
 2431TIP3   OH228927   0.931   5.775   1.328
 2431TIP3    H128928   0.948   5.786   1.235
 2431TIP3    H228929   1.012   5.737   1.363
 2432TIP3   OH228930   0.615   0.480   0.524
 2432TIP3    H128931   0.542   0.454   0.579
 2432TIP3    H228932   0.674   0.404   0.526
 2433TIP3   OH228933   0.542   1.556   7.498
 2433TIP3    H128934   0.490   1.510   7.564
 2433TIP3    H228935   0.511   1.521   7.415
 2434TIP3   OH228936   4.197   4.374   2.234
 2434TIP3    H128937   4.150   4.291   2.240
 2434TIP3    H228938   4.132   4.440   2.256
 2435TIP3   OH228939   1.829   5.280   8.397
 2435TIP3    H128940   1.890   5.243   8.461
 2435TIP3    H228941   1.862   5.252   8.312
 2436TIP3   OH228942   1.328   5.712   7.873
 2436TIP3    H128943   1.275   5.739   7.798
 2436TIP3    H228944   1.272   5.653   7.923
 2437TIP3   OH228945   6.551   3.270   8.582
 2437TIP3    H128946   6.531   3.177   8.571
 2437TIP3    H228947   6.629   3.271   8.638
 2438TIP3   OH228948   3.687   3.421   2.314
 2438TIP3    H128949   3.663   3.413   2.406
 2438TIP3    H228950   3.605   3.412   2.266
 2439TIP3   OH228951   2.274   0.515   6.795
 2439TIP3    H128952   2.225   0.522   6.878
 2439TIP3    H228953   2.349   0.459   6.817
 2440TIP3   OH228954   3.374   3.250   7.801
 2440TIP3    H128955   3.456   3.238   7.848
 2440TIP3    H228956   3.400   3.265   7.710
 2441TIP3   OH228957   6.444   6.187   1.842
 2441TIP3    H128958   6.509   6.169   1.911
 2441TIP3    H228959   6.399   6.266   1.872
 2442TIP3   OH228960   0.351   1.117   0.540
 2442TIP3    H128961   0.341   1.040   0.597
 2442TIP3    H228962   0.350   1.191   0.600
 2443TIP3   OH228963   3.843   3.243   8.636
 2443TIP3    H128964   3.928   3.283   8.619
 2443TIP3    H228965   3.835   3.242   8.731
 2444TIP3   OH228966   5.417   0.261   7.914
 2444TIP3    H128967   5.369   0.196   7.966
 2444TIP3    H228968   5.505   0.261   7.953
 2445TIP3   OH228969   1.829   0.360   2.229
 2445TIP3    H128970   1.773   0.368   2.306
 2445TIP3    H228971   1.902   0.418   2.246
 2446TIP3   OH228972   3.770   6.030   8.433
 2446TIP3    H128973   3.811   5.972   8.368
 2446TIP3    H228974   3.841   6.088   8.461
 2447TIP3   OH228975   0.590   6.361   8.419
 2447TIP3    H128976   0.511   6.320   8.385
 2447TIP3    H228977   0.588   6.342   8.513
 2448TIP3   OH228978   4.998   2.716   8.339
 2448TIP3    H128979   5.054   2.640   8.320
 2448TIP3    H228980   5.057   2.791   8.338
 2449TIP3   OH228981   3.393   1.852   8.333
 2449TIP3    H128982   3.327   1.885   8.394
 2449TIP3    H228983   3.349   1.853   8.247
 2450TIP3   OH228984   2.669   5.549   7.260
 2450TIP3    H128985   2.672   5.641   7.233
 2450TIP3    H228986   2.758   5.531   7.292
 2451TIP3   OH228987   0.467   2.232   8.819
 2451TIP3    H128988   0.506   2.210   8.735
 2451TIP3    H228989   0.400   2.165   8.832
 2452TIP3   OH228990   3.221   4.552   0.591
 2452TIP3    H128991   3.293   4.496   0.565
 2452TIP3    H228992   3.200   4.603   0.513
 2453TIP3   OH228993   2.811   0.589   6.309
 2453TIP3    H128994   2.746   0.519   6.305
 2453TIP3    H228995   2.890   0.546   6.340
 2454TIP3   OH228996   2.763   6.254   8.426
 2454TIP3    H128997   2.805   6.335   8.396
 2454TIP3    H228998   2.820   6.223   8.497
 2455TIP3   OH228999   1.927   6.658   0.641
 2455TIP3    H129000   2.015   6.660   0.679
 2455TIP3    H229001   1.916   6.744   0.601
 2456TIP3   OH229002   6.666   4.887   1.801
 2456TIP3    H129003   6.628   4.818   1.855
 2456TIP3    H229004   6.615   4.886   1.720
 2457TIP3   OH229005   4.028   1.287   8.500
 2457TIP3    H129006   4.072   1.223   8.444
 2457TIP3    H229007   3.969   1.334   8.441
 2458TIP3   OH229008   2.288   6.059   8.413
 2458TIP3    H129009   2.293   5.966   8.435
 2458TIP3    H229010   2.195   6.080   8.421
 2459TIP3   OH229011   1.778   6.380   1.176
 2459TIP3    H129012   1.711   6.343   1.119
 2459TIP3    H229013   1.757   6.347   1.263
 2460TIP3   OH229014   3.328   3.145   1.153
 2460TIP3    H129015   3.273   3.210   1.110
 2460TIP3    H229016   3.389   3.116   1.086
 2461TIP3   OH229017   5.060   3.246   0.091
 2461TIP3    H129018   5.121   3.273   0.022
 2461TIP3    H229019   5.101   3.169   0.130
 2462TIP3   OH229020   1.153   0.089   0.373
 2462TIP3    H129021   1.113   0.167   0.334
 2462TIP3    H229022   1.130   0.094   0.466
 2463TIP3   OH229023   3.403   1.267   0.088
 2463TIP3    H129024   3.461   1.272   0.012
 2463TIP3    H229025   3.401   1.356   0.122
 2464TIP3   OH229026   4.891   0.834   0.844
 2464TIP3    H129027   4.981   0.804   0.841
 2464TIP3    H229028   4.897   0.928   0.858
 2465TIP3   OH229029   3.407   2.930   8.053
 2465TIP3    H129030   3.473   2.998   8.065
 2465TIP3    H229031   3.345   2.967   7.990
 2466TIP3   OH229032   4.958   3.405   0.300
 2466TIP3    H129033   5.035   3.374   0.251
 2466TIP3    H229034   4.888   3.346   0.273
 2467TIP3   OH229035   5.049   0.027   0.640
 2467TIP3    H129036   5.141   0.042   0.619
 2467TIP3    H229037   5.011   0.114   0.645
 2468TIP3   OH229038   6.123   5.596   0.573
 2468TIP3    H129039   6.139   5.510   0.533
 2468TIP3    H229040   6.053   5.634   0.520
 2469TIP3   OH229041   3.036   2.603   8.551
 2469TIP3    H129042   3.023   2.513   8.581
 2469TIP3    H229043   3.042   2.595   8.456
 2470TIP3   OH229044   6.629   3.237   0.436
 2470TIP3    H129045   6.667   3.236   0.348
 2470TIP3    H229046   6.546   3.283   0.425
 2471TIP3   OH229047   1.359   0.030   8.054
 2471TIP3    H129048   1.447  -0.007   8.048
 2471TIP3    H229049   1.301  -0.041   8.027
 2472TIP3   OH229050   0.474   3.928   1.213
 2472TIP3    H129051   0.446   3.848   1.169
 2472TIP3    H229052   0.393   3.975   1.231
 2473TIP3   OH229053   6.710   1.016   8.676
 2473TIP3    H129054   6.791   0.993   8.720
 2473TIP3    H229055   6.738   1.047   8.590
 2474TIP3   OH229056   2.832   6.128   7.949
 2474TIP3    H129057   2.745   6.105   7.915
 2474TIP3    H229058   2.892   6.107   7.878
 2475TIP3   OH229059   0.223   5.985   0.538
 2475TIP3    H129060   0.256   6.068   0.505
 2475TIP3    H229061   0.268   5.972   0.621
 2476TIP3   OH229062   6.195   3.015   0.662
 2476TIP3    H129063   6.103   3.029   0.680
 2476TIP3    H229064   6.196   2.955   0.587
 2477TIP3   OH229065   2.658   2.786   0.022
 2477TIP3    H129066   2.630   2.793  -0.070
 2477TIP3    H229067   2.615   2.858   0.066
 2478TIP3   OH229068   5.593   4.459   8.115
 2478TIP3    H129069   5.610   4.365   8.116
 2478TIP3    H229070   5.676   4.497   8.085
 2479TIP3   OH229071   2.478   4.345   0.582
 2479TIP3    H129072   2.553   4.288   0.565
 2479TIP3    H229073   2.487   4.369   0.675
 2480TIP3   OH229074   1.109   1.734   7.406
 2480TIP3    H129075   1.087   1.818   7.447
 2480TIP3    H229076   1.031   1.680   7.421
 2481TIP3   OH229077   2.775   2.898   8.188
 2481TIP3    H129078   2.803   2.808   8.205
 2481TIP3    H229079   2.844   2.934   8.133
 2482TIP3   OH229080   2.550   6.107   0.666
 2482TIP3    H129081   2.465   6.091   0.625
 2482TIP3    H229082   2.593   6.170   0.609
 2483TIP3   OH229083   1.819   0.295   8.589
 2483TIP3    H129084   1.852   0.383   8.606
 2483TIP3    H229085   1.897   0.239   8.594
 2484TIP3   OH229086   1.175   6.408   2.241
 2484TIP3    H129087   1.153   6.442   2.154
 2484TIP3    H229088   1.227   6.478   2.282
 2485TIP3   OH229089   5.508   1.074   2.740
 2485TIP3    H129090   5.557   1.155   2.724
 2485TIP3    H229091   5.474   1.083   2.829
 2486TIP3   OH229092   0.680   6.697   6.841
 2486TIP3    H129093   0.608   6.740   6.886
 2486TIP3    H229094   0.736   6.768   6.812
 2487TIP3   OH229095   0.141   0.941   7.991
 2487TIP3    H129096   0.122   0.851   8.016
 2487TIP3    H229097   0.227   0.959   8.030
 2488TIP3   OH229098   4.239   3.147   6.722
 2488TIP3    H129099   4.212   3.237   6.735
 2488TIP3    H229100   4.327   3.142   6.760
 2489TIP3   OH229101   2.198   6.661   8.055
 2489TIP3    H129102   2.150   6.588   8.016
 2489TIP3    H229103   2.145   6.687   8.130
 2490TIP3   OH229104   6.023   3.275   7.936
 2490TIP3    H129105   5.978   3.322   7.866
 2490TIP3    H229106   6.009   3.183   7.916
 2491TIP3   OH229107   1.319   1.450   8.982
 2491TIP3    H129108   1.266   1.467   9.061
 2491TIP3    H229109   1.377   1.525   8.976
 2492TIP3   OH229110   6.035   0.717   1.541
 2492TIP3    H129111   6.098   0.650   1.563
 2492TIP3    H229112   6.022   0.766   1.622
 2493TIP3   OH229113   1.250   4.260   8.698
 2493TIP3    H129114   1.236   4.173   8.660
 2493TIP3    H229115   1.321   4.298   8.646
 2494TIP3   OH229116   0.028   0.532   8.538
 2494TIP3    H129117   0.070   0.575   8.613
 2494TIP3    H229118   0.064   0.577   8.462
 2495TIP3   OH229119   5.998   5.459   1.061
 2495TIP3    H129120   5.973   5.542   1.021
 2495TIP3    H229121   6.063   5.422   1.001
 2496TIP3   OH229122   4.299   3.418   6.988
 2496TIP3    H129123   4.271   3.349   7.048
 2496TIP3    H229124   4.248   3.402   6.908
 2497TIP3   OH229125   6.273   0.439   1.720
 2497TIP3    H129126   6.298   0.528   1.745
 2497TIP3    H229127   6.197   0.450   1.663
 2498TIP3   OH229128   6.061   1.818   0.051
 2498TIP3    H129129   6.022   1.855  -0.028
 2498TIP3    H229130   5.987   1.786   0.102
 2499TIP3   OH229131   2.803   4.920   7.696
 2499TIP3    H129132   2.793   4.907   7.790
 2499TIP3    H229133   2.806   5.015   7.685
 2500TIP3   OH229134   5.292   5.037   7.172
 2500TIP3    H129135   5.257   4.954   7.205
 2500TIP3    H229136   5.356   5.064   7.238
 2501TIP3   OH229137   2.984   1.581   8.912
 2501TIP3    H129138   3.080   1.575   8.915
 2501TIP3    H229139   2.957   1.509   8.856
 2502TIP3   OH229140   6.383   0.584   7.687
 2502TIP3    H129141   6.448   0.569   7.756
 2502TIP3    H229142   6.422   0.545   7.609
 2503TIP3   OH229143   3.658   3.936   1.144
 2503TIP3    H129144   3.580   3.985   1.118
 2503TIP3    H229145   3.636   3.901   1.230
 2504TIP3   OH229146   4.140   0.705   8.480
 2504TIP3    H129147   4.228   0.679   8.508
 2504TIP3    H229148   4.156   0.764   8.406
 2505TIP3   OH229149   2.233   0.088   8.500
 2505TIP3    H129150   2.302   0.060   8.441
 2505TIP3    H229151   2.230   0.184   8.492
 2506TIP3   OH229152   3.864   4.812   1.174
 2506TIP3    H129153   3.907   4.741   1.127
 2506TIP3    H229154   3.928   4.838   1.241
 2507TIP3   OH229155   5.890   6.251   0.948
 2507TIP3    H129156   5.888   6.162   0.912
 2507TIP3    H229157   5.820   6.252   1.013
 2508TIP3   OH229158   5.563   3.845   1.964
 2508TIP3    H129159   5.528   3.813   2.047
 2508TIP3    H229160   5.524   3.932   1.954
 2509TIP3   OH229161   3.778   3.041   1.553
 2509TIP3    H129162   3.815   3.047   1.464
 2509TIP3    H229163   3.801   2.953   1.583
 2510TIP3   OH229164   0.568   3.042   0.957
 2510TIP3    H129165   0.600   3.081   1.039
 2510TIP3    H229166   0.502   2.978   0.986
 2511TIP3   OH229167   2.505   4.223   7.616
 2511TIP3    H129168   2.555   4.302   7.595
 2511TIP3    H229169   2.556   4.151   7.578
 2512TIP3   OH229170   0.872   2.676   8.440
 2512TIP3    H129171   0.961   2.710   8.453
 2512TIP3    H229172   0.860   2.678   8.345
 2513TIP3   OH229173   1.433   1.516   7.903
 2513TIP3    H129174   1.499   1.569   7.859
 2513TIP3    H229175   1.356   1.522   7.848
 2514TIP3   OH229176   3.799   1.431   8.382
 2514TIP3    H129177   3.801   1.481   8.301
 2514TIP3    H229178   3.732   1.365   8.368
 2515TIP3   OH229179   5.285   2.636   8.319
 2515TIP3    H129180   5.370   2.671   8.293
 2515TIP3    H229181   5.306   2.558   8.371
 2516TIP3   OH229182   2.374   3.976   0.383
 2516TIP3    H129183   2.351   3.891   0.345
 2516TIP3    H229184   2.356   4.039   0.313
 2517TIP3   OH229185   5.513   2.981   8.142
 2517TIP3    H129186   5.477   2.892   8.144
 2517TIP3    H229187   5.469   3.025   8.215
 2518TIP3   OH229188   5.417   1.416   0.062
 2518TIP3    H129189   5.395   1.479  -0.007
 2518TIP3    H229190   5.333   1.377   0.086
 2519TIP3   OH229191   0.589   4.306   7.555
 2519TIP3    H129192   0.629   4.223   7.527
 2519TIP3    H229193   0.561   4.289   7.645
 2520TIP3   OH229194   2.580   1.248   0.469
 2520TIP3    H129195   2.522   1.275   0.541
 2520TIP3    H229196   2.548   1.298   0.394
 2521TIP3   OH229197   3.740   3.646   0.771
 2521TIP3    H129198   3.781   3.690   0.845
 2521TIP3    H229199   3.686   3.715   0.730
 2522TIP3   OH229200   1.443   1.081   8.835
 2522TIP3    H129201   1.485   0.999   8.859
 2522TIP3    H229202   1.417   1.068   8.744
 2523TIP3   OH229203   5.924   1.338   7.171
 2523TIP3    H129204   5.855   1.365   7.109
 2523TIP3    H229205   6.001   1.386   7.143
 2524TIP3   OH229206   2.771   0.899   0.153
 2524TIP3    H129207   2.758   0.943   0.237
 2524TIP3    H229208   2.750   0.965   0.088
 2525TIP3   OH229209   5.240   4.007   6.782
 2525TIP3    H129210   5.218   4.012   6.689
 2525TIP3    H229211   5.336   3.996   6.783
 2526TIP3   OH229212   5.835   3.626   8.861
 2526TIP3    H129213   5.771   3.672   8.915
 2526TIP3    H229214   5.919   3.642   8.904
 2527TIP3   OH229215   0.833   3.154   7.787
 2527TIP3    H129216   0.851   3.238   7.745
 2527TIP3    H229217   0.815   3.175   7.878
 2528TIP3   OH229218   5.196   6.429   0.351
 2528TIP3    H129219   5.240   6.367   0.410
 2528TIP3    H229220   5.216   6.515   0.389
 2529TIP3   OH229221   5.527   3.072   1.568
 2529TIP3    H129222   5.510   3.014   1.642
 2529TIP3    H229223   5.551   3.155   1.608
 2530TIP3   OH229224   5.200   3.195   2.049
 2530TIP3    H129225   5.239   3.235   2.127
 2530TIP3    H229226   5.242   3.109   2.043
 2531TIP3   OH229227   5.287   0.941   8.750
 2531TIP3    H129228   5.230   0.929   8.674
 2531TIP3    H229229   5.372   0.906   8.724
 2532TIP3   OH229230   4.290   0.306   6.356
 2532TIP3    H129231   4.258   0.225   6.316
 2532TIP3    H229232   4.307   0.283   6.447
 2533TIP3   OH229233   5.891   0.540   7.743
 2533TIP3    H129234   5.912   0.576   7.829
 2533TIP3    H229235   5.962   0.570   7.687
 2534TIP3   OH229236   2.407   5.830   7.062
 2534TIP3    H129237   2.380   5.891   7.131
 2534TIP3    H229238   2.332   5.771   7.051
 2535TIP3   OH229239   0.906   0.500   1.594
 2535TIP3    H129240   0.824   0.481   1.547
 2535TIP3    H229241   0.878   0.542   1.675
 2536TIP3   OH229242   4.371   5.718   8.419
 2536TIP3    H129243   4.376   5.785   8.351
 2536TIP3    H229244   4.346   5.639   8.372
 2537TIP3   OH229245   3.048   2.493   8.274
 2537TIP3    H129246   2.980   2.453   8.219
 2537TIP3    H229247   3.123   2.434   8.264
 2538TIP3   OH229248   3.045   1.717   6.387
 2538TIP3    H129249   3.099   1.638   6.392
 2538TIP3    H229250   2.955   1.685   6.383
 2539TIP3   OH229251   5.041   1.651   0.743
 2539TIP3    H129252   4.971   1.630   0.805
 2539TIP3    H229253   5.091   1.720   0.787
 2540TIP3   OH229254   1.222   5.669   6.682
 2540TIP3    H129255   1.246   5.737   6.620
 2540TIP3    H229256   1.134   5.692   6.711
 2541TIP3   OH229257   0.121   6.051   8.633
 2541TIP3    H129258   0.117   5.962   8.598
 2541TIP3    H229259   0.073   6.104   8.569
 2542TIP3   OH229260   2.083   5.727   8.712
 2542TIP3    H129261   2.016   5.687   8.768
 2542TIP3    H229262   2.161   5.674   8.730
 2543TIP3   OH229263   0.704   5.329   0.306
 2543TIP3    H129264   0.760   5.407   0.309
 2543TIP3    H229265   0.717   5.294   0.218
 2544TIP3   OH229266   2.157   2.180   1.082
 2544TIP3    H129267   2.151   2.195   0.988
 2544TIP3    H229268   2.067   2.162   1.110
 2545TIP3   OH229269   1.280   2.337   1.231
 2545TIP3    H129270   1.255   2.352   1.322
 2545TIP3    H229271   1.228   2.261   1.204
 2546TIP3   OH229272   5.051   3.655   1.180
 2546TIP3    H129273   5.061   3.746   1.208
 2546TIP3    H229274   5.101   3.604   1.244
 2547TIP3   OH229275   2.229   4.245   7.686
 2547TIP3    H129276   2.321   4.243   7.659
 2547TIP3    H229277   2.231   4.215   7.777
 2548TIP3   OH229278   2.593   0.777   0.442
 2548TIP3    H129279   2.623   0.830   0.516
 2548TIP3    H229280   2.502   0.754   0.464
 2549TIP3   OH229281   6.345   5.307   1.334
 2549TIP3    H129282   6.282   5.266   1.275
 2549TIP3    H229283   6.309   5.394   1.352
 2550TIP3   OH229284   6.621   1.520   1.289
 2550TIP3    H129285   6.645   1.567   1.209
 2550TIP3    H229286   6.525   1.521   1.289
 2551TIP3   OH229287   5.676   3.643   7.711
 2551TIP3    H129288   5.654   3.676   7.623
 2551TIP3    H229289   5.645   3.712   7.770
 2552TIP3   OH229290   0.502   6.713   1.298
 2552TIP3    H129291   0.455   6.793   1.278
 2552TIP3    H229292   0.590   6.726   1.262
 2553TIP3   OH229293   1.914   6.719   7.917
 2553TIP3    H129294   1.970   6.786   7.955
 2553TIP3    H229295   1.890   6.752   7.831
 2554TIP3   OH229296   5.924   4.509   8.217
 2554TIP3    H129297   5.936   4.442   8.150
 2554TIP3    H229298   5.957   4.589   8.176
 2555TIP3   OH229299   6.371   5.480   8.918
 2555TIP3    H129300   6.353   5.530   8.839
 2555TIP3    H229301   6.392   5.392   8.887
 2556TIP3   OH229302   0.159   6.445   7.519
 2556TIP3    H129303   0.077   6.493   7.533
 2556TIP3    H229304   0.165   6.435   7.424
 2557TIP3   OH229305   2.141   3.012   8.408
 2557TIP3    H129306   2.149   3.022   8.503
 2557TIP3    H229307   2.047   3.005   8.391
 2558TIP3   OH229308   3.530   0.224   2.018
 2558TIP3    H129309   3.610   0.259   2.058
 2558TIP3    H229310   3.470   0.212   2.092
 2559TIP3   OH229311   5.154   6.494   1.002
 2559TIP3    H129312   5.107   6.564   0.957
 2559TIP3    H229313   5.205   6.539   1.070
 2560TIP3   OH229314   1.449   5.602   6.827
 2560TIP3    H129315   1.494   5.680   6.860
 2560TIP3    H229316   1.364   5.634   6.798
 2561TIP3   OH229317   6.224   5.795   0.764
 2561TIP3    H129318   6.206   5.702   0.751
 2561TIP3    H229319   6.261   5.800   0.852
 2562TIP3   OH229320   6.723   6.646   0.666
 2562TIP3    H129321   6.781   6.573   0.644
 2562TIP3    H229322   6.660   6.609   0.728
 2563TIP3   OH229323   5.144   0.772   8.562
 2563TIP3    H129324   5.148   0.678   8.581
 2563TIP3    H229325   5.172   0.779   8.471
 2564TIP3   OH229326   3.059   0.555   8.714
 2564TIP3    H129327   3.047   0.472   8.760
 2564TIP3    H229328   3.118   0.534   8.641
 2565TIP3   OH229329   1.603   4.410   8.242
 2565TIP3    H129330   1.524   4.406   8.188
 2565TIP3    H229331   1.646   4.491   8.216
 2566TIP3   OH229332   2.418   3.947   6.549
 2566TIP3    H129333   2.379   3.968   6.464
 2566TIP3    H229334   2.439   4.032   6.587
 2567TIP3   OH229335   0.270   5.471   2.008
 2567TIP3    H129336   0.214   5.547   1.994
 2567TIP3    H229337   0.219   5.397   1.976
 2568TIP3   OH229338   1.609   2.027   0.339
 2568TIP3    H129339   1.643   2.038   0.427
 2568TIP3    H229340   1.668   2.079   0.284
 2569TIP3   OH229341   4.352   0.310   2.021
 2569TIP3    H129342   4.331   0.309   2.115
 2569TIP3    H229343   4.440   0.273   2.016
 2570TIP3   OH229344   1.002   5.797   6.772
 2570TIP3    H129345   1.025   5.847   6.851
 2570TIP3    H229346   0.929   5.846   6.733
 2571TIP3   OH229347   1.719   2.534   0.323
 2571TIP3    H129348   1.729   2.451   0.277
 2571TIP3    H229349   1.625   2.543   0.336
 2572TIP3   OH229350   4.929   5.853   8.336
 2572TIP3    H129351   4.974   5.791   8.394
 2572TIP3    H229352   4.975   5.936   8.349
 2573TIP3   OH229353   1.661   5.421   6.675
 2573TIP3    H129354   1.621   5.349   6.626
 2573TIP3    H229355   1.588   5.473   6.706
 2574TIP3   OH229356   1.445   2.858   8.165
 2574TIP3    H129357   1.510   2.898   8.223
 2574TIP3    H229358   1.489   2.782   8.128
 2575TIP3   OH229359   0.521   1.804   8.366
 2575TIP3    H129360   0.473   1.886   8.377
 2575TIP3    H229361   0.456   1.742   8.333
 2576TIP3   OH229362   4.948   5.931   0.804
 2576TIP3    H129363   4.939   5.837   0.823
 2576TIP3    H229364   4.961   5.971   0.890
 2577TIP3   OH229365   4.138   1.693   1.060
 2577TIP3    H129366   4.191   1.732   1.130
 2577TIP3    H229367   4.174   1.606   1.048
 2578TIP3   OH229368   3.872   1.384   7.211
 2578TIP3    H129369   3.799   1.398   7.270
 2578TIP3    H229370   3.838   1.325   7.143
 2579TIP3   OH229371   5.322   0.631   6.774
 2579TIP3    H129372   5.377   0.707   6.757
 2579TIP3    H229373   5.378   0.570   6.822
 2580TIP3   OH229374   2.280   3.592   0.247
 2580TIP3    H129375   2.338   3.568   0.319
 2580TIP3    H229376   2.225   3.514   0.234
 2581TIP3   OH229377   1.671   5.785   8.858
 2581TIP3    H129378   1.663   5.771   8.952
 2581TIP3    H229379   1.732   5.716   8.830
 2582TIP3   OH229380   5.804   4.371   8.560
 2582TIP3    H129381   5.727   4.405   8.515
 2582TIP3    H229382   5.815   4.429   8.635
 2583TIP3   OH229383   1.356   0.318   2.225
 2583TIP3    H129384   1.427   0.308   2.161
 2583TIP3    H229385   1.298   0.383   2.186
 2584TIP3   OH229386   5.784   2.051   0.984
 2584TIP3    H129387   5.823   1.966   1.004
 2584TIP3    H229388   5.700   2.030   0.943
 2585TIP3   OH229389   1.072   0.232   7.899
 2585TIP3    H129390   1.076   0.280   7.982
 2585TIP3    H229391   1.094   0.297   7.833
 2586TIP3   OH229392   2.334   5.068   0.095
 2586TIP3    H129393   2.301   5.113   0.173
 2586TIP3    H229394   2.274   5.095   0.025
 2587TIP3   OH229395   3.399   2.631   8.115
 2587TIP3    H129396   3.485   2.657   8.149
 2587TIP3    H229397   3.382   2.691   8.043
 2588TIP3   OH229398   6.561   5.125   0.474
 2588TIP3    H129399   6.624   5.080   0.530
 2588TIP3    H229400   6.608   5.200   0.439
 2589TIP3   OH229401   2.060   0.137   0.574
 2589TIP3    H129402   2.109   0.109   0.496
 2589TIP3    H229403   2.118   0.115   0.647
 2590TIP3   OH229404   1.124   5.949   0.838
 2590TIP3    H129405   1.068   5.966   0.763
 2590TIP3    H229406   1.135   5.854   0.838
 2591TIP3   OH229407   6.408   3.237   7.670
 2591TIP3    H129408   6.313   3.253   7.667
 2591TIP3    H229409   6.439   3.256   7.582
 2592TIP3   OH229410   0.858   4.234   7.840
 2592TIP3    H129411   0.898   4.199   7.761
 2592TIP3    H229412   0.903   4.317   7.856
 2593TIP3   OH229413   3.178   5.823   5.959
 2593TIP3    H129414   3.269   5.850   5.964
 2593TIP3    H229415   3.137   5.861   6.037
 2594TIP3   OH229416   0.103   0.516   0.855
 2594TIP3    H129417   0.172   0.492   0.916
 2594TIP3    H229418   0.022   0.485   0.897
 2595TIP3   OH229419   1.018   6.338   0.940
 2595TIP3    H129420   0.952   6.293   0.993
 2595TIP3    H229421   0.987   6.429   0.937
 2596TIP3   OH229422   1.403   4.011   7.452
 2596TIP3    H129423   1.343   4.082   7.476
 2596TIP3    H229424   1.482   4.028   7.503
 2597TIP3   OH229425   6.258   4.878   8.781
 2597TIP3    H129426   6.318   4.886   8.856
 2597TIP3    H229427   6.178   4.842   8.819
 2598TIP3   OH229428   3.929   6.156   7.635
 2598TIP3    H129429   3.907   6.202   7.716
 2598TIP3    H229430   4.018   6.185   7.615
 2599TIP3   OH229431   4.715   2.463   0.308
 2599TIP3    H129432   4.793   2.412   0.288
 2599TIP3    H229433   4.713   2.468   0.404
 2600TIP3   OH229434   0.642   1.038   1.234
 2600TIP3    H129435   0.647   1.121   1.282
 2600TIP3    H229436   0.701   1.049   1.160
 2601TIP3   OH229437   4.504   6.464   7.131
 2601TIP3    H129438   4.588   6.446   7.089
 2601TIP3    H229439   4.509   6.420   7.216
 2602TIP3   OH229440   4.538   1.483   8.266
 2602TIP3    H129441   4.615   1.512   8.218
 2602TIP3    H229442   4.466   1.537   8.233
 2603TIP3   OH229443   3.780   1.368   8.825
 2603TIP3    H129444   3.826   1.452   8.820
 2603TIP3    H229445   3.849   1.303   8.813
 2604TIP3   OH229446   3.128   5.683   1.535
 2604TIP3    H129447   3.114   5.612   1.598
 2604TIP3    H229448   3.087   5.759   1.575
 2605TIP3   OH229449   2.414   1.341   8.932
 2605TIP3    H129450   2.409   1.245   8.926
 2605TIP3    H229451   2.357   1.372   8.862
 2606TIP3   OH229452   1.286   0.640   7.459
 2606TIP3    H129453   1.253   0.609   7.544
 2606TIP3    H229454   1.312   0.730   7.475
 2607TIP3   OH229455   0.356   4.433   0.704
 2607TIP3    H129456   0.373   4.349   0.746
 2607TIP3    H229457   0.325   4.489   0.775
 2608TIP3   OH229458   6.385   5.548   8.268
 2608TIP3    H129459   6.392   5.456   8.295
 2608TIP3    H229460   6.439   5.554   8.190
 2609TIP3   OH229461   1.306   2.642   7.997
 2609TIP3    H129462   1.247   2.668   7.927
 2609TIP3    H229463   1.272   2.687   8.075
 2610TIP3   OH229464   5.650   1.800   6.803
 2610TIP3    H129465   5.715   1.801   6.733
 2610TIP3    H229466   5.611   1.887   6.801
 2611TIP3   OH229467   5.072   4.598   7.117
 2611TIP3    H129468   4.992   4.557   7.083
 2611TIP3    H229469   5.142   4.561   7.064
 2612TIP3   OH229470   1.534   1.915   7.213
 2612TIP3    H129471   1.612   1.965   7.238
 2612TIP3    H229472   1.502   1.959   7.134
 2613TIP3   OH229473   5.197   5.294   7.443
 2613TIP3    H129474   5.265   5.357   7.469
 2613TIP3    H229475   5.160   5.264   7.526
 2614TIP3   OH229476   5.127   2.739   0.327
 2614TIP3    H129477   5.041   2.734   0.286
 2614TIP3    H229478   5.188   2.746   0.254
 2615TIP3   OH229479   3.133   6.016   1.483
 2615TIP3    H129480   3.095   6.101   1.503
 2615TIP3    H229481   3.059   5.962   1.456
 2616TIP3   OH229482   3.106   0.649   7.043
 2616TIP3    H129483   3.077   0.717   7.104
 2616TIP3    H229484   3.144   0.697   6.970
 2617TIP3   OH229485   0.247   3.312   8.471
 2617TIP3    H129486   0.233   3.396   8.427
 2617TIP3    H229487   0.341   3.296   8.462
 2618TIP3   OH229488   2.278   1.232   0.531
 2618TIP3    H129489   2.186   1.224   0.554
 2618TIP3    H229490   2.325   1.222   0.614
 2619TIP3   OH229491   5.881   2.608   8.967
 2619TIP3    H129492   5.805   2.665   8.972
 2619TIP3    H229493   5.863   2.537   9.029
 2620TIP3   OH229494   3.435   4.439   7.633
 2620TIP3    H129495   3.348   4.468   7.605
 2620TIP3    H229496   3.495   4.483   7.573
 2621TIP3   OH229497   1.563   3.524   8.715
 2621TIP3    H129498   1.630   3.565   8.770
 2621TIP3    H229499   1.589   3.547   8.625
 2622TIP3   OH229500   4.394   1.276   8.163
 2622TIP3    H129501   4.442   1.327   8.228
 2622TIP3    H229502   4.435   1.299   8.080
 2623TIP3   OH229503   0.653   5.277   8.017
 2623TIP3    H129504   0.659   5.279   7.921
 2623TIP3    H229505   0.561   5.296   8.035
 2624TIP3   OH229506   0.093   5.082   0.161
 2624TIP3    H129507   0.037   5.044   0.228
 2624TIP3    H229508   0.072   5.176   0.162
 2625TIP3   OH229509   0.623   1.327   2.292
 2625TIP3    H129510   0.701   1.288   2.255
 2625TIP3    H229511   0.608   1.407   2.241
 2626TIP3   OH229512   6.655   2.793   8.122
 2626TIP3    H129513   6.744   2.787   8.087
 2626TIP3    H229514   6.661   2.854   8.195
 2627TIP3   OH229515   3.837   5.975   1.512
 2627TIP3    H129516   3.850   6.023   1.593
 2627TIP3    H229517   3.856   5.884   1.535
 2628TIP3   OH229518   1.397   6.479   8.080
 2628TIP3    H129519   1.469   6.426   8.115
 2628TIP3    H229520   1.435   6.565   8.065
 2629TIP3   OH229521   0.372   2.815   7.147
 2629TIP3    H129522   0.318   2.894   7.141
 2629TIP3    H229523   0.403   2.800   7.057
 2630TIP3   OH229524   0.521   0.116   0.254
 2630TIP3    H129525   0.595   0.067   0.218
 2630TIP3    H229526   0.501   0.072   0.337
 2631TIP3   OH229527   5.275   1.840   6.668
 2631TIP3    H129528   5.184   1.838   6.696
 2631TIP3    H229529   5.321   1.782   6.729
 2632TIP3   OH229530   4.806   0.101   1.402
 2632TIP3    H129531   4.799   0.185   1.446
 2632TIP3    H229532   4.866   0.117   1.329
 2633TIP3   OH229533   4.741   3.338   0.946
 2633TIP3    H129534   4.769   3.342   0.854
 2633TIP3    H229535   4.821   3.352   0.996
 2634TIP3   OH229536   6.321   5.267   6.657
 2634TIP3    H129537   6.302   5.186   6.610
 2634TIP3    H229538   6.283   5.336   6.603
 2635TIP3   OH229539   1.082   1.868   0.538
 2635TIP3    H129540   1.129   1.788   0.564
 2635TIP3    H229541   1.130   1.900   0.462
 2636TIP3   OH229542   0.512   2.669   0.957
 2636TIP3    H129543   0.516   2.639   0.866
 2636TIP3    H229544   0.435   2.726   0.959
 2637TIP3   OH229545   1.774   4.388   0.874
 2637TIP3    H129546   1.745   4.355   0.789
 2637TIP3    H229547   1.804   4.478   0.856
 2638TIP3   OH229548   1.171   3.960   6.745
 2638TIP3    H129549   1.170   4.046   6.787
 2638TIP3    H229550   1.112   3.968   6.670
 2639TIP3   OH229551   6.290   6.393   8.315
 2639TIP3    H129552   6.197   6.373   8.329
 2639TIP3    H229553   6.336   6.316   8.348
 2640TIP3   OH229554   2.619   0.239   8.055
 2640TIP3    H129555   2.558   0.190   8.108
 2640TIP3    H229556   2.703   0.193   8.065
 2641TIP3   OH229557   3.718   4.926   7.841
 2641TIP3    H129558   3.635   4.909   7.795
 2641TIP3    H229559   3.774   4.966   7.774
 2642TIP3   OH229560   2.460   3.373   8.974
 2642TIP3    H129561   2.373   3.334   8.971
 2642TIP3    H229562   2.497   3.342   9.056
 2643TIP3   OH229563   1.988   0.740   6.840
 2643TIP3    H129564   1.993   0.661   6.786
 2643TIP3    H229565   1.907   0.783   6.813
 2644TIP3   OH229566   5.446   0.903   2.532
 2644TIP3    H129567   5.505   0.949   2.472
 2644TIP3    H229568   5.442   0.959   2.609
 2645TIP3   OH229569   4.850   4.584   3.050
 2645TIP3    H129570   4.908   4.556   2.979
 2645TIP3    H229571   4.763   4.586   3.011
 2646TIP3   OH229572   4.337   4.711   2.192
 2646TIP3    H129573   4.258   4.670   2.227
 2646TIP3    H229574   4.371   4.647   2.129
 2647TIP3   OH229575   0.563   6.392   0.624
 2647TIP3    H129576   0.471   6.385   0.600
 2647TIP3    H229577   0.593   6.472   0.581
 2648TIP3   OH229578   6.131   5.421   2.693
 2648TIP3    H129579   6.199   5.372   2.646
 2648TIP3    H229580   6.117   5.372   2.773
 2649TIP3   OH229581   6.220   2.276   7.415
 2649TIP3    H129582   6.308   2.263   7.380
 2649TIP3    H229583   6.163   2.273   7.338
 2650TIP3   OH229584   2.561   4.921   0.551
 2650TIP3    H129585   2.544   4.915   0.457
 2650TIP3    H229586   2.562   4.830   0.581
 2651TIP3   OH229587   1.103   2.617   0.952
 2651TIP3    H129588   1.034   2.594   1.014
 2651TIP3    H229589   1.144   2.533   0.929
 2652TIP3   OH229590   5.385   6.115   8.383
 2652TIP3    H129591   5.475   6.083   8.372
 2652TIP3    H229592   5.376   6.128   8.477
 2653TIP3   OH229593   0.526   3.321   7.530
 2653TIP3    H129594   0.616   3.319   7.499
 2653TIP3    H229595   0.474   3.291   7.455
 2654TIP3   OH229596   6.533   5.966   7.342
 2654TIP3    H129597   6.488   6.046   7.371
 2654TIP3    H229598   6.601   5.953   7.408
 2655TIP3   OH229599   4.018   0.431   8.533
 2655TIP3    H129600   4.011   0.526   8.521
 2655TIP3    H229601   3.944   0.409   8.589
 2656TIP3   OH229602   3.671   5.463   8.158
 2656TIP3    H129603   3.668   5.521   8.234
 2656TIP3    H229604   3.581   5.459   8.126
 2657TIP3   OH229605   1.340   0.907   7.445
 2657TIP3    H129606   1.264   0.928   7.500
 2657TIP3    H229607   1.331   0.965   7.369
 2658TIP3   OH229608   2.481   3.686   8.129
 2658TIP3    H129609   2.476   3.699   8.223
 2658TIP3    H229610   2.542   3.613   8.118
 2659TIP3   OH229611   3.988   5.835   8.552
 2659TIP3    H129612   3.971   5.810   8.462
 2659TIP3    H229613   3.906   5.875   8.582
 2660TIP3   OH229614   3.374   5.625   1.416
 2660TIP3    H129615   3.299   5.638   1.473
 2660TIP3    H229616   3.339   5.582   1.338
 2661TIP3   OH229617   6.743   6.481   8.287
 2661TIP3    H129618   6.682   6.554   8.292
 2661TIP3    H229619   6.695   6.412   8.242
 2662TIP3   OH229620   3.209   4.172   8.071
 2662TIP3    H129621   3.142   4.189   8.004
 2662TIP3    H229622   3.241   4.084   8.051
 2663TIP3   OH229623   4.351   2.007   8.100
 2663TIP3    H129624   4.266   1.982   8.136
 2663TIP3    H229625   4.389   1.925   8.069
 2664TIP3   OH229626   6.298   0.404   1.254
 2664TIP3    H129627   6.321   0.457   1.178
 2664TIP3    H229628   6.367   0.423   1.318
 2665TIP3   OH229629   5.853   3.252   0.660
 2665TIP3    H129630   5.838   3.175   0.714
 2665TIP3    H229631   5.893   3.218   0.580
 2666TIP3   OH229632   4.673   4.259   0.117
 2666TIP3    H129633   4.760   4.248   0.157
 2666TIP3    H229634   4.617   4.199   0.166
 2667TIP3   OH229635   4.320   4.908   8.798
 2667TIP3    H129636   4.283   4.911   8.887
 2667TIP3    H229637   4.384   4.979   8.797
 2668TIP3   OH229638   5.010   3.345   1.906
 2668TIP3    H129639   5.052   3.429   1.892
 2668TIP3    H229640   5.081   3.285   1.926
 2669TIP3   OH229641   1.370   5.337   0.046
 2669TIP3    H129642   1.377   5.303  -0.043
 2669TIP3    H229643   1.310   5.278   0.090
 2670TIP3   OH229644   3.569   3.169   8.796
 2670TIP3    H129645   3.478   3.191   8.820
 2670TIP3    H229646   3.564   3.140   8.705
 2671TIP3   OH229647   1.921   4.776   8.540
 2671TIP3    H129648   1.876   4.842   8.593
 2671TIP3    H229649   1.993   4.823   8.499
 2672TIP3   OH229650   3.366   5.595   8.910
 2672TIP3    H129651   3.335   5.677   8.947
 2672TIP3    H229652   3.366   5.609   8.815
 2673TIP3   OH229653   2.942   3.474   8.449
 2673TIP3    H129654   2.995   3.442   8.523
 2673TIP3    H229655   2.879   3.404   8.433
 2674TIP3   OH229656   3.488   4.486   1.785
 2674TIP3    H129657   3.569   4.478   1.835
 2674TIP3    H229658   3.423   4.439   1.838
 2675TIP3   OH229659   5.715   5.919   0.240
 2675TIP3    H129660   5.747   5.853   0.301
 2675TIP3    H229661   5.621   5.926   0.259
 2676TIP3   OH229662   0.845   5.000   0.456
 2676TIP3    H129663   0.756   4.988   0.422
 2676TIP3    H229664   0.879   4.911   0.465
 2677TIP3   OH229665   5.553   1.058   1.651
 2677TIP3    H129666   5.534   1.152   1.649
 2677TIP3    H229667   5.632   1.050   1.704
 2678TIP3   OH229668   0.672   0.339   7.543
 2678TIP3    H129669   0.721   0.379   7.471
 2678TIP3    H229670   0.730   0.347   7.619
 2679TIP3   OH229671   4.113   4.234   8.923
 2679TIP3    H129672   4.084   4.202   9.009
 2679TIP3    H229673   4.099   4.160   8.864
 2680TIP3   OH229674   6.039   4.892   1.288
 2680TIP3    H129675   6.017   4.978   1.252
 2680TIP3    H229676   6.015   4.899   1.381
 2681TIP3   OH229677   2.466   5.433   8.445
 2681TIP3    H129678   2.558   5.453   8.429
 2681TIP3    H229679   2.454   5.345   8.409
 2682TIP3   OH229680   0.812   1.001   0.968
 2682TIP3    H129681   0.832   1.086   1.009
 2682TIP3    H229682   0.796   1.022   0.876
 2683TIP3   OH229683   6.527   5.640   7.779
 2683TIP3    H129684   6.567   5.629   7.693
 2683TIP3    H229685   6.489   5.727   7.777
 2684TIP3   OH229686   4.221   0.179   8.067
 2684TIP3    H129687   4.203   0.271   8.044
 2684TIP3    H229688   4.277   0.147   7.997
 2685TIP3   OH229689   3.379   1.072   0.375
 2685TIP3    H129690   3.350   1.130   0.304
 2685TIP3    H229691   3.301   1.058   0.428
 2686TIP3   OH229692   0.772   3.782   0.642
 2686TIP3    H129693   0.691   3.763   0.594
 2686TIP3    H229694   0.804   3.697   0.671
 2687TIP3   OH229695   0.325   4.940   8.135
 2687TIP3    H129696   0.401   4.927   8.078
 2687TIP3    H229697   0.323   4.862   8.191
 2688TIP3   OH229698   4.764   1.643   8.987
 2688TIP3    H129699   4.705   1.592   8.932
 2688TIP3    H229700   4.716   1.724   9.005
 2689TIP3   OH229701   2.442   2.482   0.498
 2689TIP3    H129702   2.366   2.426   0.512
 2689TIP3    H229703   2.437   2.507   0.406
 2690TIP3   OH229704   2.551   4.270   8.252
 2690TIP3    H129705   2.561   4.231   8.339
 2690TIP3    H229706   2.532   4.196   8.195
 2691TIP3   OH229707   1.562   6.695   7.701
 2691TIP3    H129708   1.566   6.605   7.735
 2691TIP3    H229709   1.605   6.690   7.616
 2692TIP3   OH229710   0.893   1.638   0.399
 2692TIP3    H129711   0.903   1.702   0.328
 2692TIP3    H229712   0.895   1.691   0.479
 2693TIP3   OH229713   5.368   1.029   0.434
 2693TIP3    H129714   5.339   1.019   0.524
 2693TIP3    H229715   5.372   1.123   0.420
 2694TIP3   OH229716   2.484   2.724   8.715
 2694TIP3    H129717   2.390   2.741   8.718
 2694TIP3    H229718   2.513   2.763   8.633
 2695TIP3   OH229719   0.169   0.088   8.749
 2695TIP3    H129720   0.224   0.073   8.826
 2695TIP3    H229721   0.135   0.177   8.761
 2696TIP3   OH229722   3.814   5.938   0.757
 2696TIP3    H129723   3.725   5.909   0.777
 2696TIP3    H229724   3.871   5.880   0.807
 2697TIP3   OH229725   0.449   5.362   6.972
 2697TIP3    H129726   0.459   5.268   6.958
 2697TIP3    H229727   0.496   5.379   7.054
 2698TIP3   OH229728   2.135   2.697   8.393
 2698TIP3    H129729   2.199   2.768   8.381
 2698TIP3    H229730   2.185   2.617   8.378
 2699TIP3   OH229731   3.169   5.738   7.010
 2699TIP3    H129732   3.079   5.768   7.024
 2699TIP3    H229733   3.211   5.810   6.962
 2700TIP3   OH229734   3.913   5.230   1.462
 2700TIP3    H129735   3.908   5.250   1.556
 2700TIP3    H229736   4.006   5.235   1.441
 2701TIP3   OH229737   0.580   5.977   6.888
 2701TIP3    H129738   0.613   6.052   6.937
 2701TIP3    H229739   0.493   6.003   6.860
 2702TIP3   OH229740   4.713   2.444   8.124
 2702TIP3    H129741   4.769   2.368   8.111
 2702TIP3    H229742   4.626   2.415   8.099
 2703TIP3   OH229743   5.711   2.196   7.048
 2703TIP3    H129744   5.681   2.279   7.011
 2703TIP3    H229745   5.793   2.177   7.002
 2704TIP3   OH229746   5.986   2.961   8.389
 2704TIP3    H129747   5.950   3.038   8.434
 2704TIP3    H229748   5.919   2.939   8.323
 2705TIP3   OH229749   1.585   3.886   0.489
 2705TIP3    H129750   1.546   3.878   0.576
 2705TIP3    H229751   1.679   3.891   0.506
 2706TIP3   OH229752   4.435   5.760   1.152
 2706TIP3    H129753   4.409   5.822   1.084
 2706TIP3    H229754   4.361   5.760   1.213
 2707TIP3   OH229755   2.514   3.189   8.635
 2707TIP3    H129756   2.554   3.122   8.581
 2707TIP3    H229757   2.567   3.192   8.714
 2708TIP3   OH229758   3.254   0.189   0.923
 2708TIP3    H129759   3.268   0.104   0.882
 2708TIP3    H229760   3.272   0.175   1.016
 2709TIP3   OH229761   2.263   6.401   8.324
 2709TIP3    H129762   2.196   6.379   8.260
 2709TIP3    H229763   2.215   6.423   8.404
 2710TIP3   OH229764   4.855   6.384   0.385
 2710TIP3    H129765   4.812   6.319   0.329
 2710TIP3    H229766   4.786   6.418   0.440
 2711TIP3   OH229767   5.545   3.727   0.578
 2711TIP3    H129768   5.543   3.673   0.657
 2711TIP3    H229769   5.637   3.753   0.569
 2712TIP3   OH229770   0.221   5.601   7.265
 2712TIP3    H129771   0.219   5.506   7.251
 2712TIP3    H229772   0.295   5.615   7.324
 2713TIP3   OH229773   6.129   6.248   8.803
 2713TIP3    H129774   6.203   6.274   8.748
 2713TIP3    H229775   6.151   6.160   8.833
 2714TIP3   OH229776   0.874   5.127   2.255
 2714TIP3    H129777   0.877   5.103   2.162
 2714TIP3    H229778   0.896   5.221   2.255
 2715TIP3   OH229779   1.874   6.049   6.447
 2715TIP3    H129780   1.894   5.965   6.489
 2715TIP3    H229781   1.941   6.109   6.480
 2716TIP3   OH229782   2.556   6.573   0.014
 2716TIP3    H129783   2.470   6.578  -0.028
 2716TIP3    H229784   2.551   6.636   0.086
 2717TIP3   OH229785   3.371   4.458   7.325
 2717TIP3    H129786   3.360   4.523   7.256
 2717TIP3    H229787   3.444   4.490   7.377
 2718TIP3   OH229788   5.993   1.919   6.810
 2718TIP3    H129789   6.081   1.914   6.773
 2718TIP3    H229790   5.981   2.012   6.831
 2719TIP3   OH229791   3.185   3.890   7.988
 2719TIP3    H129792   3.183   3.795   8.005
 2719TIP3    H229793   3.092   3.914   7.979
 2720TIP3   OH229794   4.375   0.996   7.484
 2720TIP3    H129795   4.339   0.964   7.401
 2720TIP3    H229796   4.455   1.043   7.458
 2721TIP3   OH229797   0.254   3.934   8.120
 2721TIP3    H129798   0.162   3.952   8.137
 2721TIP3    H229799   0.293   4.020   8.107
 2722TIP3   OH229800   1.806   2.080   6.261
 2722TIP3    H129801   1.860   2.014   6.218
 2722TIP3    H229802   1.854   2.162   6.250
 2723TIP3   OH229803   4.340   4.521   8.366
 2723TIP3    H129804   4.335   4.613   8.392
 2723TIP3    H229805   4.377   4.477   8.443
 2724TIP3   OH229806   2.012   1.076   7.625
 2724TIP3    H129807   1.961   1.080   7.706
 2724TIP3    H229808   2.022   0.983   7.608
 2725TIP3   OH229809   4.793   6.259   7.307
 2725TIP3    H129810   4.861   6.306   7.258
 2725TIP3    H229811   4.841   6.190   7.354
 2726TIP3   OH229812   2.929   3.513   6.568
 2726TIP3    H129813   3.007   3.481   6.522
 2726TIP3    H229814   2.879   3.433   6.588
 2727TIP3   OH229815   4.536   1.380   1.799
 2727TIP3    H129816   4.576   1.397   1.883
 2727TIP3    H229817   4.443   1.367   1.818
 2728TIP3   OH229818   0.450   3.483   8.648
 2728TIP3    H129819   0.474   3.407   8.701
 2728TIP3    H229820   0.376   3.453   8.595
 2729TIP3   OH229821   2.314   3.629   0.862
 2729TIP3    H129822   2.340   3.663   0.947
 2729TIP3    H229823   2.308   3.706   0.806
 2730TIP3   OH229824   2.130   2.311   1.338
 2730TIP3    H129825   2.178   2.391   1.313
 2730TIP3    H229826   2.103   2.272   1.254
 2731TIP3   OH229827   2.946   3.714   1.291
 2731TIP3    H129828   2.941   3.627   1.332
 2731TIP3    H229829   2.893   3.706   1.212
 2732TIP3   OH229830   4.407   2.618   0.487
 2732TIP3    H129831   4.357   2.694   0.459
 2732TIP3    H229832   4.383   2.550   0.423
 2733TIP3   OH229833   4.995   6.038   1.036
 2733TIP3    H129834   5.074   6.092   1.041
 2733TIP3    H229835   4.973   6.020   1.127
 2734TIP3   OH229836   6.308   0.065   0.572
 2734TIP3    H129837   6.258   0.053   0.491
 2734TIP3    H229838   6.388   0.110   0.544
 2735TIP3   OH229839   6.006   3.580   1.613
 2735TIP3    H129840   5.944   3.507   1.617
 2735TIP3    H229841   6.058   3.562   1.535
 2736TIP3   OH229842   3.158   3.644   8.106
 2736TIP3    H129843   3.219   3.582   8.066
 2736TIP3    H229844   3.212   3.693   8.168
 2737TIP3   OH229845   2.077   5.392   7.455
 2737TIP3    H129846   1.982   5.382   7.449
 2737TIP3    H229847   2.113   5.317   7.408
 2738TIP3   OH229848   3.467   3.231   0.912
 2738TIP3    H129849   3.424   3.311   0.942
 2738TIP3    H229850   3.561   3.253   0.912
 2739TIP3   OH229851   2.036   2.453   7.144
 2739TIP3    H129852   1.945   2.468   7.117
 2739TIP3    H229853   2.078   2.538   7.134
 2740TIP3   OH229854   0.354   0.054   8.155
 2740TIP3    H129855   0.442   0.024   8.176
 2740TIP3    H229856   0.296  -0.010   8.197
 2741TIP3   OH229857   1.446   0.690   6.462
 2741TIP3    H129858   1.494   0.612   6.491
 2741TIP3    H229859   1.504   0.763   6.481
 2742TIP3   OH229860   1.492   3.756   8.118
 2742TIP3    H129861   1.474   3.774   8.210
 2742TIP3    H229862   1.413   3.785   8.072
 2743TIP3   OH229863   1.325   0.424   7.116
 2743TIP3    H129864   1.278   0.412   7.034
 2743TIP3    H229865   1.311   0.342   7.164
 2744TIP3   OH229866   3.143   3.070   0.516
 2744TIP3    H129867   3.070   3.112   0.560
 2744TIP3    H229868   3.221   3.103   0.560
 2745TIP3   OH229869   1.421   5.284   8.763
 2745TIP3    H129870   1.386   5.350   8.703
 2745TIP3    H229871   1.393   5.201   8.725
 2746TIP3   OH229872   6.591   3.736   0.152
 2746TIP3    H129873   6.621   3.691   0.231
 2746TIP3    H229874   6.588   3.828   0.176
 2747TIP3   OH229875   1.705   1.062   0.501
 2747TIP3    H129876   1.609   1.060   0.496
 2747TIP3    H229877   1.728   1.147   0.463
 2748TIP3   OH229878   5.504   1.668   1.716
 2748TIP3    H129879   5.551   1.651   1.634
 2748TIP3    H229880   5.474   1.758   1.709
 2749TIP3   OH229881   3.277   5.487   7.555
 2749TIP3    H129882   3.223   5.408   7.546
 2749TIP3    H229883   3.332   5.487   7.477
 2750TIP3   OH229884   3.877   6.314   7.837
 2750TIP3    H129885   3.971   6.325   7.851
 2750TIP3    H229886   3.842   6.292   7.923
 2751TIP3   OH229887   4.086   5.718   0.524
 2751TIP3    H129888   3.996   5.745   0.507
 2751TIP3    H229889   4.077   5.632   0.565
 2752TIP3   OH229890   0.307   2.056   0.664
 2752TIP3    H129891   0.225   2.084   0.706
 2752TIP3    H229892   0.307   1.961   0.673
 2753TIP3   OH229893   2.753   4.936   8.219
 2753TIP3    H129894   2.772   4.850   8.256
 2753TIP3    H229895   2.829   4.989   8.243
 2754TIP3   OH229896   5.652   0.333   8.592
 2754TIP3    H129897   5.705   0.265   8.551
 2754TIP3    H229898   5.709   0.369   8.660
 2755TIP3   OH229899   0.991   0.668   7.562
 2755TIP3    H129900   1.044   0.744   7.586
 2755TIP3    H229901   0.922   0.703   7.505
 2756TIP3   OH229902   3.927   5.741   2.146
 2756TIP3    H129903   3.882   5.674   2.197
 2756TIP3    H229904   3.956   5.696   2.067
 2757TIP3   OH229905   1.092   6.101   0.097
 2757TIP3    H129906   1.077   6.159   0.171
 2757TIP3    H229907   1.162   6.142   0.048
 2758TIP3   OH229908   1.521   1.802   7.538
 2758TIP3    H129909   1.549   1.743   7.608
 2758TIP3    H229910   1.496   1.745   7.466
 2759TIP3   OH229911   2.857   0.538   6.626
 2759TIP3    H129912   2.890   0.621   6.660
 2759TIP3    H229913   2.900   0.528   6.541
 2760TIP3   OH229914   0.973   4.484   7.978
 2760TIP3    H129915   1.016   4.402   7.955
 2760TIP3    H229916   1.037   4.552   7.957
 2761TIP3   OH229917   5.987   0.524   0.623
 2761TIP3    H129918   6.047   0.585   0.580
 2761TIP3    H229919   6.026   0.438   0.609
 2762TIP3   OH229920   2.351   0.421   7.852
 2762TIP3    H129921   2.432   0.431   7.801
 2762TIP3    H229922   2.339   0.326   7.860
 2763TIP3   OH229923   2.286   5.880   0.346
 2763TIP3    H129924   2.222   5.841   0.286
 2763TIP3    H229925   2.370   5.867   0.302
 2764TIP3   OH229926   5.861   5.852   8.307
 2764TIP3    H129927   5.949   5.823   8.283
 2764TIP3    H229928   5.808   5.836   8.229
 2765TIP3   OH229929   2.913   1.186   7.911
 2765TIP3    H129930   2.923   1.279   7.889
 2765TIP3    H229931   2.823   1.179   7.943
 2766TIP3   OH229932   2.285   3.199   6.853
 2766TIP3    H129933   2.329   3.284   6.857
 2766TIP3    H229934   2.192   3.221   6.857
 2767TIP3   OH229935   1.414   0.388   2.483
 2767TIP3    H129936   1.414   0.347   2.396
 2767TIP3    H229937   1.345   0.455   2.477
 2768TIP3   OH229938   2.217   5.508   0.452
 2768TIP3    H129939   2.307   5.540   0.453
 2768TIP3    H229940   2.197   5.497   0.359
 2769TIP3   OH229941   2.430   1.002   0.894
 2769TIP3    H129942   2.449   0.918   0.853
 2769TIP3    H229943   2.380   0.979   0.973
 2770TIP3   OH229944   3.500   5.719   7.968
 2770TIP3    H129945   3.544   5.768   8.038
 2770TIP3    H229946   3.476   5.636   8.009
 2771TIP3   OH229947   5.079   1.202   7.870
 2771TIP3    H129948   5.102   1.161   7.787
 2771TIP3    H229949   5.154   1.258   7.890
 2772TIP3   OH229950   4.495   6.034   6.737
 2772TIP3    H129951   4.586   6.060   6.753
 2772TIP3    H229952   4.445   6.114   6.751
 2773TIP3   OH229953   2.987   0.055   6.165
 2773TIP3    H129954   2.918   0.015   6.112
 2773TIP3    H229955   3.068   0.037   6.117
 2774TIP3   OH229956   6.734   6.658   6.774
 2774TIP3    H129957   6.740   6.631   6.682
 2774TIP3    H229958   6.820   6.694   6.794
 2775TIP3   OH229959   1.247   5.002   1.610
 2775TIP3    H129960   1.331   5.021   1.569
 2775TIP3    H229961   1.204   4.941   1.550
 2776TIP3   OH229962   5.494   4.153   8.405
 2776TIP3    H129963   5.520   4.181   8.317
 2776TIP3    H229964   5.553   4.081   8.427
 2777TIP3   OH229965   6.425   2.760   6.908
 2777TIP3    H129966   6.354   2.752   6.844
 2777TIP3    H229967   6.495   2.807   6.861
 2778TIP3   OH229968   4.454   2.097   8.807
 2778TIP3    H129969   4.399   2.150   8.865
 2778TIP3    H229970   4.488   2.160   8.743
 2779TIP3   OH229971   3.008   1.292   1.848
 2779TIP3    H129972   2.981   1.242   1.925
 2779TIP3    H229973   3.076   1.351   1.880
 2780TIP3   OH229974   3.230   2.749   6.944
 2780TIP3    H129975   3.192   2.759   6.857
 2780TIP3    H229976   3.205   2.829   6.991
 2781TIP3   OH229977   4.708   3.336   1.371
 2781TIP3    H129978   4.750   3.359   1.288
 2781TIP3    H229979   4.614   3.347   1.353
 2782TIP3   OH229980   5.548   1.744   7.664
 2782TIP3    H129981   5.483   1.748   7.734
 2782TIP3    H229982   5.621   1.696   7.702
 2783TIP3   OH229983   3.098   6.770   1.269
 2783TIP3    H129984   3.185   6.739   1.242
 2783TIP3    H229985   3.114   6.856   1.307
 2784TIP3   OH229986   0.472   1.815   8.002
 2784TIP3    H129987   0.480   1.845   7.911
 2784TIP3    H229988   0.554   1.842   8.043
 2785TIP3   OH229989   3.502   5.246   8.849
 2785TIP3    H129990   3.570   5.309   8.872
 2785TIP3    H229991   3.422   5.280   8.889
 2786TIP3   OH229992   5.428   6.207   0.209
 2786TIP3    H129993   5.479   6.218   0.289
 2786TIP3    H229994   5.394   6.117   0.214
 2787TIP3   OH229995   2.187   1.922   7.519
 2787TIP3    H129996   2.221   1.911   7.431
 2787TIP3    H229997   2.125   1.995   7.512
 2788TIP3   OH229998   6.434   1.761   8.454
 2788TIP3    H129999   6.372   1.806   8.398
 2788TIP3    H230000   6.494   1.717   8.393
 2789TIP3   OH230001   2.828   6.005   0.881
 2789TIP3    H130002   2.744   6.017   0.925
 2789TIP3    H230003   2.846   6.090   0.841
 2790TIP3   OH230004   4.451   5.670   8.112
 2790TIP3    H130005   4.545   5.658   8.099
 2790TIP3    H230006   4.433   5.758   8.078
 2791TIP3   OH230007   0.980   0.518   0.843
 2791TIP3    H130008   0.956   0.426   0.852
 2791TIP3    H230009   1.017   0.526   0.755
 2792TIP3   OH230010   3.078   6.303   1.163
 2792TIP3    H130011   3.082   6.310   1.259
 2792TIP3    H230012   3.118   6.384   1.132
 2793TIP3   OH230013   0.647   5.305   7.739
 2793TIP3    H130014   0.656   5.212   7.717
 2793TIP3    H230015   0.716   5.348   7.689
 2794TIP3   OH230016   4.267   3.769   0.521
 2794TIP3    H130017   4.292   3.825   0.448
 2794TIP3    H230018   4.324   3.692   0.512
 2795TIP3   OH230019   1.944   0.343   1.173
 2795TIP3    H130020   1.984   0.350   1.260
 2795TIP3    H230021   1.950   0.250   1.152
 2796TIP3   OH230022   2.896   0.290   1.034
 2796TIP3    H130023   2.855   0.210   1.066
 2796TIP3    H230024   2.977   0.298   1.084
 2797TIP3   OH230025   6.691   0.142   1.745
 2797TIP3    H130026   6.741   0.095   1.813
 2797TIP3    H230027   6.706   0.091   1.665
 2798TIP3   OH230028   4.095   3.776   0.168
 2798TIP3    H130029   4.100   3.744   0.077
 2798TIP3    H230030   4.118   3.700   0.221
 2799TIP3   OH230031   5.816   4.963   8.713
 2799TIP3    H130032   5.765   4.910   8.651
 2799TIP3    H230033   5.877   5.011   8.658
 2800TIP3   OH230034   1.774   1.412   8.758
 2800TIP3    H130035   1.697   1.394   8.811
 2800TIP3    H230036   1.748   1.484   8.701
 2801TIP3   OH230037   2.429   1.255   0.763
 2801TIP3    H130038   2.420   1.186   0.829
 2801TIP3    H230039   2.523   1.273   0.760
 2802TIP3   OH230040   2.441   3.059   0.566
 2802TIP3    H130041   2.448   3.044   0.471
 2802TIP3    H230042   2.375   3.128   0.573
 2803TIP3   OH230043   5.208   5.420   7.745
 2803TIP3    H130044   5.197   5.424   7.840
 2803TIP3    H230045   5.243   5.506   7.721
 2804TIP3   OH230046   5.605   6.669   1.189
 2804TIP3    H130047   5.616   6.764   1.188
 2804TIP3    H230048   5.624   6.643   1.279
 2805TIP3   OH230049   3.858   2.192   1.678
 2805TIP3    H130050   3.849   2.255   1.749
 2805TIP3    H230051   3.773   2.149   1.673
 2806TIP3   OH230052   6.702   2.361   7.811
 2806TIP3    H130053   6.693   2.269   7.834
 2806TIP3    H230054   6.671   2.408   7.889
 2807TIP3   OH230055   1.056   3.964   0.005
 2807TIP3    H130056   1.024   3.983   0.094
 2807TIP3    H230057   1.127   4.027  -0.009
 2808TIP3   OH230058   2.218   3.251   0.029
 2808TIP3    H130059   2.132   3.251  -0.012
 2808TIP3    H230060   2.201   3.271   0.121
 2809TIP3   OH230061   6.605   5.272   1.380
 2809TIP3    H130062   6.513   5.298   1.378
 2809TIP3    H230063   6.638   5.307   1.462
 2810TIP3   OH230064   6.528   2.709   1.864
 2810TIP3    H130065   6.533   2.686   1.957
 2810TIP3    H230066   6.586   2.785   1.856
 2811TIP3   OH230067   4.970   0.045   8.919
 2811TIP3    H130068   4.901   0.035   8.985
 2811TIP3    H230069   4.934   0.004   8.840
 2812TIP3   OH230070   2.145   4.871   8.406
 2812TIP3    H130071   2.160   4.811   8.334
 2812TIP3    H230072   2.205   4.944   8.389
 2813TIP3   OH230073   5.506   5.305   6.376
 2813TIP3    H130074   5.596   5.276   6.363
 2813TIP3    H230075   5.470   5.245   6.441
 2814TIP3   OH230076   3.571   0.847   7.992
 2814TIP3    H130077   3.575   0.763   8.038
 2814TIP3    H230078   3.489   0.887   8.021
 2815TIP3   OH230079   5.088   2.050   8.119
 2815TIP3    H130080   5.171   2.019   8.081
 2815TIP3    H230081   5.106   2.054   8.213
 2816TIP3   OH230082   2.911   1.430   8.300
 2816TIP3    H130083   2.995   1.437   8.256
 2816TIP3    H230084   2.908   1.341   8.333
 2817TIP3   OH230085   0.330   3.607   0.446
 2817TIP3    H130086   0.377   3.552   0.509
 2817TIP3    H230087   0.293   3.544   0.384
 2818TIP3   OH230088   1.481   0.620   7.215
 2818TIP3    H130089   1.421   0.545   7.206
 2818TIP3    H230090   1.451   0.666   7.293
 2819TIP3   OH230091   3.919   2.691   0.186
 2819TIP3    H130092   3.877   2.769   0.221
 2819TIP3    H230093   3.991   2.672   0.246
 2820TIP3   OH230094   1.294   5.961   1.383
 2820TIP3    H130095   1.270   6.052   1.400
 2820TIP3    H230096   1.225   5.910   1.426
 2821TIP3   OH230097   5.366   2.288   0.044
 2821TIP3    H130098   5.355   2.193   0.037
 2821TIP3    H230099   5.439   2.308  -0.015
 2822TIP3   OH230100   5.782   4.526   1.227
 2822TIP3    H130101   5.877   4.516   1.236
 2822TIP3    H230102   5.745   4.470   1.296
 2823TIP3   OH230103   6.196   0.978   0.788
 2823TIP3    H130104   6.179   0.907   0.850
 2823TIP3    H230105   6.109   1.016   0.771
 2824TIP3   OH230106   3.705   0.424   2.437
 2824TIP3    H130107   3.643   0.421   2.364
 2824TIP3    H230108   3.700   0.514   2.469
 2825TIP3   OH230109   5.392   2.148   8.492
 2825TIP3    H130110   5.485   2.152   8.514
 2825TIP3    H230111   5.348   2.157   8.577
 2826TIP3   OH230112   3.879   1.235   8.004
 2826TIP3    H130113   3.817   1.262   8.072
 2826TIP3    H230114   3.911   1.150   8.032
 2827TIP3   OH230115   3.288   5.598   8.649
 2827TIP3    H130116   3.196   5.593   8.675
 2827TIP3    H230117   3.319   5.507   8.655
 2828TIP3   OH230118   6.478   4.221   7.928
 2828TIP3    H130119   6.448   4.181   8.010
 2828TIP3    H230120   6.449   4.312   7.933
 2829TIP3   OH230121   1.646   3.680   1.187
 2829TIP3    H130122   1.570   3.736   1.205
 2829TIP3    H230123   1.608   3.596   1.160
 2830TIP3   OH230124   2.646   2.171   8.210
 2830TIP3    H130125   2.641   2.086   8.255
 2830TIP3    H230126   2.733   2.171   8.169
 2831TIP3   OH230127   0.490   0.434   7.203
 2831TIP3    H130128   0.549   0.360   7.206
 2831TIP3    H230129   0.544   0.510   7.223
 2832TIP3   OH230130   4.086   1.527   8.786
 2832TIP3    H130131   4.029   1.538   8.710
 2832TIP3    H230132   4.168   1.495   8.749
 2833TIP3   OH230133   6.078   6.726   8.856
 2833TIP3    H130134   6.024   6.649   8.837
 2833TIP3    H230135   6.168   6.695   8.846
 2834TIP3   OH230136   2.423   5.191   7.662
 2834TIP3    H130137   2.356   5.257   7.676
 2834TIP3    H230138   2.505   5.240   7.656
 2835TIP3   OH230139   2.773   6.641   7.102
 2835TIP3    H130140   2.756   6.693   7.181
 2835TIP3    H230141   2.868   6.632   7.098
 2836TIP3   OH230142   0.328   2.426   8.648
 2836TIP3    H130143   0.402   2.400   8.703
 2836TIP3    H230144   0.285   2.343   8.626
 2837TIP3   OH230145   6.424   3.699   8.413
 2837TIP3    H130146   6.414   3.638   8.486
 2837TIP3    H230147   6.463   3.646   8.343
 2838TIP3   OH230148   4.176   1.369   0.556
 2838TIP3    H130149   4.098   1.399   0.508
 2838TIP3    H230150   4.172   1.415   0.639
 2839TIP3   OH230151   5.929   4.107   1.910
 2839TIP3    H130152   5.896   4.108   1.820
 2839TIP3    H230153   6.024   4.096   1.901
 2840TIP3   OH230154   1.737   3.374   8.971
 2840TIP3    H130155   1.690   3.451   9.003
 2840TIP3    H230156   1.822   3.408   8.943
 2841TIP3   OH230157   0.155   5.228   7.733
 2841TIP3    H130158   0.235   5.258   7.775
 2841TIP3    H230159   0.103   5.191   7.805
 2842TIP3   OH230160   2.419   5.419   6.108
 2842TIP3    H130161   2.399   5.442   6.017
 2842TIP3    H230162   2.346   5.454   6.159
 2843TIP3   OH230163   1.517   5.404   2.791
 2843TIP3    H130164   1.440   5.438   2.835
 2843TIP3    H230165   1.581   5.475   2.794
 2844TIP3   OH230166   2.644   3.908   6.376
 2844TIP3    H130167   2.653   3.825   6.422
 2844TIP3    H230168   2.585   3.960   6.430
 2845TIP3   OH230169   1.266   1.770   7.184
 2845TIP3    H130170   1.217   1.766   7.266
 2845TIP3    H230171   1.333   1.838   7.199
 2846TIP3   OH230172   6.321   3.431   1.541
 2846TIP3    H130173   6.377   3.372   1.491
 2846TIP3    H230174   6.324   3.514   1.493
 2847TIP3   OH230175   3.392   5.008   7.872
 2847TIP3    H130176   3.415   4.918   7.847
 2847TIP3    H230177   3.386   5.005   7.967
 2848TIP3   OH230178   4.302   3.881   7.876
 2848TIP3    H130179   4.233   3.876   7.810
 2848TIP3    H230180   4.366   3.815   7.849
 2849TIP3   OH230181   6.297   5.728   0.315
 2849TIP3    H130182   6.297   5.823   0.305
 2849TIP3    H230183   6.206   5.706   0.335
 2850TIP3   OH230184   4.969   0.939   1.276
 2850TIP3    H130185   5.011   0.984   1.349
 2850TIP3    H230186   4.877   0.965   1.282
 2851TIP3   OH230187   3.730   3.341   0.272
 2851TIP3    H130188   3.731   3.323   0.179
 2851TIP3    H230189   3.720   3.255   0.314
 2852TIP3   OH230190   3.793   3.387   7.495
 2852TIP3    H130191   3.819   3.306   7.540
 2852TIP3    H230192   3.811   3.370   7.402
 2853TIP3   OH230193   4.649   5.887   8.380
 2853TIP3    H130194   4.582   5.907   8.314
 2853TIP3    H230195   4.712   5.959   8.373
 2854TIP3   OH230196   6.756   0.326   1.928
 2854TIP3    H130197   6.776   0.411   1.887
 2854TIP3    H230198   6.736   0.269   1.854
 2855TIP3   OH230199   0.165   1.904   7.763
 2855TIP3    H130200   0.105   1.925   7.692
 2855TIP3    H230201   0.167   1.808   7.765
 2856TIP3   OH230202   5.156   3.562   1.973
 2856TIP3    H130203   5.148   3.620   1.897
 2856TIP3    H230204   5.247   3.571   2.001
 2857TIP3   OH230205   3.672   4.063   8.592
 2857TIP3    H130206   3.662   4.030   8.682
 2857TIP3    H230207   3.583   4.081   8.563
 2858TIP3   OH230208   2.374   4.124   6.980
 2858TIP3    H130209   2.307   4.063   7.009
 2858TIP3    H230210   2.391   4.180   7.056
 2859TIP3   OH230211   1.707   4.900   7.525
 2859TIP3    H130212   1.766   4.850   7.470
 2859TIP3    H230213   1.737   4.886   7.615
 2860TIP3   OH230214   5.176   6.020   0.084
 2860TIP3    H130215   5.129   5.970   0.150
 2860TIP3    H230216   5.145   6.110   0.095
 2861TIP3   OH230217   1.603   5.531   0.525
 2861TIP3    H130218   1.620   5.609   0.578
 2861TIP3    H230219   1.668   5.467   0.555
 2862TIP3   OH230220   1.621   3.738   7.106
 2862TIP3    H130221   1.593   3.727   7.015
 2862TIP3    H230222   1.546   3.780   7.149
 2863TIP3   OH230223   4.206   5.002   0.085
 2863TIP3    H130224   4.122   4.967   0.114
 2863TIP3    H230225   4.271   4.946   0.128
 2864TIP3   OH230226   5.761   2.683   8.479
 2864TIP3    H130227   5.784   2.699   8.387
 2864TIP3    H230228   5.675   2.642   8.475
 2865TIP3   OH230229   6.737   0.607   6.679
 2865TIP3    H130230   6.768   0.693   6.709
 2865TIP3    H230231   6.812   0.570   6.633
 2866TIP3   OH230232   5.013   1.655   8.869
 2866TIP3    H130233   4.933   1.648   8.921
 2866TIP3    H230234   5.007   1.582   8.806
 2867TIP3   OH230235   3.819   1.309   7.604
 2867TIP3    H130236   3.791   1.233   7.654
 2867TIP3    H230237   3.914   1.313   7.617
 2868TIP3   OH230238   3.085   0.850   7.268
 2868TIP3    H130239   3.136   0.833   7.347
 2868TIP3    H230240   3.144   0.898   7.210
 2869TIP3   OH230241   6.715   4.345   7.897
 2869TIP3    H130242   6.683   4.423   7.942
 2869TIP3    H230243   6.643   4.281   7.906
 2870TIP3   OH230244   0.573   4.413   8.626
 2870TIP3    H130245   0.536   4.355   8.560
 2870TIP3    H230246   0.638   4.359   8.672
 2871TIP3   OH230247   4.770   0.728   0.077
 2871TIP3    H130248   4.725   0.743  -0.006
 2871TIP3    H230249   4.740   0.800   0.133
 2872TIP3   OH230250   5.436   2.926   7.368
 2872TIP3    H130251   5.404   3.010   7.403
 2872TIP3    H230252   5.364   2.865   7.383
 2873TIP3   OH230253   5.150   3.895   2.130
 2873TIP3    H130254   5.177   3.962   2.193
 2873TIP3    H230255   5.170   3.812   2.172
 2874TIP3   OH230256   1.009   5.542   2.153
 2874TIP3    H130257   1.017   5.470   2.216
 2874TIP3    H230258   0.950   5.604   2.195
 2875TIP3   OH230259   1.510   5.134   7.650
 2875TIP3    H130260   1.568   5.057   7.644
 2875TIP3    H230261   1.490   5.156   7.559
 2876TIP3   OH230262   3.895   3.858   8.859
 2876TIP3    H130263   3.804   3.872   8.835
 2876TIP3    H230264   3.900   3.885   8.951
 2877TIP3   OH230265   3.273   0.960   1.608
 2877TIP3    H130266   3.255   0.894   1.675
 2877TIP3    H230267   3.201   1.022   1.615
 2878TIP3   OH230268   5.733   5.924   8.610
 2878TIP3    H130269   5.794   5.873   8.556
 2878TIP3    H230270   5.786   5.995   8.646
 2879TIP3   OH230271   4.212   5.722   8.696
 2879TIP3    H130272   4.139   5.724   8.635
 2879TIP3    H230273   4.288   5.700   8.642
 2880TIP3   OH230274   3.785   4.934   0.932
 2880TIP3    H130275   3.815   4.921   1.022
 2880TIP3    H230276   3.793   4.848   0.891
 2881TIP3   OH230277   4.091   0.488   2.067
 2881TIP3    H130278   4.001   0.475   2.095
 2881TIP3    H230279   4.087   0.561   2.005
 2882TIP3   OH230280   4.693   6.637   7.460
 2882TIP3    H130281   4.782   6.671   7.448
 2882TIP3    H230282   4.641   6.686   7.397
 2883TIP3   OH230283   5.861   4.120   0.952
 2883TIP3    H130284   5.932   4.056   0.947
 2883TIP3    H230285   5.869   4.157   1.040
 2884TIP3   OH230286   5.673   1.672   8.155
 2884TIP3    H130287   5.696   1.587   8.193
 2884TIP3    H230288   5.704   1.736   8.220
 2885TIP3   OH230289   2.609   1.679   1.285
 2885TIP3    H130290   2.646   1.739   1.220
 2885TIP3    H230291   2.539   1.633   1.239
 2886TIP3   OH230292   0.255   2.773   1.338
 2886TIP3    H130293   0.166   2.753   1.367
 2886TIP3    H230294   0.310   2.751   1.413
 2887TIP3   OH230295   2.338   0.649   0.439
 2887TIP3    H130296   2.373   0.575   0.488
 2887TIP3    H230297   2.330   0.617   0.349
 2888TIP3   OH230298   2.300   5.535   5.886
 2888TIP3    H130299   2.323   5.604   5.823
 2888TIP3    H230300   2.227   5.571   5.936
 2889TIP3   OH230301   6.768   2.574   7.330
 2889TIP3    H130302   6.755   2.542   7.419
 2889TIP3    H230303   6.709   2.520   7.277
 2890TIP3   OH230304   6.590   5.687   7.488
 2890TIP3    H130305   6.640   5.634   7.426
 2890TIP3    H230306   6.645   5.764   7.502
 2891TIP3   OH230307   1.697   6.425   1.999
 2891TIP3    H130308   1.782   6.383   1.979
 2891TIP3    H230309   1.655   6.365   2.060
 2892TIP3   OH230310   2.946   2.493   0.586
 2892TIP3    H130311   2.893   2.571   0.572
 2892TIP3    H230312   2.884   2.427   0.617
 2893TIP3   OH230313   2.595   5.198   6.588
 2893TIP3    H130314   2.507   5.167   6.606
 2893TIP3    H230315   2.637   5.126   6.541
 2894TIP3   OH230316   2.615   5.587   8.719
 2894TIP3    H130317   2.649   5.520   8.659
 2894TIP3    H230318   2.653   5.565   8.804
 2895TIP3   OH230319   0.265   3.584   8.381
 2895TIP3    H130320   0.188   3.591   8.324
 2895TIP3    H230321   0.331   3.639   8.338
 2896TIP3   OH230322   4.877   0.700   6.215
 2896TIP3    H130323   4.891   0.656   6.298
 2896TIP3    H230324   4.802   0.655   6.176
 2897TIP3   OH230325   3.250   6.606   6.809
 2897TIP3    H130326   3.337   6.641   6.788
 2897TIP3    H230327   3.268   6.528   6.861
 2898TIP3   OH230328   3.875   0.145   0.484
 2898TIP3    H130329   3.834   0.154   0.571
 2898TIP3    H230330   3.931   0.222   0.477
 2899TIP3   OH230331   5.367   6.556   1.232
 2899TIP3    H130332   5.455   6.586   1.213
 2899TIP3    H230333   5.378   6.493   1.304
 2900TIP3   OH230334   6.790   5.154   8.403
 2900TIP3    H130335   6.793   5.129   8.496
 2900TIP3    H230336   6.810   5.247   8.402
 2901TIP3   OH230337   6.008   2.202   7.227
 2901TIP3    H130338   6.051   2.184   7.144
 2901TIP3    H230339   5.966   2.120   7.251
 2902TIP3   OH230340   2.189   0.594   0.196
 2902TIP3    H130341   2.125   0.660   0.224
 2902TIP3    H230342   2.152   0.511   0.223
 2903TIP3   OH230343   1.327   6.226   1.426
 2903TIP3    H130344   1.402   6.279   1.397
 2903TIP3    H230345   1.308   6.259   1.513
 2904TIP3   OH230346   4.806   0.599   8.547
 2904TIP3    H130347   4.821   0.672   8.487
 2904TIP3    H230348   4.715   0.573   8.531
 2905TIP3   OH230349   6.463   2.977   7.724
 2905TIP3    H130350   6.456   2.990   7.818
 2905TIP3    H230351   6.404   3.042   7.686
 2906TIP3   OH230352   5.195   1.871   0.796
 2906TIP3    H130353   5.269   1.858   0.737
 2906TIP3    H230354   5.183   1.966   0.800
 2907TIP3   OH230355   0.856   4.115   8.089
 2907TIP3    H130356   0.773   4.086   8.126
 2907TIP3    H230357   0.832   4.154   8.005
 2908TIP3   OH230358   5.011   6.573   8.587
 2908TIP3    H130359   4.996   6.514   8.513
 2908TIP3    H230360   4.928   6.573   8.634
 2909TIP3   OH230361   0.195   5.631   1.180
 2909TIP3    H130362   0.218   5.697   1.245
 2909TIP3    H230363   0.253   5.557   1.201
 2910TIP3   OH230364   5.369   2.956   1.783
 2910TIP3    H130365   5.418   2.940   1.864
 2910TIP3    H230366   5.288   2.906   1.794
 2911TIP3   OH230367   3.056   6.696   0.516
 2911TIP3    H130368   2.996   6.743   0.573
 2911TIP3    H230369   3.106   6.764   0.471
 2912TIP3   OH230370   4.404   1.705   8.151
 2912TIP3    H130371   4.328   1.740   8.105
 2912TIP3    H230372   4.415   1.763   8.227
 2913TIP3   OH230373   4.910   3.982   0.148
 2913TIP3    H130374   4.919   4.075   0.169
 2913TIP3    H230375   4.925   3.937   0.231
 2914TIP3   OH230376   2.215   1.726   6.873
 2914TIP3    H130377   2.192   1.812   6.838
 2914TIP3    H230378   2.155   1.665   6.828
 2915TIP3   OH230379   2.753   4.879   8.686
 2915TIP3    H130380   2.712   4.806   8.733
 2915TIP3    H230381   2.833   4.842   8.650
 2916TIP3   OH230382   5.680   6.138   8.108
 2916TIP3    H130383   5.658   6.071   8.044
 2916TIP3    H230384   5.759   6.180   8.073
 2917TIP3   OH230385   5.710   3.916   2.222
 2917TIP3    H130386   5.681   4.002   2.193
 2917TIP3    H230387   5.632   3.861   2.215
 2918TIP3   OH230388   2.580   5.188   0.004
 2918TIP3    H130389   2.538   5.271  -0.016
 2918TIP3    H230390   2.512   5.138   0.049
 2919TIP3   OH230391   0.665   6.330   8.982
 2919TIP3    H130392   0.741   6.387   8.978
 2919TIP3    H230393   0.699   6.243   8.963
 2920TIP3   OH230394   6.610   6.169   7.520
 2920TIP3    H130395   6.660   6.238   7.477
 2920TIP3    H230396   6.560   6.214   7.588
 2921TIP3   OH230397   1.650   4.980   8.386
 2921TIP3    H130398   1.589   4.910   8.410
 2921TIP3    H230399   1.597   5.060   8.390
 2922TIP3   OH230400   4.433   2.635   0.782
 2922TIP3    H130401   4.425   2.725   0.749
 2922TIP3    H230402   4.382   2.582   0.721
 2923TIP3   OH230403   3.203   6.412   8.792
 2923TIP3    H130404   3.227   6.349   8.724
 2923TIP3    H230405   3.138   6.468   8.751
 2924TIP3   OH230406   0.828   3.697   7.924
 2924TIP3    H130407   0.916   3.731   7.909
 2924TIP3    H230408   0.778   3.725   7.847
 2925TIP3   OH230409   0.207   4.204   7.134
 2925TIP3    H130410   0.169   4.117   7.141
 2925TIP3    H230411   0.285   4.202   7.189
 2926TIP3   OH230412   1.974   2.487   8.895
 2926TIP3    H130413   1.948   2.416   8.836
 2926TIP3    H230414   1.900   2.498   8.954
 2927TIP3   OH230415   0.049   5.125   8.696
 2927TIP3    H130416  -0.026   5.148   8.751
 2927TIP3    H230417   0.119   5.182   8.727
 2928TIP3   OH230418   3.659   6.584   8.077
 2928TIP3    H130419   3.716   6.508   8.075
 2928TIP3    H230420   3.718   6.659   8.085
 2929TIP3   OH230421   2.836   4.977   6.695
 2929TIP3    H130422   2.857   4.888   6.725
 2929TIP3    H230423   2.808   4.965   6.604
 2930TIP3   OH230424   2.515   1.362   0.230
 2930TIP3    H130425   2.424   1.342   0.208
 2930TIP3    H230426   2.563   1.347   0.148
 2931TIP3   OH230427   0.829   6.751   1.555
 2931TIP3    H130428   0.759   6.686   1.561
 2931TIP3    H230429   0.860   6.744   1.464
 2932TIP3   OH230430   4.215   5.665   6.732
 2932TIP3    H130431   4.258   5.636   6.812
 2932TIP3    H230432   4.225   5.591   6.671
 2933TIP3   OH230433   3.169   1.226   0.688
 2933TIP3    H130434   3.143   1.136   0.672
 2933TIP3    H230435   3.248   1.219   0.742
 2934TIP3   OH230436   0.164   3.479   7.324
 2934TIP3    H130437   0.207   3.394   7.321
 2934TIP3    H230438   0.213   3.529   7.389
 2935TIP3   OH230439   1.350   1.057   0.535
 2935TIP3    H130440   1.296   1.135   0.548
 2935TIP3    H230441   1.320   1.020   0.452
 2936TIP3   OH230442   6.001   5.184   6.935
 2936TIP3    H130443   6.043   5.102   6.908
 2936TIP3    H230444   6.070   5.249   6.927
 2937TIP3   OH230445   1.573   2.768   2.431
 2937TIP3    H130446   1.629   2.842   2.408
 2937TIP3    H230447   1.630   2.706   2.476
 2938TIP3   OH230448   6.277   4.920   7.363
 2938TIP3    H130449   6.331   4.997   7.382
 2938TIP3    H230450   6.321   4.877   7.289
 2939TIP3   OH230451   2.151   3.028   0.424
 2939TIP3    H130452   2.141   2.968   0.498
 2939TIP3    H230453   2.210   3.097   0.456
 2940TIP3   OH230454   4.606   5.515   8.492
 2940TIP3    H130455   4.528   5.465   8.516
 2940TIP3    H230456   4.629   5.484   8.404
 2941TIP3   OH230457   3.673   4.713   0.060
 2941TIP3    H130458   3.611   4.658   0.012
 2941TIP3    H230459   3.714   4.767  -0.007
 2942TIP3   OH230460   0.105   4.390   7.371
 2942TIP3    H130461   0.052   4.424   7.443
 2942TIP3    H230462   0.185   4.358   7.413
 2943TIP3   OH230463   3.366   0.905   1.367
 2943TIP3    H130464   3.302   0.928   1.434
 2943TIP3    H230465   3.387   0.987   1.324
 2944TIP3   OH230466   3.665   2.551   7.577
 2944TIP3    H130467   3.753   2.544   7.613
 2944TIP3    H230468   3.667   2.498   7.498
 2945TIP3   OH230469   5.358   3.668   7.515
 2945TIP3    H130470   5.433   3.720   7.544
 2945TIP3    H230471   5.395   3.583   7.492
 2946TIP3   OH230472   0.962   5.452   7.971
 2946TIP3    H130473   0.960   5.395   7.895
 2946TIP3    H230474   1.055   5.471   7.985
 2947TIP3   OH230475   0.825   0.907   0.150
 2947TIP3    H130476   0.814   0.995   0.115
 2947TIP3    H230477   0.919   0.891   0.146
 2948TIP3   OH230478   3.124   4.653   0.813
 2948TIP3    H130479   3.176   4.651   0.732
 2948TIP3    H230480   3.159   4.582   0.866
 2949TIP3   OH230481   5.699   2.580   1.835
 2949TIP3    H130482   5.617   2.540   1.865
 2949TIP3    H230483   5.766   2.542   1.892
 2950TIP3   OH230484   4.722   6.500   0.026
 2950TIP3    H130485   4.667   6.569   0.063
 2950TIP3    H230486   4.797   6.547  -0.011
 2951TIP3   OH230487   3.598   3.825   7.536
 2951TIP3    H130488   3.687   3.798   7.558
 2951TIP3    H230489   3.549   3.743   7.532
 2952TIP3   OH230490   6.695   1.091   1.582
 2952TIP3    H130491   6.719   1.021   1.522
 2952TIP3    H230492   6.617   1.059   1.627
 2953TIP3   OH230493   1.362   3.474   1.380
 2953TIP3    H130494   1.386   3.566   1.388
 2953TIP3    H230495   1.306   3.471   1.302
 2954TIP3   OH230496   1.291   2.581   8.323
 2954TIP3    H130497   1.368   2.535   8.358
 2954TIP3    H230498   1.263   2.639   8.393
 2955TIP3   OH230499   5.730   6.717   2.123
 2955TIP3    H130500   5.794   6.662   2.169
 2955TIP3    H230501   5.673   6.751   2.193
 2956TIP3   OH230502   5.332   5.361   1.319
 2956TIP3    H130503   5.318   5.344   1.412
 2956TIP3    H230504   5.409   5.309   1.297
 2957TIP3   OH230505   1.802   1.351   7.462
 2957TIP3    H130506   1.757   1.382   7.541
 2957TIP3    H230507   1.875   1.411   7.451
 2958TIP3   OH230508   1.283   4.124   0.663
 2958TIP3    H130509   1.201   4.079   0.643
 2958TIP3    H230510   1.289   4.121   0.758
 2959TIP3   OH230511   5.843   1.859   7.760
 2959TIP3    H130512   5.804   1.944   7.779
 2959TIP3    H230513   5.786   1.795   7.802
 2960TIP3   OH230514   1.739   0.848   1.794
 2960TIP3    H130515   1.806   0.915   1.805
 2960TIP3    H230516   1.752   0.789   1.869
 2961TIP3   OH230517   6.178   2.557   7.473
 2961TIP3    H130518   6.266   2.591   7.462
 2961TIP3    H230519   6.190   2.466   7.498
 2962TIP3   OH230520   2.175   6.036   8.118
 2962TIP3    H130521   2.176   5.949   8.157
 2962TIP3    H230522   2.252   6.037   8.061
 2963TIP3   OH230523   0.691   2.278   1.309
 2963TIP3    H130524   0.603   2.279   1.271
 2963TIP3    H230525   0.746   2.239   1.241
 2964TIP3   OH230526   5.958   4.108   7.690
 2964TIP3    H130527   5.870   4.112   7.729
 2964TIP3    H230528   6.013   4.071   7.759
 2965TIP3   OH230529   2.535   4.527   8.178
 2965TIP3    H130530   2.557   4.437   8.204
 2965TIP3    H230531   2.600   4.581   8.223
 2966TIP3   OH230532   1.177   5.689   1.977
 2966TIP3    H130533   1.130   5.648   2.050
 2966TIP3    H230534   1.135   5.775   1.967
 2967TIP3   OH230535   0.409   0.597   8.598
 2967TIP3    H130536   0.337   0.619   8.658
 2967TIP3    H230537   0.443   0.682   8.570
 2968TIP3   OH230538   4.572   6.772   1.301
 2968TIP3    H130539   4.654   6.811   1.331
 2968TIP3    H230540   4.594   6.681   1.282
 2969TIP3   OH230541   3.579   4.489   8.874
 2969TIP3    H130542   3.576   4.474   8.780
 2969TIP3    H230543   3.509   4.435   8.910
 2970TIP3   OH230544   0.233   0.256   8.307
 2970TIP3    H130545   0.304   0.265   8.370
 2970TIP3    H230546   0.273   0.216   8.230
 2971TIP3   OH230547   1.294   0.193   8.880
 2971TIP3    H130548   1.363   0.127   8.883
 2971TIP3    H230549   1.333   0.271   8.921
 2972TIP3   OH230550   1.277   3.263   2.353
 2972TIP3    H130551   1.315   3.194   2.406
 2972TIP3    H230552   1.333   3.267   2.275
 2973TIP3   OH230553   6.140   1.302   1.589
 2973TIP3    H130554   6.212   1.362   1.571
 2973TIP3    H230555   6.106   1.279   1.503
 2974TIP3   OH230556   1.187   5.693   7.326
 2974TIP3    H130557   1.106   5.743   7.314
 2974TIP3    H230558   1.205   5.656   7.240
 2975TIP3   OH230559   1.619   5.423   8.512
 2975TIP3    H130560   1.555   5.353   8.523
 2975TIP3    H230561   1.691   5.383   8.464
 2976TIP3   OH230562   0.144   1.338   1.730
 2976TIP3    H130563   0.066   1.378   1.692
 2976TIP3    H230564   0.153   1.379   1.816
 2977TIP3   OH230565   3.872   1.946   8.547
 2977TIP3    H130566   3.870   1.890   8.470
 2977TIP3    H230567   3.795   1.922   8.597
 2978TIP3   OH230568   2.789   4.390   8.890
 2978TIP3    H130569   2.854   4.391   8.820
 2978TIP3    H230570   2.705   4.385   8.845
 2979TIP3   OH230571   2.923   4.377   8.644
 2979TIP3    H130572   2.973   4.436   8.587
 2979TIP3    H230573   2.969   4.293   8.636
 2980TIP3   OH230574   3.093   3.751   7.707
 2980TIP3    H130575   3.147   3.750   7.628
 2980TIP3    H230576   3.141   3.806   7.769
 2981TIP3   OH230577   0.315   0.241   0.109
 2981TIP3    H130578   0.396   0.197   0.134
 2981TIP3    H230579   0.326   0.331   0.141
 2982TIP3   OH230580   4.678   4.533   1.419
 2982TIP3    H130581   4.639   4.523   1.506
 2982TIP3    H230582   4.711   4.446   1.398
 2983TIP3   OH230583   3.455   6.682   7.342
 2983TIP3    H130584   3.540   6.639   7.332
 2983TIP3    H230585   3.431   6.666   7.433
 2984TIP3   OH230586   2.830   1.713   0.685
 2984TIP3    H130587   2.745   1.671   0.670
 2984TIP3    H230588   2.893   1.642   0.678
 2985TIP3   OH230589   3.373   4.876   0.644
 2985TIP3    H130590   3.408   4.850   0.558
 2985TIP3    H230591   3.444   4.856   0.705
 2986TIP3   OH230592   5.738   1.737   8.763
 2986TIP3    H130593   5.644   1.745   8.749
 2986TIP3    H230594   5.760   1.649   8.735
 2987TIP3   OH230595   1.411   0.406   1.623
 2987TIP3    H130596   1.484   0.465   1.601
 2987TIP3    H230597   1.435   0.370   1.709
 2988TIP3   OH230598   3.108   2.120   0.568
 2988TIP3    H130599   3.115   2.111   0.663
 2988TIP3    H230600   3.138   2.209   0.550
 2989TIP3   OH230601   5.729   0.715   8.973
 2989TIP3    H130602   5.816   0.752   8.958
 2989TIP3    H230603   5.736   0.669   9.057
 2990TIP3   OH230604   2.255   0.006   0.990
 2990TIP3    H130605   2.166   0.033   1.012
 2990TIP3    H230606   2.310   0.076   1.026
 2991TIP3   OH230607   0.129   5.419   0.601
 2991TIP3    H130608   0.172   5.504   0.610
 2991TIP3    H230609   0.198   5.361   0.567
 2992TIP3   OH230610   5.261   1.809   0.215
 2992TIP3    H130611   5.229   1.800   0.305
 2992TIP3    H230612   5.193   1.768   0.161
 2993TIP3   OH230613   3.825   2.368   1.893
 2993TIP3    H130614   3.847   2.460   1.901
 2993TIP3    H230615   3.732   2.367   1.873
 2994TIP3   OH230616   4.365   0.712   7.346
 2994TIP3    H130617   4.293   0.760   7.305
 2994TIP3    H230618   4.322   0.654   7.410
 2995TIP3   OH230619   0.197   5.805   8.028
 2995TIP3    H130620   0.103   5.817   8.016
 2995TIP3    H230621   0.231   5.798   7.939
 2996TIP3   OH230622   0.545   4.117   0.009
 2996TIP3    H130623   0.615   4.055   0.030
 2996TIP3    H230624   0.591   4.199  -0.009
 2997TIP3   OH230625   2.952   3.110   2.059
 2997TIP3    H130626   3.028   3.064   2.096
 2997TIP3    H230627   2.915   3.047   1.997
 2998TIP3   OH230628   2.741   0.518   0.726
 2998TIP3    H130629   2.663   0.548   0.771
 2998TIP3    H230630   2.805   0.505   0.796
 2999TIP3   OH230631   5.808   3.494   8.019
 2999TIP3    H130632   5.886   3.440   8.032
 2999TIP3    H230633   5.739   3.430   7.998
 3000TIP3   OH230634   4.576   5.214   8.569
 3000TIP3    H130635   4.498   5.215   8.514
 3000TIP3    H230636   4.551   5.161   8.645
 3001TIP3   OH230637   6.659   1.048   8.003
 3001TIP3    H130638   6.754   1.035   8.005
 3001TIP3    H230639   6.647   1.140   7.982
 3002TIP3   OH230640   5.942   3.358   8.917
 3002TIP3    H130641   5.893   3.440   8.912
 3002TIP3    H230642   5.880   3.292   8.887
 3003TIP3   OH230643   4.704   5.737   0.964
 3003TIP3    H130644   4.660   5.691   1.035
 3003TIP3    H230645   4.700   5.677   0.890
 3004TIP3   OH230646   3.794   0.530   8.084
 3004TIP3    H130647   3.813   0.494   7.998
 3004TIP3    H230648   3.700   0.517   8.096
 3005TIP3   OH230649   6.072   6.050   8.407
 3005TIP3    H130650   6.002   6.007   8.358
 3005TIP3    H230651   6.089   5.991   8.481
 3006TIP3   OH230652   5.599   3.315   8.037
 3006TIP3    H130653   5.594   3.282   7.947
 3006TIP3    H230654   5.623   3.239   8.089
 3007TIP3   OH230655   0.106   0.614   2.573
 3007TIP3    H130656   0.037   0.554   2.601
 3007TIP3    H230657   0.185   0.582   2.617
 3008TIP3   OH230658   5.722   2.590   8.732
 3008TIP3    H130659   5.684   2.648   8.666
 3008TIP3    H230660   5.801   2.636   8.762
 3009TIP3   OH230661   1.325   2.072   0.246
 3009TIP3    H130662   1.291   1.982   0.253
 3009TIP3    H230663   1.417   2.064   0.273
 3010TIP3   OH230664   0.417   2.913   6.551
 3010TIP3    H130665   0.479   2.968   6.598
 3010TIP3    H230666   0.434   2.824   6.583
 3011TIP3   OH230667   5.973   0.373   0.067
 3011TIP3    H130668   5.979   0.281   0.093
 3011TIP3    H230669   6.063   0.399   0.048
 3012TIP3   OH230670   0.162   4.243   7.901
 3012TIP3    H130671   0.143   4.159   7.858
 3012TIP3    H230672   0.075   4.282   7.915
 3013TIP3   OH230673   3.271   4.841   2.249
 3013TIP3    H130674   3.212   4.828   2.323
 3013TIP3    H230675   3.310   4.755   2.233
 3014TIP3   OH230676   0.544   0.981   0.396
 3014TIP3    H130677   0.573   0.941   0.478
 3014TIP3    H230678   0.477   1.044   0.422
 3015TIP3   OH230679   3.188   3.128   1.531
 3015TIP3    H130680   3.231   3.071   1.466
 3015TIP3    H230681   3.258   3.184   1.564
 3016TIP3   OH230682   4.441   0.076   8.495
 3016TIP3    H130683   4.500   0.014   8.453
 3016TIP3    H230684   4.356   0.059   8.455
 3017TIP3   OH230685   4.628   6.308   6.642
 3017TIP3    H130686   4.568   6.276   6.575
 3017TIP3    H230687   4.671   6.383   6.601
 3018TIP3   OH230688   2.800   2.981   7.595
 3018TIP3    H130689   2.836   3.066   7.568
 3018TIP3    H230690   2.841   2.963   7.679
 3019TIP3   OH230691   0.677   3.401   6.699
 3019TIP3    H130692   0.611   3.344   6.738
 3019TIP3    H230693   0.719   3.444   6.774
 3020TIP3   OH230694   4.827   4.773   1.425
 3020TIP3    H130695   4.765   4.700   1.433
 3020TIP3    H230696   4.875   4.773   1.508
 3021TIP3   OH230697   5.894   4.054   8.166
 3021TIP3    H130698   5.985   4.046   8.196
 3021TIP3    H230699   5.848   3.983   8.210
 3022TIP3   OH230700   6.326   1.206   1.124
 3022TIP3    H130701   6.373   1.154   1.059
 3022TIP3    H230702   6.374   1.191   1.206
 3023TIP3   OH230703   0.236   6.079   1.167
 3023TIP3    H130704   0.210   6.022   1.095
 3023TIP3    H230705   0.266   6.019   1.235
 3024TIP3   OH230706   2.655   6.646   1.043
 3024TIP3    H130707   2.712   6.586   1.091
 3024TIP3    H230708   2.589   6.672   1.108
 3025TIP3   OH230709   6.397   0.742   1.649
 3025TIP3    H130710   6.323   0.753   1.708
 3025TIP3    H230711   6.371   0.786   1.568
 3026TIP3   OH230712   0.194   3.237   8.015
 3026TIP3    H130713   0.189   3.175   7.942
 3026TIP3    H230714   0.284   3.269   8.014
 3027TIP3   OH230715   4.505   6.641   6.939
 3027TIP3    H130716   4.494   6.602   6.852
 3027TIP3    H230717   4.460   6.581   6.999
 3028TIP3   OH230718   6.084   1.667   1.632
 3028TIP3    H130719   6.108   1.757   1.609
 3028TIP3    H230720   6.058   1.672   1.724
 3029TIP3   OH230721   1.795   6.210   8.674
 3029TIP3    H130722   1.772   6.240   8.586
 3029TIP3    H230723   1.776   6.116   8.673
 3030TIP3   OH230724   2.310   5.866   6.352
 3030TIP3    H130725   2.255   5.917   6.293
 3030TIP3    H230726   2.331   5.786   6.303
 3031TIP3   OH230727   4.002   6.468   8.841
 3031TIP3    H130728   4.090   6.477   8.878
 3031TIP3    H230729   3.948   6.531   8.891
 3032TIP3   OH230730   6.515   3.784   6.671
 3032TIP3    H130731   6.434   3.763   6.626
 3032TIP3    H230732   6.490   3.848   6.738
 3033TIP3   OH230733   5.153   0.853   1.100
 3033TIP3    H130734   5.213   0.805   1.156
 3033TIP3    H230735   5.090   0.893   1.160
 3034TIP3   OH230736   4.249   0.940   1.330
 3034TIP3    H130737   4.260   0.882   1.254
 3034TIP3    H230738   4.201   0.887   1.393
 3035TIP3   OH230739   1.152   1.864   1.944
 3035TIP3    H130740   1.071   1.874   1.893
 3035TIP3    H230741   1.135   1.913   2.025
 3036TIP3   OH230742   0.805   6.215   6.391
 3036TIP3    H130743   0.838   6.126   6.383
 3036TIP3    H230744   0.856   6.265   6.328
 3037TIP3   OH230745   5.935   3.501   0.730
 3037TIP3    H130746   5.907   3.410   0.733
 3037TIP3    H230747   5.925   3.532   0.820
 3038TIP3   OH230748   2.782   0.276   6.249
 3038TIP3    H130749   2.744   0.191   6.273
 3038TIP3    H230750   2.868   0.254   6.214
 3039TIP3   OH230751   1.276   4.969   7.803
 3039TIP3    H130752   1.354   4.918   7.825
 3039TIP3    H230753   1.304   5.060   7.812
 3040TIP3   OH230754   3.827   3.921   1.891
 3040TIP3    H130755   3.818   4.004   1.937
 3040TIP3    H230756   3.746   3.911   1.842
 3041TIP3   OH230757   6.049   2.508   7.753
 3041TIP3    H130758   5.988   2.550   7.692
 3041TIP3    H230759   6.123   2.568   7.759
 3042TIP3   OH230760   2.914   0.819   6.697
 3042TIP3    H130761   2.824   0.845   6.674
 3042TIP3    H230762   2.912   0.809   6.792
 3043TIP3   OH230763   3.512   2.000   7.437
 3043TIP3    H130764   3.531   2.040   7.352
 3043TIP3    H230765   3.492   2.074   7.494
 3044TIP3   OH230766   2.050   1.835   1.202
 3044TIP3    H130767   2.027   1.879   1.120
 3044TIP3    H230768   2.106   1.762   1.175
 3045TIP3   OH230769   4.128   2.818   7.354
 3045TIP3    H130770   4.048   2.831   7.406
 3045TIP3    H230771   4.198   2.855   7.407
 3046TIP3   OH230772   0.042   4.942   8.202
 3046TIP3    H130773   0.035   5.004   8.274
 3046TIP3    H230774   0.134   4.946   8.175
 3047TIP3   OH230775   2.488   2.681   0.889
 3047TIP3    H130776   2.516   2.760   0.934
 3047TIP3    H230777   2.506   2.699   0.796
 3048TIP3   OH230778   4.129   4.166   1.331
 3048TIP3    H130779   4.034   4.160   1.325
 3048TIP3    H230780   4.156   4.206   1.249
 3049TIP3   OH230781   1.123   2.271   1.471
 3049TIP3    H130782   1.032   2.271   1.501
 3049TIP3    H230783   1.161   2.192   1.509
 3050TIP3   OH230784   3.821   3.992   0.363
 3050TIP3    H130785   3.757   4.051   0.402
 3050TIP3    H230786   3.844   4.032   0.280
 3051TIP3   OH230787   5.533   5.435   2.222
 3051TIP3    H130788   5.563   5.524   2.202
 3051TIP3    H230789   5.516   5.436   2.316
 3052TIP3   OH230790   6.471   3.271   0.229
 3052TIP3    H130791   6.411   3.239   0.297
 3052TIP3    H230792   6.440   3.230   0.148
 3053TIP3   OH230793   1.225   4.972   8.199
 3053TIP3    H130794   1.163   4.907   8.167
 3053TIP3    H230795   1.170   5.044   8.230
 3054TIP3   OH230796   6.323   5.679   1.787
 3054TIP3    H130797   6.335   5.612   1.854
 3054TIP3    H230798   6.384   5.654   1.718
 3055TIP3   OH230799   3.685   3.045   7.470
 3055TIP3    H130800   3.697   2.955   7.438
 3055TIP3    H230801   3.629   3.086   7.405
 3056TIP3   OH230802   1.099   2.800   0.751
 3056TIP3    H130803   1.017   2.774   0.709
 3056TIP3    H230804   1.103   2.748   0.831
 3057TIP3   OH230805   6.783   4.416   1.673
 3057TIP3    H130806   6.699   4.460   1.664
 3057TIP3    H230807   6.827   4.430   1.589
 3058TIP3   OH230808   0.518   2.830   0.585
 3058TIP3    H130809   0.444   2.889   0.597
 3058TIP3    H230810   0.481   2.753   0.544
 3059TIP3   OH230811   1.600   0.413   1.089
 3059TIP3    H130812   1.656   0.471   1.141
 3059TIP3    H230813   1.527   0.468   1.062
 3060TIP3   OH230814   4.762   3.952   8.279
 3060TIP3    H130815   4.700   3.999   8.335
 3060TIP3    H230816   4.709   3.911   8.211
 3061TIP3   OH230817   2.105   4.701   2.426
 3061TIP3    H130818   2.090   4.762   2.498
 3061TIP3    H230819   2.045   4.730   2.357
 3062TIP3   OH230820   2.622   3.608   1.612
 3062TIP3    H130821   2.553   3.605   1.546
 3062TIP3    H230822   2.575   3.625   1.694
 3063TIP3   OH230823   2.136   0.915   0.836
 3063TIP3    H130824   2.173   0.939   0.751
 3063TIP3    H230825   2.212   0.898   0.891
 3064TIP3   OH230826   1.588   6.097   0.111
 3064TIP3    H130827   1.571   6.185   0.076
 3064TIP3    H230828   1.507   6.072   0.155
 3065TIP3   OH230829   2.744   3.733   6.954
 3065TIP3    H130830   2.678   3.768   7.013
 3065TIP3    H230831   2.704   3.653   6.917
 3066TIP3   OH230832   1.024   1.013   7.844
 3066TIP3    H130833   0.941   1.024   7.797
 3066TIP3    H230834   1.016   1.070   7.921
 3067TIP3   OH230835   2.458   1.647   1.954
 3067TIP3    H130836   2.472   1.592   1.877
 3067TIP3    H230837   2.496   1.731   1.931
 3068TIP3   OH230838   0.733   5.217   0.068
 3068TIP3    H130839   0.799   5.148   0.056
 3068TIP3    H230840   0.719   5.252  -0.020
 3069TIP3   OH230841   6.332   5.651   8.714
 3069TIP3    H130842   6.275   5.600   8.657
 3069TIP3    H230843   6.365   5.721   8.658
 3070TIP3   OH230844   4.824   1.450   7.851
 3070TIP3    H130845   4.841   1.423   7.942
 3070TIP3    H230846   4.741   1.498   7.856
 3071TIP3   OH230847   0.396   6.279   1.110
 3071TIP3    H130848   0.402   6.309   1.019
 3071TIP3    H230849   0.324   6.215   1.109
 3072TIP3   OH230850   4.118   1.070   0.651
 3072TIP3    H130851   4.049   1.042   0.592
 3072TIP3    H230852   4.121   1.166   0.641
 3073TIP3   OH230853   3.902   1.560   8.123
 3073TIP3    H130854   3.853   1.495   8.072
 3073TIP3    H230855   3.835   1.619   8.157
 3074TIP3   OH230856   0.015   4.705   1.320
 3074TIP3    H130857   0.046   4.750   1.398
 3074TIP3    H230858  -0.026   4.773   1.267
 3075TIP3   OH230859   2.945   4.610   7.336
 3075TIP3    H130860   2.865   4.579   7.294
 3075TIP3    H230861   2.967   4.542   7.400
 3076TIP3   OH230862   6.226   6.528   0.373
 3076TIP3    H130863   6.251   6.552   0.284
 3076TIP3    H230864   6.229   6.433   0.374
 3077TIP3   OH230865   3.519   5.939   0.771
 3077TIP3    H130866   3.508   5.976   0.683
 3077TIP3    H230867   3.522   6.014   0.829
 3078TIP3   OH230868   2.739   0.091   1.236
 3078TIP3    H130869   2.796   0.016   1.219
 3078TIP3    H230870   2.658   0.053   1.270
 3079TIP3   OH230871   3.950   4.844   0.560
 3079TIP3    H130872   4.029   4.811   0.517
 3079TIP3    H230873   3.881   4.782   0.534
 3080TIP3   OH230874   1.113   6.480   7.814
 3080TIP3    H130875   1.172   6.556   7.812
 3080TIP3    H230876   1.087   6.472   7.906
 3081TIP3   OH230877   3.448   4.379   1.233
 3081TIP3    H130878   3.429   4.417   1.319
 3081TIP3    H230879   3.544   4.377   1.229
 3082TIP3   OH230880   6.656   4.964   2.722
 3082TIP3    H130881   6.570   4.976   2.681
 3082TIP3    H230882   6.642   4.896   2.789
 3083TIP3   OH230883   4.041   2.249   8.739
 3083TIP3    H130884   3.973   2.282   8.681
 3083TIP3    H230885   3.996   2.191   8.800
 3084TIP3   OH230886   2.204   6.519   7.309
 3084TIP3    H130887   2.167   6.601   7.341
 3084TIP3    H230888   2.143   6.452   7.337
 3085TIP3   OH230889   2.076   1.383   1.855
 3085TIP3    H130890   2.051   1.367   1.764
 3085TIP3    H230891   2.087   1.478   1.860
 3086TIP3   OH230892   0.573   4.835   1.059
 3086TIP3    H130893   0.655   4.801   1.094
 3086TIP3    H230894   0.588   4.929   1.051
 3087TIP3   OH230895   6.660   0.695   1.054
 3087TIP3    H130896   6.596   0.676   1.123
 3087TIP3    H230897   6.620   0.661   0.974
 3088TIP3   OH230898   6.576   3.517   0.336
 3088TIP3    H130899   6.549   3.485   0.422
 3088TIP3    H230900   6.548   3.448   0.275
 3089TIP3   OH230901   0.343   3.641   8.029
 3089TIP3    H130902   0.341   3.735   8.013
 3089TIP3    H230903   0.253   3.618   8.049
 3090TIP3   OH230904   4.266   3.659   1.432
 3090TIP3    H130905   4.239   3.705   1.352
 3090TIP3    H230906   4.191   3.605   1.455
 3091TIP3   OH230907   5.159   5.075   8.288
 3091TIP3    H130908   5.219   5.016   8.241
 3091TIP3    H230909   5.080   5.076   8.233
 3092TIP3   OH230910   4.191   2.030   6.657
 3092TIP3    H130911   4.215   1.937   6.658
 3092TIP3    H230912   4.255   2.072   6.714
 3093TIP3   OH230913   3.476   2.184   1.634
 3093TIP3    H130914   3.534   2.109   1.619
 3093TIP3    H230915   3.449   2.175   1.726
 3094TIP3   OH230916   1.336   5.574   0.331
 3094TIP3    H130917   1.370   5.540   0.414
 3094TIP3    H230918   1.287   5.653   0.356
 3095TIP3   OH230919   2.933   3.487   6.962
 3095TIP3    H130920   2.855   3.477   6.907
 3095TIP3    H230921   2.898   3.496   7.051
 3096TIP3   OH230922   1.426   6.544   7.373
 3096TIP3    H130923   1.510   6.590   7.380
 3096TIP3    H230924   1.426   6.483   7.447
 3097TIP3   OH230925   2.827   1.037   5.945
 3097TIP3    H130926   2.840   1.030   6.039
 3097TIP3    H230927   2.867   0.957   5.910
 3098TIP3   OH230928   0.342   2.548   0.153
 3098TIP3    H130929   0.418   2.547   0.095
 3098TIP3    H230930   0.344   2.462   0.196
 3099TIP3   OH230931   0.384   1.526   1.762
 3099TIP3    H130932   0.332   1.501   1.685
 3099TIP3    H230933   0.320   1.533   1.833
 3100TIP3   OH230934   3.341   2.447   6.719
 3100TIP3    H130935   3.255   2.411   6.698
 3100TIP3    H230936   3.357   2.512   6.651
 3101TIP3   OH230937   0.146   5.282   2.261
 3101TIP3    H130938   0.209   5.350   2.235
 3101TIP3    H230939   0.120   5.306   2.350
 3102TIP3   OH230940   5.630   4.863   2.069
 3102TIP3    H130941   5.725   4.857   2.056
 3102TIP3    H230942   5.613   4.807   2.145
 3103TIP3   OH230943   2.347   4.671   7.164
 3103TIP3    H130944   2.281   4.642   7.227
 3103TIP3    H230945   2.408   4.723   7.216
 3104TIP3   OH230946   1.901   3.988   1.787
 3104TIP3    H130947   1.919   4.057   1.850
 3104TIP3    H230948   1.811   4.006   1.757
 3105TIP3   OH230949   1.249   1.305   0.606
 3105TIP3    H130950   1.331   1.351   0.623
 3105TIP3    H230951   1.215   1.283   0.693
 3106TIP3   OH230952   6.622   6.386   8.976
 3106TIP3    H130953   6.696   6.331   8.951
 3106TIP3    H230954   6.607   6.442   8.901
 3107TIP3   OH230955   0.692   3.718   8.825
 3107TIP3    H130956   0.723   3.808   8.830
 3107TIP3    H230957   0.749   3.677   8.760
 3108TIP3   OH230958   6.643   0.398   8.028
 3108TIP3    H130959   6.731   0.426   8.054
 3108TIP3    H230960   6.643   0.403   7.932
 3109TIP3   OH230961   2.370   3.682   7.672
 3109TIP3    H130962   2.288   3.716   7.708
 3109TIP3    H230963   2.421   3.759   7.650
 3110TIP3   OH230964   0.527   4.909   8.775
 3110TIP3    H130965   0.622   4.903   8.760
 3110TIP3    H230966   0.502   4.993   8.737
 3111TIP3   OH230967   2.889   3.996   6.924
 3111TIP3    H130968   2.885   3.901   6.911
 3111TIP3    H230969   2.798   4.024   6.929
 3112TIP3   OH230970   5.390   3.036   8.663
 3112TIP3    H130971   5.304   3.004   8.637
 3112TIP3    H230972   5.379   3.131   8.670
 3113TIP3   OH230973   5.928   3.673   2.335
 3113TIP3    H130974   5.895   3.721   2.411
 3113TIP3    H230975   6.020   3.700   2.328
 3114TIP3   OH230976   2.515   3.815   7.053
 3114TIP3    H130977   2.450   3.759   7.095
 3114TIP3    H230978   2.478   3.834   6.967
 3115TIP3   OH230979   5.508   3.617   8.333
 3115TIP3    H130980   5.597   3.602   8.364
 3115TIP3    H230981   5.515   3.613   8.237
 3116TIP3   OH230982   4.560   3.623   0.915
 3116TIP3    H130983   4.497   3.688   0.886
 3116TIP3    H230984   4.640   3.674   0.932
 3117TIP3   OH230985   3.582   5.699   2.274
 3117TIP3    H130986   3.610   5.650   2.197
 3117TIP3    H230987   3.661   5.708   2.327
 3118TIP3   OH230988   3.551   5.397   8.568
 3118TIP3    H130989   3.529   5.348   8.647
 3118TIP3    H230990   3.644   5.377   8.552
 3119TIP3   OH230991   0.146   1.489   1.341
 3119TIP3    H130992   0.062   1.471   1.384
 3119TIP3    H230993   0.183   1.562   1.391
 3120TIP3   OH230994   4.881   3.592   8.397
 3120TIP3    H130995   4.895   3.518   8.455
 3120TIP3    H230996   4.955   3.650   8.412
 3121TIP3   OH230997   5.047   0.412   1.741
 3121TIP3    H130998   5.056   0.327   1.698
 3121TIP3    H230999   5.008   0.392   1.826
 3122TIP3   OH231000   0.795   3.843   2.066
 3122TIP3    H131001   0.771   3.776   2.002
 3122TIP3    H231002   0.713   3.862   2.112
 3123TIP3   OH231003   5.264   1.204   8.650
 3123TIP3    H131004   5.220   1.180   8.569
 3123TIP3    H231005   5.261   1.125   8.704
 3124TIP3   OH231006   0.656   4.155   1.799
 3124TIP3    H131007   0.589   4.156   1.731
 3124TIP3    H231008   0.621   4.096   1.866
 3125TIP3   OH231009   5.675   1.018   2.399
 3125TIP3    H131010   5.769   1.019   2.417
 3125TIP3    H231011   5.655   1.106   2.367
 3126TIP3   OH231012   4.062   6.466   8.565
 3126TIP3    H131013   4.009   6.543   8.546
 3126TIP3    H231014   4.034   6.439   8.653
 3127TIP3   OH231015   2.918   3.812   8.726
 3127TIP3    H131016   2.981   3.780   8.661
 3127TIP3    H231017   2.954   3.784   8.810
 3128TIP3   OH231018   3.476   2.185   7.645
 3128TIP3    H131019   3.413   2.222   7.584
 3128TIP3    H231020   3.504   2.259   7.699
 3129TIP3   OH231021   5.587   2.890   1.946
 3129TIP3    H131022   5.636   2.826   1.895
 3129TIP3    H231023   5.558   2.842   2.023
 3130TIP3   OH231024   6.419   2.965   1.000
 3130TIP3    H131025   6.432   2.887   1.055
 3130TIP3    H231026   6.500   2.974   0.950
 3131TIP3   OH231027   3.538   0.637   6.115
 3131TIP3    H131028   3.474   0.708   6.118
 3131TIP3    H231029   3.606   0.669   6.057
 3132TIP3   OH231030   4.126   5.929   0.719
 3132TIP3    H131031   4.145   5.902   0.629
 3132TIP3    H231032   4.069   5.861   0.753
 3133TIP3   OH231033   0.462   2.737   1.550
 3133TIP3    H131034   0.483   2.812   1.606
 3133TIP3    H231035   0.543   2.716   1.505
 3134TIP3   OH231036   5.986   6.161   7.247
 3134TIP3    H131037   5.976   6.123   7.160
 3134TIP3    H231038   5.943   6.099   7.305
 3135TIP3   OH231039   0.221   1.293   2.326
 3135TIP3    H131040   0.314   1.307   2.310
 3135TIP3    H231041   0.184   1.381   2.333
 3136TIP3   OH231042   4.092   0.007   0.039
 3136TIP3    H131043   4.125  -0.082   0.050
 3136TIP3    H231044   4.168   0.057   0.009
 3137TIP3   OH231045   3.475   1.246   7.079
 3137TIP3    H131046   3.473   1.150   7.083
 3137TIP3    H231047   3.438   1.274   7.163
 3138TIP3   OH231048   0.008   5.058   7.203
 3138TIP3    H131049   0.101   5.043   7.190
 3138TIP3    H231050  -0.015   5.003   7.278
 3139TIP3   OH231051   2.516   2.420   8.472
 3139TIP3    H131052   2.523   2.434   8.567
 3139TIP3    H231053   2.604   2.438   8.439
 3140TIP3   OH231054   3.098   1.382   1.427
 3140TIP3    H131055   3.106   1.389   1.332
 3140TIP3    H231056   3.175   1.428   1.461
 3141TIP3   OH231057   5.456   1.493   6.575
 3141TIP3    H131058   5.376   1.451   6.604
 3141TIP3    H231059   5.460   1.477   6.481
 3142TIP3   OH231060   1.586   2.648   7.386
 3142TIP3    H131061   1.613   2.683   7.301
 3142TIP3    H231062   1.595   2.553   7.376
 3143TIP3   OH231063   5.183   1.317   6.127
 3143TIP3    H131064   5.240   1.366   6.068
 3143TIP3    H231065   5.201   1.225   6.106
 3144TIP3   OH231066   3.165   5.872   0.803
 3144TIP3    H131067   3.158   5.966   0.786
 3144TIP3    H231068   3.217   5.865   0.882
 3145TIP3   OH231069   3.166   3.179   8.119
 3145TIP3    H131070   3.205   3.247   8.173
 3145TIP3    H231071   3.240   3.141   8.072
 3146TIP3   OH231072   2.142   6.552   8.571
 3146TIP3    H131073   2.073   6.486   8.577
 3146TIP3    H231074   2.199   6.534   8.645
 3147TIP3   OH231075   5.653   4.195   8.140
 3147TIP3    H131076   5.657   4.182   8.046
 3147TIP3    H231077   5.728   4.148   8.175
 3148TIP3   OH231078   2.825   3.739   1.027
 3148TIP3    H131079   2.823   3.649   0.993
 3148TIP3    H231080   2.744   3.778   0.995
 3149TIP3   OH231081   3.020   3.444   1.349
 3149TIP3    H131082   3.075   3.438   1.427
 3149TIP3    H231083   2.931   3.432   1.381
 3150TIP3   OH231084   3.993   0.140   6.686
 3150TIP3    H131085   3.929   0.155   6.617
 3150TIP3    H231086   4.024   0.050   6.670
 3151TIP3   OH231087   3.479   3.933   6.871
 3151TIP3    H131088   3.494   3.972   6.785
 3151TIP3    H231089   3.448   3.844   6.852
 3152TIP3   OH231090   6.100   2.147   8.902
 3152TIP3    H131091   6.049   2.148   8.821
 3152TIP3    H231092   6.178   2.096   8.880
 3153TIP3   OH231093   6.125   1.554   7.396
 3153TIP3    H131094   6.111   1.638   7.353
 3153TIP3    H231095   6.183   1.506   7.338
 3154TIP3   OH231096   1.363   2.493   0.103
 3154TIP3    H131097   1.299   2.486   0.032
 3154TIP3    H231098   1.385   2.586   0.106
 3155TIP3   OH231099   1.018   6.023   0.597
 3155TIP3    H131100   1.059   5.993   0.516
 3155TIP3    H231101   0.924   6.021   0.579
 3156TIP3   OH231102   3.101   2.283   1.726
 3156TIP3    H131103   3.153   2.232   1.664
 3156TIP3    H231104   3.132   2.256   1.812
 3157TIP3   OH231105   5.068   4.836   1.319
 3157TIP3    H131106   5.114   4.918   1.338
 3157TIP3    H231107   5.006   4.826   1.390
 3158TIP3   OH231108   2.221   0.225   1.606
 3158TIP3    H131109   2.274   0.245   1.683
 3158TIP3    H231110   2.145   0.179   1.640
 3159TIP3   OH231111   2.419   3.865   8.727
 3159TIP3    H131112   2.423   3.941   8.785
 3159TIP3    H231113   2.441   3.790   8.783
 3160TIP3   OH231114   5.830   0.921   6.702
 3160TIP3    H131115   5.782   1.004   6.701
 3160TIP3    H231116   5.914   0.942   6.661
 3161TIP3   OH231117   6.538   5.185   7.638
 3161TIP3    H131118   6.492   5.102   7.637
 3161TIP3    H231119   6.498   5.236   7.568
 3162TIP3   OH231120   4.613   1.505   8.817
 3162TIP3    H131121   4.537   1.558   8.841
 3162TIP3    H231122   4.580   1.415   8.813
 3163TIP3   OH231123   3.270   5.181   0.371
 3163TIP3    H131124   3.205   5.127   0.417
 3163TIP3    H231125   3.232   5.269   0.373
 3164TIP3   OH231126   5.424   4.165   6.600
 3164TIP3    H131127   5.349   4.127   6.555
 3164TIP3    H231128   5.469   4.089   6.639
 3165TIP3   OH231129   0.911   3.781   1.227
 3165TIP3    H131130   0.896   3.871   1.197
 3165TIP3    H231131   0.826   3.738   1.217
 3166TIP3   OH231132   6.327   2.024   8.767
 3166TIP3    H131133   6.246   1.988   8.730
 3166TIP3    H231134   6.385   2.033   8.691
 3167TIP3   OH231135   3.297   3.866   8.710
 3167TIP3    H131136   3.370   3.833   8.763
 3167TIP3    H231137   3.223   3.810   8.734
 3168TIP3   OH231138   1.661   3.680   1.516
 3168TIP3    H131139   1.717   3.609   1.547
 3168TIP3    H231140   1.638   3.654   1.426
 3169TIP3   OH231141   0.864   4.287   6.823
 3169TIP3    H131142   0.914   4.355   6.868
 3169TIP3    H231143   0.772   4.311   6.837
 3170TIP3   OH231144   1.832   0.690   7.889
 3170TIP3    H131145   1.752   0.671   7.840
 3170TIP3    H231146   1.831   0.627   7.961
 3171TIP3   OH231147   5.720   0.327   8.913
 3171TIP3    H131148   5.665   0.397   8.877
 3171TIP3    H231149   5.808   0.364   8.913
 3172TIP3   OH231150   5.431   0.437   8.181
 3172TIP3    H131151   5.507   0.414   8.234
 3172TIP3    H231152   5.468   0.461   8.096
 3173TIP3   OH231153   4.411   5.869   0.205
 3173TIP3    H131154   4.446   5.833   0.123
 3173TIP3    H231155   4.456   5.953   0.215
 3174TIP3   OH231156   2.453   1.698   7.031
 3174TIP3    H131157   2.504   1.760   6.979
 3174TIP3    H231158   2.372   1.685   6.982
 3175TIP3   OH231159   3.991   4.352   8.023
 3175TIP3    H131160   4.014   4.426   8.080
 3175TIP3    H231161   3.958   4.285   8.082
 3176TIP3   OH231162   0.802   4.381   1.715
 3176TIP3    H131163   0.745   4.408   1.643
 3176TIP3    H231164   0.766   4.297   1.744
 3177TIP3   OH231165   5.332   4.427   2.496
 3177TIP3    H131166   5.361   4.478   2.572
 3177TIP3    H231167   5.240   4.409   2.513
 3178TIP3   OH231168   1.236   3.170   7.832
 3178TIP3    H131169   1.170   3.134   7.773
 3178TIP3    H231170   1.284   3.233   7.778
 3179TIP3   OH231171   3.019   5.470   0.043
 3179TIP3    H131172   3.063   5.404   0.096
 3179TIP3    H231173   3.078   5.485  -0.031
 3180TIP3   OH231174   6.212   6.445   6.995
 3180TIP3    H131175   6.271   6.424   6.922
 3180TIP3    H231176   6.133   6.393   6.978
 3181TIP3   OH231177   6.352   0.925   1.451
 3181TIP3    H131178   6.404   0.996   1.415
 3181TIP3    H231179   6.310   0.962   1.528
 3182TIP3   OH231180   4.051   5.984   7.857
 3182TIP3    H131181   4.135   5.945   7.836
 3182TIP3    H231182   4.011   5.923   7.920
 3183TIP3   OH231183   0.128   1.039   6.532
 3183TIP3    H131184   0.124   0.981   6.456
 3183TIP3    H231185   0.196   1.000   6.588
 3184TIP3   OH231186   1.513   0.771   1.100
 3184TIP3    H131187   1.462   0.707   1.149
 3184TIP3    H231188   1.604   0.748   1.119
 3185TIP3   OH231189   0.577   0.859   8.441
 3185TIP3    H131190   0.666   0.890   8.425
 3185TIP3    H231191   0.585   0.764   8.447
 3186TIP3   OH231192   3.311   4.535   0.323
 3186TIP3    H131193   3.353   4.475   0.262
 3186TIP3    H231194   3.223   4.500   0.335
 3187TIP3   OH231195   0.349   2.593   7.793
 3187TIP3    H131196   0.352   2.514   7.847
 3187TIP3    H231197   0.276   2.578   7.733
 3188TIP3   OH231198   4.578   4.491   7.127
 3188TIP3    H131199   4.610   4.503   7.038
 3188TIP3    H231200   4.484   4.509   7.121
 3189TIP3   OH231201   5.353   2.443   2.261
 3189TIP3    H131202   5.296   2.383   2.308
 3189TIP3    H231203   5.340   2.527   2.304
 3190TIP3   OH231204   6.269   5.626   7.918
 3190TIP3    H131205   6.200   5.583   7.869
 3190TIP3    H231206   6.341   5.562   7.919
 3191TIP3   OH231207   2.894   2.358   8.068
 3191TIP3    H131208   2.864   2.354   7.977
 3191TIP3    H231209   2.942   2.276   8.080
 3192TIP3   OH231210   2.835   5.123   8.565
 3192TIP3    H131211   2.806   5.048   8.618
 3192TIP3    H231212   2.899   5.168   8.621
 3193TIP3   OH231213   2.731   3.623   8.350
 3193TIP3    H131214   2.672   3.677   8.403
 3193TIP3    H231215   2.791   3.584   8.412
 3194TIP3   OH231216   5.591   5.690   2.112
 3194TIP3    H131217   5.499   5.712   2.098
 3194TIP3    H231218   5.610   5.723   2.200
 3195TIP3   OH231219   5.094   0.020   6.991
 3195TIP3    H131220   5.128  -0.021   6.912
 3195TIP3    H231221   5.018  -0.034   7.015
 3196TIP3   OH231222   4.247   6.254   0.799
 3196TIP3    H131223   4.178   6.259   0.733
 3196TIP3    H231224   4.296   6.175   0.776
 3197TIP3   OH231225   2.716   1.504   1.930
 3197TIP3    H131226   2.632   1.471   1.898
 3197TIP3    H231227   2.718   1.480   2.022
 3198TIP3   OH231228   0.299   1.017   7.503
 3198TIP3    H131229   0.361   1.038   7.433
 3198TIP3    H231230   0.354   0.990   7.577
 3199TIP3   OH231231   5.832   6.758   0.762
 3199TIP3    H131232   5.793   6.690   0.707
 3199TIP3    H231233   5.925   6.738   0.763
 3200TIP3   OH231234   1.660   1.512   1.772
 3200TIP3    H131235   1.680   1.445   1.707
 3200TIP3    H231236   1.732   1.506   1.835
 3201TIP3   OH231237   0.782   3.267   1.229
 3201TIP3    H131238   0.814   3.183   1.195
 3201TIP3    H231239   0.687   3.258   1.233
 3202TIP3   OH231240   3.007   6.482   1.663
 3202TIP3    H131241   2.996   6.450   1.752
 3202TIP3    H231242   3.052   6.566   1.672
 3203TIP3   OH231243   5.456   6.390   7.378
 3203TIP3    H131244   5.548   6.366   7.381
 3203TIP3    H231245   5.416   6.323   7.323
 3204TIP3   OH231246   0.208   2.771   7.978
 3204TIP3    H131247   0.286   2.763   7.923
 3204TIP3    H231248   0.242   2.789   8.066
 3205TIP3   OH231249   6.279   5.207   2.245
 3205TIP3    H131250   6.371   5.191   2.265
 3205TIP3    H231251   6.231   5.147   2.301
 3206TIP3   OH231252   3.898   2.095   8.906
 3206TIP3    H131253   3.807   2.122   8.911
 3206TIP3    H231254   3.924   2.078   8.996
 3207TIP3   OH231255   2.832   2.913   7.174
 3207TIP3    H131256   2.908   2.892   7.227
 3207TIP3    H231257   2.799   2.828   7.145
 3208TIP3   OH231258   3.247   6.114   7.584
 3208TIP3    H131259   3.299   6.190   7.612
 3208TIP3    H231260   3.278   6.094   7.496
 3209TIP3   OH231261   5.496   4.318   6.831
 3209TIP3    H131262   5.563   4.350   6.771
 3209TIP3    H231263   5.431   4.276   6.774
 3210TIP3   OH231264   0.028   2.368   6.649
 3210TIP3    H131265   0.069   2.380   6.564
 3210TIP3    H231266  -0.065   2.356   6.630
 3211TIP3   OH231267   0.043   2.116   0.481
 3211TIP3    H131268   0.136   2.119   0.458
 3211TIP3    H231269   0.027   2.025   0.506
 3212TIP3   OH231270   5.127   2.221   1.010
 3212TIP3    H131271   5.145   2.237   0.917
 3212TIP3    H231272   5.214   2.216   1.050
 3213TIP3   OH231273   4.663   2.563   0.554
 3213TIP3    H131274   4.571   2.577   0.529
 3213TIP3    H231275   4.700   2.651   0.556
 3214TIP3   OH231276   2.053   6.108   0.230
 3214TIP3    H131277   1.992   6.160   0.177
 3214TIP3    H231278   2.114   6.173   0.266
 3215TIP3   OH231279   3.245   2.744   1.538
 3215TIP3    H131280   3.326   2.793   1.548
 3215TIP3    H231281   3.176   2.810   1.551
 3216TIP3   OH231282   0.414   3.917   1.824
 3216TIP3    H131283   0.369   3.841   1.787
 3216TIP3    H231284   0.507   3.895   1.819
 3217TIP3   OH231285   3.112   2.598   0.252
 3217TIP3    H131286   3.037   2.608   0.195
 3217TIP3    H231287   3.110   2.676   0.308
 3218TIP3   OH231288   2.532   0.397   6.350
 3218TIP3    H131289   2.600   0.351   6.301
 3218TIP3    H231290   2.450   0.359   6.320
 3219TIP3   OH231291   1.337   2.489   7.700
 3219TIP3    H131292   1.373   2.578   7.700
 3219TIP3    H231293   1.310   2.474   7.790
 3220TIP3   OH231294   1.993   1.114   0.583
 3220TIP3    H131295   2.042   1.047   0.630
 3220TIP3    H231296   1.907   1.074   0.566
 3221TIP3   OH231297   1.475   1.639   1.925
 3221TIP3    H131298   1.468   1.705   1.856
 3221TIP3    H231299   1.528   1.569   1.886
 3222TIP3   OH231300   3.166   0.764   8.128
 3222TIP3    H131301   3.232   0.744   8.194
 3222TIP3    H231302   3.082   0.755   8.175
 3223TIP3   OH231303   4.352   5.307   7.268
 3223TIP3    H131304   4.428   5.365   7.266
 3223TIP3    H231305   4.320   5.305   7.178
 3224TIP3   OH231306   1.125   5.186   8.352
 3224TIP3    H131307   1.056   5.228   8.300
 3224TIP3    H231308   1.091   5.188   8.442
 3225TIP3   OH231309   2.902   1.321   0.482
 3225TIP3    H131310   2.967   1.352   0.419
 3225TIP3    H231311   2.898   1.226   0.469
 3226TIP3   OH231312   2.521   1.633   8.553
 3226TIP3    H131313   2.599   1.649   8.500
 3226TIP3    H231314   2.504   1.717   8.596
 3227TIP3   OH231315   4.288   3.238   7.857
 3227TIP3    H131316   4.215   3.192   7.814
 3227TIP3    H231317   4.295   3.321   7.810
 3228TIP3   OH231318   4.674   4.503   2.131
 3228TIP3    H131319   4.597   4.476   2.181
 3228TIP3    H231320   4.749   4.474   2.184
 3229TIP3   OH231321   5.527   2.301   0.846
 3229TIP3    H131322   5.534   2.273   0.754
 3229TIP3    H231323   5.462   2.241   0.884
 3230TIP3   OH231324   0.513   6.153   7.933
 3230TIP3    H131325   0.589   6.137   7.878
 3230TIP3    H231326   0.528   6.098   8.011
 3231TIP3   OH231327   4.440   2.026   6.455
 3231TIP3    H131328   4.455   1.934   6.431
 3231TIP3    H231329   4.345   2.035   6.455
 3232TIP3   OH231330   4.621   4.733   1.981
 3232TIP3    H131331   4.657   4.652   2.017
 3232TIP3    H231332   4.619   4.793   2.055
 3233TIP3   OH231333   5.725   1.658   1.264
 3233TIP3    H131334   5.767   1.733   1.222
 3233TIP3    H231335   5.797   1.598   1.284
 3234TIP3   OH231336   4.447   2.535   8.045
 3234TIP3    H131337   4.465   2.561   8.135
 3234TIP3    H231338   4.494   2.599   7.992
 3235TIP3   OH231339   2.227   4.270   1.480
 3235TIP3    H131340   2.242   4.327   1.404
 3235TIP3    H231341   2.192   4.329   1.547
 3236TIP3   OH231342   0.002   5.762   0.798
 3236TIP3    H131343  -0.061   5.832   0.783
 3236TIP3    H231344   0.053   5.757   0.718
 3237TIP3   OH231345   3.114   1.079   7.754
 3237TIP3    H131346   3.134   1.172   7.742
 3237TIP3    H231347   3.044   1.077   7.820
 3238TIP3   OH231348   3.160   1.301   0.409
 3238TIP3    H131349   3.114   1.222   0.379
 3238TIP3    H231350   3.180   1.284   0.501
 3239TIP3   OH231351   0.932   1.176   7.293
 3239TIP3    H131352   1.001   1.167   7.359
 3239TIP3    H231353   0.979   1.201   7.213
 3240TIP3   OH231354   4.472   4.417   7.462
 3240TIP3    H131355   4.403   4.459   7.412
 3240TIP3    H231356   4.426   4.361   7.525
 3241TIP3   OH231357   5.690   6.125   1.638
 3241TIP3    H131358   5.725   6.052   1.587
 3241TIP3    H231359   5.706   6.101   1.729
 3242TIP3   OH231360   2.114   0.567   8.468
 3242TIP3    H131361   2.078   0.516   8.396
 3242TIP3    H231362   2.061   0.542   8.544
 3243TIP3   OH231363   4.509   0.471   6.914
 3243TIP3    H131364   4.565   0.534   6.960
 3243TIP3    H231365   4.485   0.406   6.981
 3244TIP3   OH231366   3.666   4.508   1.002
 3244TIP3    H131367   3.694   4.445   1.069
 3244TIP3    H231368   3.589   4.551   1.041
 3245TIP3   OH231369   4.091   2.181   7.822
 3245TIP3    H131370   4.146   2.254   7.849
 3245TIP3    H231371   4.005   2.200   7.859
 3246TIP3   OH231372   4.024   3.196   8.327
 3246TIP3    H131373   3.997   3.278   8.285
 3246TIP3    H231374   3.962   3.131   8.295
 3247TIP3   OH231375   4.968   2.587   0.020
 3247TIP3    H131376   5.048   2.549   0.057
 3247TIP3    H231377   4.921   2.512  -0.017
 3248TIP3   OH231378   1.575   2.436   0.597
 3248TIP3    H131379   1.516   2.424   0.523
 3248TIP3    H231380   1.645   2.373   0.582
 3249TIP3   OH231381   6.485   4.431   1.787
 3249TIP3    H131382   6.393   4.415   1.805
 3249TIP3    H231383   6.487   4.454   1.694
 3250TIP3   OH231384   0.149   0.947   8.837
 3250TIP3    H131385   0.214   0.999   8.791
 3250TIP3    H231386   0.192   0.920   8.918
 3251TIP3   OH231387   2.120   3.805   7.713
 3251TIP3    H131388   2.085   3.888   7.745
 3251TIP3    H231389   2.049   3.767   7.661
 3252TIP3   OH231390   6.416   2.498   6.996
 3252TIP3    H131391   6.440   2.456   6.914
 3252TIP3    H231392   6.425   2.592   6.978
 3253TIP3   OH231393   1.430   5.342   1.708
 3253TIP3    H131394   1.516   5.376   1.683
 3253TIP3    H231395   1.442   5.310   1.798
 3254TIP3   OH231396   4.682   2.856   8.170
 3254TIP3    H131397   4.588   2.875   8.173
 3254TIP3    H231398   4.711   2.864   8.261
 3255TIP3   OH231399   6.319   5.485   1.985
 3255TIP3    H131400   6.341   5.533   2.065
 3255TIP3    H231401   6.271   5.408   2.016
 3256TIP3   OH231402   3.900   2.794   1.533
 3256TIP3    H131403   3.918   2.744   1.612
 3256TIP3    H231404   3.981   2.842   1.517
 3257TIP3   OH231405   1.064   4.788   7.776
 3257TIP3    H131406   1.146   4.837   7.775
 3257TIP3    H231407   1.020   4.817   7.856
 3258TIP3   OH231408   1.040   3.441   0.971
 3258TIP3    H131409   1.005   3.365   0.924
 3258TIP3    H231410   1.123   3.460   0.927
 3259TIP3   OH231411   6.134   1.971   1.584
 3259TIP3    H131412   6.229   1.980   1.571
 3259TIP3    H231413   6.116   2.023   1.662
 3260TIP3   OH231414   3.448   2.494   7.313
 3260TIP3    H131415   3.542   2.486   7.331
 3260TIP3    H231416   3.426   2.414   7.265
 3261TIP3   OH231417   1.073   2.360   0.227
 3261TIP3    H131418   0.994   2.414   0.230
 3261TIP3    H231419   1.108   2.373   0.139
 3262TIP3   OH231420   6.353   3.565   0.148
 3262TIP3    H131421   6.434   3.611   0.168
 3262TIP3    H231422   6.379   3.491   0.094
 3263TIP3   OH231423   1.269   3.472   0.848
 3263TIP3    H131424   1.314   3.556   0.862
 3263TIP3    H231425   1.335   3.416   0.807
 3264TIP3   OH231426   6.714   4.346   7.600
 3264TIP3    H131427   6.619   4.345   7.595
 3264TIP3    H231428   6.739   4.255   7.617
 3265TIP3   OH231429   5.252   3.237   8.881
 3265TIP3    H131430   5.290   3.274   8.801
 3265TIP3    H231431   5.319   3.178   8.915
 3266TIP3   OH231432   6.173   4.177   8.907
 3266TIP3    H131433   6.205   4.198   8.819
 3266TIP3    H231434   6.245   4.128   8.947
 3267TIP3   OH231435   4.581   3.983   6.526
 3267TIP3    H131436   4.604   3.914   6.587
 3267TIP3    H231437   4.518   4.037   6.573
 3268TIP3   OH231438   2.081   0.734   1.606
 3268TIP3    H131439   2.060   0.804   1.667
 3268TIP3    H231440   2.172   0.711   1.627
 3269TIP3   OH231441   4.939   1.287   8.412
 3269TIP3    H131442   4.852   1.325   8.424
 3269TIP3    H231443   4.928   1.194   8.433
 3270TIP3   OH231444   2.446   1.691   8.173
 3270TIP3    H131445   2.532   1.650   8.165
 3270TIP3    H231446   2.390   1.622   8.209
 3271TIP3   OH231447   0.636   0.672   7.241
 3271TIP3    H131448   0.592   0.713   7.316
 3271TIP3    H231449   0.595   0.713   7.165
 3272TIP3   OH231450   6.657   6.720   1.033
 3272TIP3    H131451   6.647   6.804   0.988
 3272TIP3    H231452   6.644   6.654   0.964
 3273TIP3   OH231453   5.963   6.780   7.351
 3273TIP3    H131454   5.962   6.732   7.268
 3273TIP3    H231455   6.055   6.785   7.375
 3274TIP3   OH231456   3.057   4.749   7.704
 3274TIP3    H131457   2.972   4.793   7.703
 3274TIP3    H231458   3.082   4.747   7.796
 3275TIP3   OH231459   2.338   3.899   7.302
 3275TIP3    H131460   2.417   3.949   7.318
 3275TIP3    H231461   2.283   3.914   7.379
 3276TIP3   OH231462   1.402   4.117   8.133
 3276TIP3    H131463   1.442   4.124   8.046
 3276TIP3    H231464   1.473   4.084   8.189
 3277TIP3   OH231465   5.525   5.310   8.867
 3277TIP3    H131466   5.564   5.223   8.878
 3277TIP3    H231467   5.469   5.321   8.943
 3278TIP3   OH231468   0.237   3.911   0.208
 3278TIP3    H131469   0.221   3.997   0.169
 3278TIP3    H231470   0.313   3.877   0.162
 3279TIP3   OH231471   4.403   0.699   2.223
 3279TIP3    H131472   4.326   0.666   2.270
 3279TIP3    H231473   4.373   0.710   2.132
 3280TIP3   OH231474   1.792   1.771   1.836
 3280TIP3    H131475   1.769   1.855   1.797
 3280TIP3    H231476   1.724   1.755   1.901
 3281TIP3   OH231477   5.605   5.431   0.718
 3281TIP3    H131478   5.598   5.392   0.631
 3281TIP3    H231479   5.696   5.459   0.725
 3282TIP3   OH231480   4.378   2.953   7.251
 3282TIP3    H131481   4.350   3.041   7.274
 3282TIP3    H231482   4.310   2.920   7.193
 3283TIP3   OH231483   4.690   3.657   1.269
 3283TIP3    H131484   4.731   3.576   1.239
 3283TIP3    H231485   4.603   3.657   1.229
 3284TIP3   OH231486   0.598   5.042   0.317
 3284TIP3    H131487   0.520   5.044   0.262
 3284TIP3    H231488   0.664   5.090   0.267
 3285TIP3   OH231489   6.619   3.449   1.249
 3285TIP3    H131490   6.707   3.473   1.276
 3285TIP3    H231491   6.596   3.514   1.183
 3286TIP3   OH231492   6.218   3.586   2.052
 3286TIP3    H131493   6.299   3.635   2.064
 3286TIP3    H231494   6.224   3.512   2.112
 3287TIP3   OH231495   0.131   5.339   8.131
 3287TIP3    H131496   0.115   5.429   8.103
 3287TIP3    H231497   0.102   5.336   8.222
 3288TIP3   OH231498   6.007   3.212   0.943
 3288TIP3    H131499   5.936   3.259   0.987
 3288TIP3    H231500   6.062   3.280   0.906
 3289TIP3   OH231501   6.397   6.380   1.568
 3289TIP3    H131502   6.380   6.370   1.661
 3289TIP3    H231503   6.390   6.474   1.552
 3290TIP3   OH231504   2.368   5.447   6.407
 3290TIP3    H131505   2.290   5.463   6.353
 3290TIP3    H231506   2.368   5.352   6.421
 3291TIP3   OH231507   3.833   6.316   7.447
 3291TIP3    H131508   3.865   6.252   7.510
 3291TIP3    H231509   3.775   6.266   7.390
 3292TIP3   OH231510   0.261   4.022   7.546
 3292TIP3    H131511   0.274   4.116   7.543
 3292TIP3    H231512   0.250   4.002   7.639
 3293TIP3   OH231513   2.231   5.009   1.313
 3293TIP3    H131514   2.136   5.008   1.320
 3293TIP3    H231515   2.251   4.936   1.254
 3294TIP3   OH231516   3.931   2.578   8.672
 3294TIP3    H131517   3.921   2.626   8.755
 3294TIP3    H231518   4.024   2.555   8.669
 3295TIP3   OH231519   1.729   2.306   7.374
 3295TIP3    H131520   1.677   2.253   7.434
 3295TIP3    H231521   1.800   2.341   7.428
 3296TIP3   OH231522   2.124   0.906   7.362
 3296TIP3    H131523   2.085   0.831   7.319
 3296TIP3    H231524   2.115   0.978   7.299
 3297TIP3   OH231525   5.196   4.663   1.150
 3297TIP3    H131526   5.150   4.721   1.210
 3297TIP3    H231527   5.243   4.722   1.091
 3298TIP3   OH231528   6.784   6.166   8.399
 3298TIP3    H131529   6.700   6.201   8.428
 3298TIP3    H231530   6.782   6.174   8.304
 3299TIP3   OH231531   5.438   5.796   1.503
 3299TIP3    H131532   5.370   5.728   1.505
 3299TIP3    H231533   5.520   5.747   1.501
 3300TIP3   OH231534   3.192   0.452   0.849
 3300TIP3    H131535   3.191   0.358   0.867
 3300TIP3    H231536   3.188   0.458   0.754
 3301TIP3   OH231537   0.624   2.591   1.368
 3301TIP3    H131538   0.655   2.652   1.302
 3301TIP3    H231539   0.648   2.504   1.334
 3302TIP3   OH231540   0.947   0.969   8.617
 3302TIP3    H131541   0.899   0.890   8.590
 3302TIP3    H231542   1.038   0.942   8.620
 3303TIP3   OH231543   2.854   6.251   0.748
 3303TIP3    H131544   2.847   6.344   0.766
 3303TIP3    H231545   2.772   6.229   0.704
 3304TIP3   OH231546   5.040   3.922   1.225
 3304TIP3    H131547   5.053   4.004   1.176
 3304TIP3    H231548   5.108   3.923   1.292
 3305TIP3   OH231549   1.236   0.076   2.274
 3305TIP3    H131550   1.211   0.065   2.182
 3305TIP3    H231551   1.284   0.159   2.276
 3306TIP3   OH231552   0.687   5.069   7.597
 3306TIP3    H131553   0.608   5.051   7.547
 3306TIP3    H231554   0.700   4.992   7.652
 3307TIP3   OH231555   1.459   4.933   6.846
 3307TIP3    H131556   1.521   4.968   6.782
 3307TIP3    H231557   1.435   5.008   6.900
 3308TIP3   OH231558   1.723   4.395   0.560
 3308TIP3    H131559   1.775   4.365   0.485
 3308TIP3    H231560   1.707   4.315   0.611
 3309TIP3   OH231561   2.412   4.310   1.098
 3309TIP3    H131562   2.382   4.239   1.041
 3309TIP3    H231563   2.331   4.351   1.130
 3310TIP3   OH231564   2.829   0.560   8.202
 3310TIP3    H131565   2.803   0.643   8.243
 3310TIP3    H231566   2.749   0.525   8.164
 3311TIP3   OH231567   3.411   4.746   7.767
 3311TIP3    H131568   3.471   4.672   7.781
 3311TIP3    H231569   3.335   4.708   7.725
 3312TIP3   OH231570   4.120   5.783   8.095
 3312TIP3    H131571   4.049   5.790   8.158
 3312TIP3    H231572   4.197   5.817   8.141
 3313TIP3   OH231573   3.261   1.193   0.974
 3313TIP3    H131574   3.183   1.154   1.014
 3313TIP3    H231575   3.327   1.124   0.978
 3314TIP3   OH231576   5.078   2.668   6.667
 3314TIP3    H131577   5.034   2.749   6.691
 3314TIP3    H231578   5.160   2.696   6.627
 3315TIP3   OH231579   5.426   0.984   7.492
 3315TIP3    H131580   5.487   1.052   7.463
 3315TIP3    H231581   5.417   0.998   7.587
 3316TIP3   OH231582   2.800   2.706   1.728
 3316TIP3    H131583   2.720   2.700   1.676
 3316TIP3    H231584   2.852   2.629   1.702
 3317TIP3   OH231585   2.849   4.864   0.987
 3317TIP3    H131586   2.929   4.910   1.013
 3317TIP3    H231587   2.786   4.885   1.056
 3318TIP3   OH231588   3.163   6.075   1.040
 3318TIP3    H131589   3.172   6.007   1.107
 3318TIP3    H231590   3.107   6.141   1.080
 3319TIP3   OH231591   4.403   0.895   8.486
 3319TIP3    H131592   4.413   0.800   8.496
 3319TIP3    H231593   4.364   0.906   8.400
 3320TIP3   OH231594   6.576   4.000   0.462
 3320TIP3    H131595   6.520   4.077   0.468
 3320TIP3    H231596   6.597   3.993   0.369
 3321TIP3   OH231597   3.565   5.804   0.440
 3321TIP3    H131598   3.608   5.860   0.375
 3321TIP3    H231599   3.473   5.801   0.412
 3322TIP3   OH231600   3.028   4.410   7.477
 3322TIP3    H131601   3.003   4.371   7.560
 3322TIP3    H231602   3.065   4.337   7.426
 3323TIP3   OH231603   2.664   2.022   0.340
 3323TIP3    H131604   2.755   2.007   0.365
 3323TIP3    H231605   2.628   1.934   0.327
 3324TIP3   OH231606   5.951   2.173   8.021
 3324TIP3    H131607   5.888   2.156   8.091
 3324TIP3    H231608   5.998   2.252   8.049
 3325TIP3   OH231609   4.671   5.163   1.921
 3325TIP3    H131610   4.595   5.221   1.925
 3325TIP3    H231611   4.711   5.170   2.008
 3326TIP3   OH231612   5.393   4.153   7.074
 3326TIP3    H131613   5.319   4.154   7.013
 3326TIP3    H231614   5.467   4.123   7.021
 3327TIP3   OH231615   2.828   0.645   7.674
 3327TIP3    H131616   2.754   0.661   7.615
 3327TIP3    H231617   2.881   0.724   7.666
 3328TIP3   OH231618   3.663   1.893   8.700
 3328TIP3    H131619   3.661   1.919   8.792
 3328TIP3    H231620   3.614   1.811   8.696
 3329TIP3   OH231621   2.173   3.323   0.287
 3329TIP3    H131622   2.078   3.321   0.292
 3329TIP3    H231623   2.201   3.365   0.368
 3330TIP3   OH231624   2.634   1.266   8.592
 3330TIP3    H131625   2.563   1.273   8.528
 3330TIP3    H231626   2.605   1.199   8.653
 3331TIP3   OH231627   3.034   4.245   6.899
 3331TIP3    H131628   3.128   4.234   6.890
 3331TIP3    H231629   3.004   4.162   6.937
 3332TIP3   OH231630   2.708   0.434   0.147
 3332TIP3    H131631   2.758   0.361   0.181
 3332TIP3    H231632   2.743   0.511   0.193
 3333TIP3   OH231633   5.765   3.706   2.055
 3333TIP3    H131634   5.784   3.760   2.131
 3333TIP3    H231635   5.686   3.745   2.016
 3334TIP3   OH231636   4.872   1.160   6.577
 3334TIP3    H131637   4.831   1.108   6.508
 3334TIP3    H231638   4.940   1.103   6.613
 3335TIP3   OH231639   1.761   1.965   8.886
 3335TIP3    H131640   1.740   1.874   8.910
 3335TIP3    H231641   1.681   1.997   8.844
 3336TIP3   OH231642   5.678   3.266   7.169
 3336TIP3    H131643   5.613   3.261   7.099
 3336TIP3    H231644   5.762   3.254   7.125
 3337TIP3   OH231645   2.438   5.716   1.768
 3337TIP3    H131646   2.403   5.800   1.740
 3337TIP3    H231647   2.481   5.681   1.690
 3338TIP3   OH231648   4.126   3.993   8.792
 3338TIP3    H131649   4.048   3.947   8.762
 3338TIP3    H231650   4.180   3.926   8.832
 3339TIP3   OH231651   2.557   5.197   1.314
 3339TIP3    H131652   2.474   5.240   1.290
 3339TIP3    H231653   2.602   5.261   1.369
 3340TIP3   OH231654   4.474   4.947   2.537
 3340TIP3    H131655   4.469   4.856   2.509
 3340TIP3    H231656   4.443   4.946   2.628
 3341TIP3   OH231657   2.649   1.778   8.972
 3341TIP3    H131658   2.568   1.727   8.982
 3341TIP3    H231659   2.657   1.792   8.878
 3342TIP3   OH231660   3.668   0.377   8.915
 3342TIP3    H131661   3.750   0.358   8.869
 3342TIP3    H231662   3.695   0.406   9.002
 3343TIP3   OH231663   4.358   4.291   8.526
 3343TIP3    H131664   4.390   4.234   8.596
 3343TIP3    H231665   4.424   4.284   8.457
 3344TIP3   OH231666   4.761   6.781   8.563
 3344TIP3    H131667   4.775   6.876   8.567
 3344TIP3    H231668   4.760   6.761   8.470
 3345TIP3   OH231669   0.318   2.223   7.082
 3345TIP3    H131670   0.316   2.130   7.105
 3345TIP3    H231671   0.341   2.224   6.989
 3346TIP3   OH231672   1.994   2.739   8.596
 3346TIP3    H131673   2.063   2.729   8.531
 3346TIP3    H231674   2.037   2.778   8.672
 3347TIP3   OH231675   6.152   5.251   2.004
 3347TIP3    H131676   6.170   5.224   2.095
 3347TIP3    H231677   6.065   5.217   1.985
 3348TIP3   OH231678   1.505   1.638   8.979
 3348TIP3    H131679   1.592   1.673   8.994
 3348TIP3    H231680   1.456   1.712   8.942
 3349TIP3   OH231681   6.667   0.385   0.986
 3349TIP3    H131682   6.597   0.416   1.045
 3349TIP3    H231683   6.620   0.354   0.908
 3350TIP3   OH231684   6.389   4.177   0.272
 3350TIP3    H131685   6.405   4.163   0.179
 3350TIP3    H231686   6.351   4.095   0.303
 3351TIP3   OH231687   0.606   6.028   7.469
 3351TIP3    H131688   0.516   6.000   7.451
 3351TIP3    H231689   0.657   5.994   7.395
 3352TIP3   OH231690   2.462   3.465   0.692
 3352TIP3    H131691   2.401   3.394   0.669
 3352TIP3    H231692   2.408   3.529   0.739
 3353TIP3   OH231693   2.334   1.880   1.364
 3353TIP3    H131694   2.345   1.863   1.270
 3353TIP3    H231695   2.357   1.972   1.374
 3354TIP3   OH231696   0.644   2.141   7.193
 3354TIP3    H131697   0.595   2.175   7.268
 3354TIP3    H231698   0.653   2.216   7.135
 3355TIP3   OH231699   4.605   2.292   7.855
 3355TIP3    H131700   4.614   2.275   7.949
 3355TIP3    H231701   4.513   2.312   7.843
 3356TIP3   OH231702   1.866   3.436   6.826
 3356TIP3    H131703   1.831   3.524   6.839
 3356TIP3    H231704   1.928   3.445   6.754
 3357TIP3   OH231705   0.660   5.756   2.495
 3357TIP3    H131706   0.719   5.740   2.568
 3357TIP3    H231707   0.681   5.845   2.466
 3358TIP3   OH231708   3.449   0.712   8.254
 3358TIP3    H131709   3.540   0.705   8.283
 3358TIP3    H231710   3.408   0.772   8.317
 3359TIP3   OH231711   5.952   3.806   7.701
 3359TIP3    H131712   5.913   3.829   7.785
 3359TIP3    H231713   6.043   3.786   7.722
 3360TIP3   OH231714   3.491   5.212   7.550
 3360TIP3    H131715   3.502   5.227   7.644
 3360TIP3    H231716   3.400   5.184   7.540
 3361TIP3   OH231717   2.985   5.325   2.081
 3361TIP3    H131718   2.958   5.288   2.165
 3361TIP3    H231719   3.020   5.251   2.032
 3362TIP3   OH231720   4.697   3.915   1.660
 3362TIP3    H131721   4.669   3.831   1.626
 3362TIP3    H231722   4.711   3.970   1.582
 3363TIP3   OH231723   1.650   1.053   7.653
 3363TIP3    H131724   1.691   1.140   7.654
 3363TIP3    H231725   1.724   0.992   7.652
 3364TIP3   OH231726   5.167   2.933   0.531
 3364TIP3    H131727   5.258   2.957   0.550
 3364TIP3    H231728   5.173   2.858   0.472
 3365TIP3   OH231729   0.748   2.067   2.283
 3365TIP3    H131730   0.771   2.126   2.212
 3365TIP3    H231731   0.826   2.068   2.340
 3366TIP3   OH231732   4.291   0.924   0.814
 3366TIP3    H131733   4.226   0.966   0.758
 3366TIP3    H231734   4.319   0.994   0.874
 3367TIP3   OH231735   1.529   3.257   8.819
 3367TIP3    H131736   1.608   3.306   8.841
 3367TIP3    H231737   1.457   3.307   8.858
 3368TIP3   OH231738   6.348   6.083   2.152
 3368TIP3    H131739   6.311   6.041   2.230
 3368TIP3    H231740   6.371   6.010   2.094
 3369TIP3   OH231741   0.634   2.036   0.377
 3369TIP3    H131742   0.554   1.985   0.381
 3369TIP3    H231743   0.699   1.976   0.340
 3370TIP3   OH231744   5.938   5.206   7.334
 3370TIP3    H131745   6.027   5.205   7.297
 3370TIP3    H231746   5.884   5.166   7.266
 3371TIP3   OH231747   2.544   4.085   8.071
 3371TIP3    H131748   2.480   4.020   8.042
 3371TIP3    H231749   2.628   4.042   8.061
 3372TIP3   OH231750   4.545   5.870   8.938
 3372TIP3    H131751   4.534   5.777   8.959
 3372TIP3    H231752   4.564   5.871   8.844
 3373TIP3   OH231753   5.760   1.638   0.838
 3373TIP3    H131754   5.667   1.655   0.855
 3373TIP3    H231755   5.769   1.643   0.743
 3374TIP3   OH231756   2.475   6.739   8.383
 3374TIP3    H131757   2.569   6.746   8.363
 3374TIP3    H231758   2.444   6.669   8.325
 3375TIP3   OH231759   4.645   4.984   8.032
 3375TIP3    H131760   4.551   4.972   8.040
 3375TIP3    H231761   4.676   4.989   8.123
 3376TIP3   OH231762   2.672   3.798   8.581
 3376TIP3    H131763   2.750   3.828   8.627
 3376TIP3    H231764   2.618   3.757   8.648
 3377TIP3   OH231765   3.044   4.760   1.550
 3377TIP3    H131766   3.087   4.841   1.576
 3377TIP3    H231767   3.079   4.693   1.608
 3378TIP3   OH231768   3.165   2.596   7.888
 3378TIP3    H131769   3.230   2.665   7.874
 3378TIP3    H231770   3.207   2.535   7.949
 3379TIP3   OH231771   3.744   1.602   0.373
 3379TIP3    H131772   3.811   1.670   0.380
 3379TIP3    H231773   3.757   1.563   0.287
 3380TIP3   OH231774   4.571   1.094   1.822
 3380TIP3    H131775   4.488   1.079   1.867
 3380TIP3    H231776   4.602   1.178   1.857
 3381TIP3   OH231777   6.461   2.097   0.552
 3381TIP3    H131778   6.371   2.106   0.585
 3381TIP3    H231779   6.451   2.052   0.468
 3382TIP3   OH231780   5.797   3.673   8.468
 3382TIP3    H131781   5.799   3.577   8.466
 3382TIP3    H231782   5.882   3.697   8.505
 3383TIP3   OH231783   3.793   3.892   0.905
 3383TIP3    H131784   3.744   3.889   0.988
 3383TIP3    H231785   3.882   3.869   0.929
 3384TIP3   OH231786   6.753   5.210   7.472
 3384TIP3    H131787   6.776   5.302   7.479
 3384TIP3    H231788   6.703   5.192   7.552
 3385TIP3   OH231789   4.459   3.740   6.994
 3385TIP3    H131790   4.516   3.813   7.019
 3385TIP3    H231791   4.381   3.751   7.047
 3386TIP3   OH231792   2.896   4.368   0.785
 3386TIP3    H131793   2.866   4.408   0.866
 3386TIP3    H231794   2.970   4.313   0.812
 3387TIP3   OH231795   2.854   1.467   1.701
 3387TIP3    H131796   2.882   1.386   1.744
 3387TIP3    H231797   2.803   1.512   1.768
 3388TIP3   OH231798   2.702   1.341   7.320
 3388TIP3    H131799   2.621   1.349   7.370
 3388TIP3    H231800   2.713   1.426   7.278
 3389TIP3   OH231801   0.849   3.887   6.936
 3389TIP3    H131802   0.809   3.819   6.883
 3389TIP3    H231803   0.894   3.943   6.873
 3390TIP3   OH231804   3.448   5.012   2.095
 3390TIP3    H131805   3.401   4.955   2.155
 3390TIP3    H231806   3.458   5.094   2.142
 3391TIP3   OH231807   0.544   2.716   1.887
 3391TIP3    H131808   0.536   2.731   1.981
 3391TIP3    H231809   0.460   2.744   1.851
 3392TIP3   OH231810   3.980   0.835   7.515
 3392TIP3    H131811   3.950   0.760   7.566
 3392TIP3    H231812   3.904   0.860   7.462
 3393TIP3   OH231813   3.884   6.714   7.118
 3393TIP3    H131814   3.847   6.686   7.035
 3393TIP3    H231815   3.829   6.788   7.145
 3394TIP3   OH231816   0.314   3.897   8.502
 3394TIP3    H131817   0.323   3.829   8.569
 3394TIP3    H231818   0.375   3.870   8.433
 3395TIP3   OH231819   5.490   0.912   0.018
 3395TIP3    H131820   5.424   0.932  -0.048
 3395TIP3    H231821   5.555   0.859  -0.028
 3396TIP3   OH231822   0.221   3.726   1.760
 3396TIP3    H131823   0.132   3.695   1.773
 3396TIP3    H231824   0.271   3.685   1.831
 3397TIP3   OH231825   4.174   2.296   6.875
 3397TIP3    H131826   4.160   2.377   6.827
 3397TIP3    H231827   4.262   2.269   6.851
 3398TIP3   OH231828   4.460   2.222   2.378
 3398TIP3    H131829   4.549   2.210   2.343
 3398TIP3    H231830   4.463   2.307   2.422
 3399TIP3   OH231831   2.438   2.784   7.235
 3399TIP3    H131832   2.403   2.861   7.189
 3399TIP3    H231833   2.526   2.810   7.263
 3400TIP3   OH231834   5.382   0.703   8.322
 3400TIP3    H131835   5.357   0.617   8.289
 3400TIP3    H231836   5.472   0.716   8.290
 3401TIP3   OH231837   2.188   2.334   7.343
 3401TIP3    H131838   2.260   2.384   7.306
 3401TIP3    H231839   2.112   2.356   7.289
 3402TIP3   OH231840   2.237   0.275   0.844
 3402TIP3    H131841   2.247   0.294   0.937
 3402TIP3    H231842   2.143   0.265   0.831
 3403TIP3   OH231843   1.000   3.144   6.960
 3403TIP3    H131844   1.036   3.205   6.896
 3403TIP3    H231845   0.949   3.200   7.019
 3404TIP3   OH231846   4.591   1.846   0.101
 3404TIP3    H131847   4.563   1.883   0.185
 3404TIP3    H231848   4.509   1.823   0.057
 3405TIP3   OH231849   2.755   5.931   7.581
 3405TIP3    H131850   2.783   5.840   7.596
 3405TIP3    H231851   2.677   5.923   7.526
 3406TIP3   OH231852   2.279   2.451   8.329
 3406TIP3    H131853   2.302   2.368   8.286
 3406TIP3    H231854   2.342   2.460   8.400
 3407TIP3   OH231855   2.129   3.560   0.498
 3407TIP3    H131856   2.137   3.652   0.520
 3407TIP3    H231857   2.050   3.554   0.444
 3408TIP3   OH231858   6.682   2.504   7.588
 3408TIP3    H131859   6.617   2.569   7.614
 3408TIP3    H231860   6.696   2.452   7.667
 3409TIP3   OH231861   0.568   1.265   8.203
 3409TIP3    H131862   0.531   1.184   8.167
 3409TIP3    H231863   0.496   1.304   8.253
 3410TIP3   OH231864   4.229   5.711   7.635
 3410TIP3    H131865   4.277   5.638   7.596
 3410TIP3    H231866   4.151   5.721   7.581
 3411TIP3   OH231867   1.485   2.720   1.334
 3411TIP3    H131868   1.476   2.660   1.259
 3411TIP3    H231869   1.402   2.714   1.380
 3412TIP3   OH231870   5.646   4.598   1.667
 3412TIP3    H131871   5.639   4.691   1.688
 3412TIP3    H231872   5.597   4.554   1.737
 3413TIP3   OH231873   4.178   2.750   0.606
 3413TIP3    H131874   4.121   2.786   0.675
 3413TIP3    H231875   4.261   2.796   0.618
 3414TIP3   OH231876   5.134   0.165   1.585
 3414TIP3    H131877   5.212   0.216   1.564
 3414TIP3    H231878   5.139   0.088   1.527
 3415TIP3   OH231879   4.248   1.217   1.377
 3415TIP3    H131880   4.179   1.263   1.330
 3415TIP3    H231881   4.250   1.129   1.337
 3416TIP3   OH231882   6.118   5.987   8.133
 3416TIP3    H131883   6.084   6.064   8.086
 3416TIP3    H231884   6.127   6.017   8.224
 3417TIP3   OH231885   5.692   1.127   0.674
 3417TIP3    H131886   5.649   1.143   0.759
 3417TIP3    H231887   5.635   1.169   0.610
 3418TIP3   OH231888   1.037   1.374   0.411
 3418TIP3    H131889   1.101   1.343   0.476
 3418TIP3    H231890   1.001   1.454   0.450
 3419TIP3   OH231891   5.314   5.946   6.747
 3419TIP3    H131892   5.220   5.967   6.742
 3419TIP3    H231893   5.317   5.858   6.783
 3420TIP3   OH231894   1.847   1.645   2.286
 3420TIP3    H131895   1.794   1.670   2.210
 3420TIP3    H231896   1.935   1.678   2.266
 3421TIP3   OH231897   4.268   1.788   6.753
 3421TIP3    H131898   4.258   1.800   6.848
 3421TIP3    H231899   4.188   1.743   6.726
 3422TIP3   OH231900   4.514   5.545   7.816
 3422TIP3    H131901   4.439   5.597   7.843
 3422TIP3    H231902   4.525   5.564   7.723
 3423TIP3   OH231903   2.244   5.404   7.953
 3423TIP3    H131904   2.281   5.383   7.866
 3423TIP3    H231905   2.215   5.495   7.945
 3424TIP3   OH231906   2.429   6.207   7.707
 3424TIP3    H131907   2.507   6.163   7.739
 3424TIP3    H231908   2.458   6.295   7.685
 3425TIP3   OH231909   3.227   3.360   6.896
 3425TIP3    H131910   3.160   3.310   6.849
 3425TIP3    H231911   3.241   3.438   6.843
 3426TIP3   OH231912   3.739   6.419   1.652
 3426TIP3    H131913   3.834   6.416   1.637
 3426TIP3    H231914   3.707   6.337   1.615
 3427TIP3   OH231915   6.335   3.389   7.089
 3427TIP3    H131916   6.311   3.480   7.070
 3427TIP3    H231917   6.293   3.370   7.173
 3428TIP3   OH231918   0.826   5.837   7.725
 3428TIP3    H131919   0.830   5.786   7.806
 3428TIP3    H231920   0.911   5.880   7.720
 3429TIP3   OH231921   6.120   0.526   0.896
 3429TIP3    H131922   6.054   0.477   0.945
 3429TIP3    H231923   6.086   0.530   0.807
 3430TIP3   OH231924   2.154   1.607   1.035
 3430TIP3    H131925   2.232   1.578   0.988
 3430TIP3    H231926   2.081   1.563   0.991
 3431TIP3   OH231927   2.149   4.632   8.777
 3431TIP3    H131928   2.168   4.647   8.685
 3431TIP3    H231929   2.114   4.716   8.808
 3432TIP3   OH231930   0.007   0.628   0.115
 3432TIP3    H131931   0.074   0.637   0.047
 3432TIP3    H231932   0.051   0.656   0.195
 3433TIP3   OH231933   6.719   1.678   0.383
 3433TIP3    H131934   6.733   1.608   0.448
 3433TIP3    H231935   6.797   1.732   0.390
 3434TIP3   OH231936   6.345   2.193   6.541
 3434TIP3    H131937   6.309   2.269   6.495
 3434TIP3    H231938   6.436   2.216   6.558
 3435TIP3   OH231939   3.571   1.067   8.876
 3435TIP3    H131940   3.492   1.013   8.873
 3435TIP3    H231941   3.634   1.013   8.924
 3436TIP3   OH231942   3.067   2.503   7.000
 3436TIP3    H131943   3.136   2.568   6.983
 3436TIP3    H231944   2.999   2.523   6.935
 3437TIP3   OH231945   6.216   3.741   7.620
 3437TIP3    H131946   6.213   3.652   7.653
 3437TIP3    H231947   6.207   3.733   7.525
 3438TIP3   OH231948   2.435   6.514   7.859
 3438TIP3    H131949   2.507   6.535   7.799
 3438TIP3    H231950   2.442   6.420   7.873
 3439TIP3   OH231951   6.246   1.419   7.189
 3439TIP3    H131952   6.326   1.424   7.136
 3439TIP3    H231953   6.175   1.420   7.124
 3440TIP3   OH231954   1.307   2.713   2.382
 3440TIP3    H131955   1.391   2.750   2.409
 3440TIP3    H231956   1.245   2.740   2.450
 3441TIP3   OH231957   0.535   2.260   8.074
 3441TIP3    H131958   0.491   2.296   8.151
 3441TIP3    H231959   0.468   2.257   8.007
 3442TIP3   OH231960   5.375   5.629   1.233
 3442TIP3    H131961   5.470   5.628   1.243
 3442TIP3    H231962   5.347   5.541   1.260
 3443TIP3   OH231963   1.120   4.921   2.389
 3443TIP3    H131964   1.196   4.975   2.413
 3443TIP3    H231965   1.144   4.882   2.305
 3444TIP3   OH231966   3.704   1.170   1.013
 3444TIP3    H131967   3.695   1.101   1.079
 3444TIP3    H231968   3.693   1.252   1.062
 3445TIP3   OH231969   3.025   1.652   8.577
 3445TIP3    H131970   3.024   1.556   8.579
 3445TIP3    H231971   3.063   1.673   8.491
 3446TIP3   OH231972   3.679   0.493   0.772
 3446TIP3    H131973   3.641   0.459   0.853
 3446TIP3    H231974   3.607   0.539   0.729
 3447TIP3   OH231975   6.320   1.922   0.026
 3447TIP3    H131976   6.232   1.887   0.039
 3447TIP3    H231977   6.321   1.951  -0.065
 3448TIP3   OH231978   4.114   4.521   8.904
 3448TIP3    H131979   4.158   4.506   8.988
 3448TIP3    H231980   4.095   4.433   8.871
 3449TIP3   OH231981   0.130   5.731   2.590
 3449TIP3    H131982   0.058   5.703   2.647
 3449TIP3    H231983   0.206   5.682   2.623
 3450TIP3   OH231984   0.133   4.210   8.724
 3450TIP3    H131985   0.085   4.256   8.655
 3450TIP3    H231986   0.147   4.277   8.791
 3451TIP3   OH231987   6.025   0.619   7.238
 3451TIP3    H131988   6.048   0.708   7.265
 3451TIP3    H231989   5.998   0.576   7.319
 3452TIP3   OH231990   2.041   1.334   0.028
 3452TIP3    H131991   2.098   1.300   0.097
 3452TIP3    H231992   2.063   1.427   0.023
 3453TIP3   OH231993   4.129   6.051   8.592
 3453TIP3    H131994   4.084   5.967   8.581
 3453TIP3    H231995   4.103   6.081   8.679
 3454TIP3   OH231996   4.843   4.407   0.890
 3454TIP3    H131997   4.864   4.479   0.830
 3454TIP3    H231998   4.869   4.439   0.976
 3455TIP3   OH231999   5.221   2.155   7.261
 3455TIP3    H132000   5.194   2.069   7.230
 3455TIP3    H232001   5.265   2.139   7.344
 3456TIP3   OH232002   3.282   5.291   6.363
 3456TIP3    H132003   3.302   5.334   6.280
 3456TIP3    H232004   3.365   5.255   6.392
 3457TIP3   OH232005   3.811   4.253   8.766
 3457TIP3    H132006   3.765   4.327   8.727
 3457TIP3    H232007   3.782   4.177   8.717
 3458TIP3   OH232008   1.728   0.795   6.777
 3458TIP3    H132009   1.646   0.843   6.761
 3458TIP3    H232010   1.703   0.702   6.769
 3459TIP3   OH232011   4.276   6.484   1.016
 3459TIP3    H132012   4.329   6.482   0.937
 3459TIP3    H232013   4.304   6.407   1.066
 3460TIP3   OH232014   5.040   1.969   1.098
 3460TIP3    H132015   4.946   1.976   1.111
 3460TIP3    H232016   5.063   2.047   1.048
 3461TIP3   OH232017   2.191   5.164   7.375
 3461TIP3    H132018   2.285   5.156   7.359
 3461TIP3    H232019   2.158   5.074   7.369
 3462TIP3   OH232020   6.355   3.175   8.264
 3462TIP3    H132021   6.372   3.154   8.172
 3462TIP3    H232022   6.426   3.236   8.288
 3463TIP3   OH232023   2.565   4.787   6.802
 3463TIP3    H132024   2.548   4.786   6.708
 3463TIP3    H232025   2.607   4.702   6.819
 3464TIP3   OH232026   4.965   5.976   8.029
 3464TIP3    H132027   4.905   6.046   8.055
 3464TIP3    H232028   4.993   5.937   8.112
 3465TIP3   OH232029   0.251   2.127   1.377
 3465TIP3    H132030   0.280   2.179   1.452
 3465TIP3    H232031   0.270   2.182   1.301
 3466TIP3   OH232032   4.688   4.968   0.909
 3466TIP3    H132033   4.606   4.986   0.956
 3466TIP3    H232034   4.753   5.022   0.953
 3467TIP3   OH232035   4.442   6.392   7.802
 3467TIP3    H132036   4.427   6.449   7.878
 3467TIP3    H232037   4.432   6.451   7.726
 3468TIP3   OH232038   1.775   0.254   1.422
 3468TIP3    H132039   1.763   0.330   1.366
 3468TIP3    H232040   1.735   0.181   1.374
 3469TIP3   OH232041   1.829   4.953   8.161
 3469TIP3    H132042   1.746   4.948   8.209
 3469TIP3    H232043   1.861   5.042   8.178
 3470TIP3   OH232044   4.540   6.114   1.220
 3470TIP3    H132045   4.514   6.206   1.219
 3470TIP3    H232046   4.591   6.102   1.140
 3471TIP3   OH232047   2.084   2.939   0.681
 3471TIP3    H132048   1.998   2.980   0.692
 3471TIP3    H232049   2.066   2.845   0.680
 3472TIP3   OH232050   2.319   5.599   8.686
 3472TIP3    H132051   2.364   5.618   8.768
 3472TIP3    H232052   2.389   5.586   8.622
 3473TIP3   OH232053   4.011   2.269   8.179
 3473TIP3    H132054   3.982   2.304   8.264
 3473TIP3    H232055   4.069   2.337   8.145
 3474TIP3   OH232056   3.967   0.330   0.243
 3474TIP3    H132057   3.917   0.253   0.217
 3474TIP3    H232058   3.911   0.375   0.306
 3475TIP3   OH232059   6.269   3.388   1.804
 3475TIP3    H132060   6.346   3.398   1.861
 3475TIP3    H232061   6.303   3.407   1.716
 3476TIP3   OH232062   4.426   0.645   6.612
 3476TIP3    H132063   4.356   0.618   6.553
 3476TIP3    H232064   4.415   0.589   6.689
 3477TIP3   OH232065   0.103   2.912   7.682
 3477TIP3    H132066   0.037   2.970   7.720
 3477TIP3    H232067   0.079   2.825   7.713
 3478TIP3   OH232068   0.333   1.995   0.248
 3478TIP3    H132069   0.353   1.915   0.199
 3478TIP3    H232070   0.346   2.066   0.185
 3479TIP3   OH232071   5.506   1.316   8.577
 3479TIP3    H132072   5.431   1.269   8.615
 3479TIP3    H232073   5.580   1.288   8.631
 3480TIP3   OH232074   6.629   2.457   0.856
 3480TIP3    H132075   6.686   2.442   0.781
 3480TIP3    H232076   6.544   2.421   0.831
 3481TIP3   OH232077   0.376   2.289   6.831
 3481TIP3    H132078   0.338   2.374   6.806
 3481TIP3    H232079   0.470   2.302   6.825
 3482TIP3   OH232080   6.358   4.610   0.003
 3482TIP3    H132081   6.326   4.699   0.019
 3482TIP3    H232082   6.288   4.554   0.036
 3483TIP3   OH232083   0.865   4.142   1.425
 3483TIP3    H132084   0.888   4.220   1.375
 3483TIP3    H232085   0.843   4.077   1.358
 3484TIP3   OH232086   5.040   4.534   1.444
 3484TIP3    H132087   5.095   4.604   1.477
 3484TIP3    H232088   4.958   4.542   1.492
 3485TIP3   OH232089   3.014   3.846   0.632
 3485TIP3    H132090   2.972   3.850   0.546
 3485TIP3    H232091   2.976   3.919   0.681
 3486TIP3   OH232092   2.067   5.221   2.175
 3486TIP3    H132093   2.127   5.184   2.110
 3486TIP3    H232094   1.993   5.160   2.175
 3487TIP3   OH232095   3.119   6.432   0.809
 3487TIP3    H132096   3.169   6.354   0.833
 3487TIP3    H232097   3.067   6.452   0.887
 3488TIP3   OH232098   2.522   5.630   7.457
 3488TIP3    H132099   2.576   5.605   7.381
 3488TIP3    H232100   2.433   5.609   7.430
 3489TIP3   OH232101   6.359   6.043   6.881
 3489TIP3    H132102   6.280   5.992   6.868
 3489TIP3    H232103   6.368   6.051   6.976
 3490TIP3   OH232104   2.737   2.648   7.379
 3490TIP3    H132105   2.694   2.655   7.465
 3490TIP3    H232106   2.822   2.610   7.397
 3491TIP3   OH232107   1.657   2.997   0.472
 3491TIP3    H132108   1.633   2.921   0.526
 3491TIP3    H232109   1.573   3.030   0.440
 3492TIP3   OH232110   2.544   2.683   1.851
 3492TIP3    H132111   2.500   2.763   1.824
 3492TIP3    H232112   2.637   2.705   1.849
 3493TIP3   OH232113   2.530   2.852   8.021
 3493TIP3    H132114   2.615   2.847   8.065
 3493TIP3    H232115   2.479   2.780   8.058
 3494TIP3   OH232116   3.917   4.338   8.377
 3494TIP3    H132117   3.945   4.330   8.469
 3494TIP3    H232118   3.916   4.248   8.345
 3495TIP3   OH232119   2.843   5.815   6.221
 3495TIP3    H132120   2.808   5.902   6.239
 3495TIP3    H232121   2.778   5.774   6.164
 3496TIP3   OH232122   3.726   4.385   1.244
 3496TIP3    H132123   3.785   4.313   1.225
 3496TIP3    H232124   3.727   4.392   1.340
 3497TIP3   OH232125   4.880   3.564   6.708
 3497TIP3    H132126   4.936   3.552   6.784
 3497TIP3    H232127   4.875   3.477   6.668
 3498TIP3   OH232128   4.184   2.459   8.113
 3498TIP3    H132129   4.270   2.474   8.073
 3498TIP3    H232130   4.122   2.468   8.041
 3499TIP3   OH232131   3.271   4.050   7.426
 3499TIP3    H132132   3.243   4.069   7.337
 3499TIP3    H232133   3.275   3.954   7.430
 3500TIP3   OH232134   5.785   4.423   0.171
 3500TIP3    H132135   5.744   4.421   0.257
 3500TIP3    H232136   5.845   4.348   0.171
 3501TIP3   OH232137   0.276   5.323   1.284
 3501TIP3    H132138   0.344   5.340   1.349
 3501TIP3    H232139   0.318   5.343   1.200
 3502TIP3   OH232140   6.300   2.695   2.330
 3502TIP3    H132141   6.273   2.604   2.344
 3502TIP3    H232142   6.245   2.746   2.388
 3503TIP3   OH232143   0.006   6.401   1.101
 3503TIP3    H132144  -0.001   6.327   1.041
 3503TIP3    H232145   0.035   6.474   1.046
 3504TIP3   OH232146   5.885   0.380   1.592
 3504TIP3    H132147   5.810   0.344   1.544
 3504TIP3    H232148   5.882   0.474   1.574
 3505TIP3   OH232149   3.481   6.002   8.751
 3505TIP3    H132150   3.439   5.922   8.723
 3505TIP3    H232151   3.441   6.022   8.836
 3506TIP3   OH232152   2.364   1.858   7.248
 3506TIP3    H132153   2.437   1.869   7.309
 3506TIP3    H232154   2.406   1.833   7.165
 3507TIP3   OH232155   4.858   4.748   1.115
 3507TIP3    H132156   4.897   4.785   1.194
 3507TIP3    H232157   4.884   4.807   1.044
 3508TIP3   OH232158   5.616   5.632   7.197
 3508TIP3    H132159   5.615   5.537   7.186
 3508TIP3    H232160   5.565   5.648   7.275
 3509TIP3   OH232161   4.117   5.012   0.711
 3509TIP3    H132162   4.062   4.969   0.646
 3509TIP3    H232163   4.133   4.945   0.777
 3510TIP3   OH232164   1.714   6.064   0.738
 3510TIP3    H132165   1.730   6.012   0.817
 3510TIP3    H232166   1.780   6.035   0.676
 3511TIP3   OH232167   4.141   0.377   6.686
 3511TIP3    H132168   4.104   0.417   6.607
 3511TIP3    H232169   4.116   0.284   6.679
 3512TIP3   OH232170   4.232   5.761   1.333
 3512TIP3    H132171   4.193   5.827   1.390
 3512TIP3    H232172   4.228   5.680   1.384
 3513TIP3   OH232173   3.593   4.104   7.530
 3513TIP3    H132174   3.543   4.115   7.449
 3513TIP3    H232175   3.574   4.014   7.557
 3514TIP3   OH232176   5.677   0.228   7.964
 3514TIP3    H132177   5.746   0.290   7.985
 3514TIP3    H232178   5.712   0.143   7.991
 3515TIP3   OH232179   3.725   2.254   0.196
 3515TIP3    H132180   3.679   2.301   0.127
 3515TIP3    H232181   3.660   2.241   0.265
 3516TIP3   OH232182   0.512   1.309   1.095
 3516TIP3    H132183   0.598   1.266   1.093
 3516TIP3    H232184   0.512   1.356   1.178
 3517TIP3   OH232185   0.543   5.528   8.625
 3517TIP3    H132186   0.571   5.456   8.570
 3517TIP3    H232187   0.585   5.512   8.709
 3518TIP3   OH232188   1.078   6.669   0.189
 3518TIP3    H132189   1.038   6.594   0.234
 3518TIP3    H232190   1.097   6.731   0.259
 3519TIP3   OH232191   3.997   0.555   0.735
 3519TIP3    H132192   3.946   0.621   0.781
 3519TIP3    H232193   4.086   0.563   0.771
 3520TIP3   OH232194   3.357   5.752   0.971
 3520TIP3    H132195   3.415   5.678   0.957
 3520TIP3    H232196   3.413   5.829   0.960
 3521TIP3   OH232197   0.717   5.410   1.305
 3521TIP3    H132198   0.699   5.494   1.347
 3521TIP3    H232199   0.794   5.376   1.350
 3522TIP3   OH232200   1.570   4.367   7.460
 3522TIP3    H132201   1.598   4.295   7.403
 3522TIP3    H232202   1.475   4.363   7.459
 3523TIP3   OH232203   0.951   3.902   8.312
 3523TIP3    H132204   0.931   3.980   8.260
 3523TIP3    H232205   0.945   3.932   8.403
 3524TIP3   OH232206   1.047   3.025   7.673
 3524TIP3    H132207   0.958   3.052   7.694
 3524TIP3    H232208   1.053   3.036   7.578
 3525TIP3   OH232209   5.935   2.528   1.302
 3525TIP3    H132210   5.911   2.435   1.295
 3525TIP3    H232211   5.851   2.573   1.305
 3526TIP3   OH232212   1.699   3.156   7.956
 3526TIP3    H132213   1.624   3.215   7.961
 3526TIP3    H232214   1.732   3.167   7.867
 3527TIP3   OH232215   2.696   1.623   7.666
 3527TIP3    H132216   2.662   1.533   7.673
 3527TIP3    H232217   2.647   1.673   7.731
 3528TIP3   OH232218   1.373   4.096   0.923
 3528TIP3    H132219   1.308   4.116   0.990
 3528TIP3    H232220   1.446   4.155   0.942
 3529TIP3   OH232221   5.318   3.266   7.198
 3529TIP3    H132222   5.231   3.280   7.161
 3529TIP3    H232223   5.376   3.261   7.123
 3530TIP3   OH232224   3.723   3.557   8.338
 3530TIP3    H132225   3.769   3.608   8.404
 3530TIP3    H232226   3.723   3.468   8.372
 3531TIP3   OH232227   3.588   3.666   6.422
 3531TIP3    H132228   3.595   3.682   6.516
 3531TIP3    H232229   3.527   3.592   6.415
 3532TIP3   OH232230   0.867   6.549   0.627
 3532TIP3    H132231   0.802   6.511   0.568
 3532TIP3    H232232   0.896   6.629   0.583
 3533TIP3   OH232233   5.898   4.825   2.069
 3533TIP3    H132234   5.962   4.770   2.023
 3533TIP3    H232235   5.892   4.786   2.157
 3534TIP3   OH232236   4.127   5.637   1.057
 3534TIP3    H132237   4.209   5.598   1.027
 3534TIP3    H232238   4.139   5.648   1.151
 3535TIP3   OH232239   5.621   5.160   7.770
 3535TIP3    H132240   5.532   5.161   7.737
 3535TIP3    H232241   5.618   5.099   7.844
 3536TIP3   OH232242   2.954   0.245   0.100
 3536TIP3    H132243   3.019   0.309   0.131
 3536TIP3    H232244   2.909   0.218   0.180
 3537TIP3   OH232245   3.895   3.508   0.400
 3537TIP3    H132246   3.856   3.580   0.349
 3537TIP3    H232247   3.854   3.430   0.365
 3538TIP3   OH232248   1.631   6.204   6.628
 3538TIP3    H132249   1.563   6.140   6.647
 3538TIP3    H232250   1.701   6.153   6.585
 3539TIP3   OH232251   0.775   6.216   0.317
 3539TIP3    H132252   0.809   6.239   0.403
 3539TIP3    H232253   0.687   6.181   0.334
 3540TIP3   OH232254   0.839   5.304   8.754
 3540TIP3    H132255   0.851   5.399   8.749
 3540TIP3    H232256   0.746   5.291   8.738
 3541TIP3   OH232257   2.161   2.219   7.861
 3541TIP3    H132258   2.201   2.306   7.858
 3541TIP3    H232259   2.211   2.168   7.797
 3542TIP3   OH232260   5.319   5.725   2.069
 3542TIP3    H132261   5.262   5.762   2.003
 3542TIP3    H232262   5.295   5.770   2.150
 3543TIP3   OH232263   3.178   4.710   1.222
 3543TIP3    H132264   3.234   4.746   1.290
 3543TIP3    H232265   3.094   4.695   1.265
 3544TIP3   OH232266   3.454   1.378   8.489
 3544TIP3    H132267   3.487   1.466   8.512
 3544TIP3    H232268   3.485   1.322   8.560
 3545TIP3   OH232269   0.395   4.322   1.116
 3545TIP3    H132270   0.338   4.397   1.099
 3545TIP3    H232271   0.392   4.271   1.035
 3546TIP3   OH232272   1.157   0.372   1.733
 3546TIP3    H132273   1.233   0.413   1.692
 3546TIP3    H232274   1.082   0.418   1.697
 3547TIP3   OH232275   5.079   5.746   6.468
 3547TIP3    H132276   5.074   5.785   6.555
 3547TIP3    H232277   4.990   5.714   6.452
 3548TIP3   OH232278   1.617   1.053   2.531
 3548TIP3    H132279   1.538   1.083   2.485
 3548TIP3    H232280   1.632   1.120   2.599
 3549TIP3   OH232281   5.508   6.198   7.164
 3549TIP3    H132282   5.439   6.153   7.115
 3549TIP3    H232283   5.546   6.130   7.220
 3550TIP3   OH232284   4.155   5.973   0.435
 3550TIP3    H132285   4.192   6.061   0.438
 3550TIP3    H232286   4.061   5.986   0.449
 3551TIP3   OH232287   4.984   4.578   7.381
 3551TIP3    H132288   5.005   4.593   7.289
 3551TIP3    H232289   4.891   4.599   7.389
 3552TIP3   OH232290   6.248   3.953   6.799
 3552TIP3    H132291   6.222   3.930   6.710
 3552TIP3    H232292   6.188   3.904   6.855
 3553TIP3   OH232293   4.750   5.712   8.161
 3553TIP3    H132294   4.708   5.775   8.103
 3553TIP3    H232295   4.812   5.764   8.213
 3554TIP3   OH232296   0.192   5.133   0.879
 3554TIP3    H132297   0.155   5.150   0.965
 3554TIP3    H232298   0.192   5.218   0.835
 3555TIP3   OH232299   6.254   3.515   1.130
 3555TIP3    H132300   6.258   3.512   1.034
 3555TIP3    H232301   6.262   3.424   1.158
 3556TIP3   OH232302   3.968   3.433   2.218
 3556TIP3    H132303   3.880   3.447   2.254
 3556TIP3    H232304   4.023   3.413   2.294
 3557TIP3   OH232305   6.655   5.432   6.347
 3557TIP3    H132306   6.677   5.339   6.341
 3557TIP3    H232307   6.613   5.442   6.432
 3558TIP3   OH232308   4.049   4.313   1.043
 3558TIP3    H132309   4.093   4.356   0.970
 3558TIP3    H232310   4.076   4.363   1.120
 3559TIP3   OH232311   1.859   4.322   7.103
 3559TIP3    H132312   1.946   4.288   7.124
 3559TIP3    H232313   1.863   4.415   7.126
 3560TIP3   OH232314   2.593   3.965   7.268
 3560TIP3    H132315   2.601   4.054   7.233
 3560TIP3    H232316   2.577   3.910   7.191
 3561TIP3   OH232317   2.216   4.147   2.189
 3561TIP3    H132318   2.263   4.173   2.110
 3561TIP3    H232319   2.280   4.158   2.259
 3562TIP3   OH232320   5.462   5.991   2.390
 3562TIP3    H132321   5.424   6.033   2.313
 3562TIP3    H232322   5.538   6.045   2.412
 3563TIP3   OH232323   4.978   5.907   0.260
 3563TIP3    H132324   4.948   5.833   0.207
 3563TIP3    H232325   4.925   5.903   0.339
 3564TIP3   OH232326   6.776   4.142   7.305
 3564TIP3    H132327   6.790   4.234   7.327
 3564TIP3    H232328   6.681   4.130   7.314
 3565TIP3   OH232329   6.362   4.477   8.739
 3565TIP3    H132330   6.376   4.561   8.695
 3565TIP3    H232331   6.416   4.482   8.818
 3566TIP3   OH232332   1.387   4.857   7.496
 3566TIP3    H132333   1.481   4.878   7.495
 3566TIP3    H232334   1.365   4.853   7.589
 3567TIP3   OH232335   4.076   2.895   6.757
 3567TIP3    H132336   4.116   2.981   6.771
 3567TIP3    H232337   4.150   2.834   6.757
 3568TIP3   OH232338   0.679   4.437   1.480
 3568TIP3    H132339   0.735   4.506   1.445
 3568TIP3    H232340   0.648   4.389   1.403
 3569TIP3   OH232341   6.404   0.356   0.209
 3569TIP3    H132342   6.490   0.385   0.179
 3569TIP3    H232343   6.410   0.260   0.212
 3570TIP3   OH232344   2.546   3.892   7.680
 3570TIP3    H132345   2.628   3.846   7.699
 3570TIP3    H232346   2.567   3.951   7.609
 3571TIP3   OH232347   6.697   2.260   0.676
 3571TIP3    H132348   6.751   2.263   0.597
 3571TIP3    H232349   6.616   2.303   0.650
 3572TIP3   OH232350   4.369   1.695   0.528
 3572TIP3    H132351   4.319   1.685   0.609
 3572TIP3    H232352   4.399   1.607   0.507
 3573TIP3   OH232353   3.872   4.359   7.719
 3573TIP3    H132354   3.864   4.455   7.725
 3573TIP3    H232355   3.856   4.328   7.808
 3574TIP3   OH232356   4.079   5.355   7.424
 3574TIP3    H132357   4.067   5.362   7.519
 3574TIP3    H232358   4.163   5.309   7.414
 3575TIP3   OH232359   2.950   5.586   1.272
 3575TIP3    H132360   3.035   5.584   1.228
 3575TIP3    H232361   2.904   5.660   1.232
 3576TIP3   OH232362   2.837   0.271   0.380
 3576TIP3    H132363   2.772   0.201   0.383
 3576TIP3    H232364   2.893   0.256   0.455
 3577TIP3   OH232365   3.257   1.822   0.052
 3577TIP3    H132366   3.269   1.808  -0.042
 3577TIP3    H232367   3.345   1.815   0.088
 3578TIP3   OH232368   3.020   6.101   7.742
 3578TIP3    H132369   2.978   6.018   7.720
 3578TIP3    H232370   3.106   6.096   7.699
 3579TIP3   OH232371   5.772   5.781   1.074
 3579TIP3    H132372   5.845   5.825   1.118
 3579TIP3    H232373   5.811   5.737   0.999
 3580TIP3   OH232374   1.571   4.405   1.484
 3580TIP3    H132375   1.484   4.445   1.487
 3580TIP3    H232376   1.586   4.388   1.391
 3581TIP3   OH232377   5.638   5.506   1.890
 3581TIP3    H132378   5.617   5.570   1.959
 3581TIP3    H232379   5.719   5.538   1.851
 3582TIP3   OH232380   4.144   6.104   1.937
 3582TIP3    H132381   4.091   6.025   1.952
 3582TIP3    H232382   4.120   6.163   2.009
 3583TIP3   OH232383   1.302   6.216   0.997
 3583TIP3    H132384   1.218   6.249   1.029
 3583TIP3    H232385   1.289   6.207   0.902
 3584TIP3   OH232386   5.327   1.645   1.242
 3584TIP3    H132387   5.380   1.580   1.197
 3584TIP3    H232388   5.330   1.722   1.186
 3585TIP3   OH232389   1.424   5.330   6.831
 3585TIP3    H132390   1.454   5.420   6.842
 3585TIP3    H232391   1.328   5.336   6.830
 3586TIP3   OH232392   5.635   2.701   7.329
 3586TIP3    H132393   5.603   2.672   7.414
 3586TIP3    H232394   5.603   2.791   7.321
 3587TIP3   OH232395   1.332   5.394   7.237
 3587TIP3    H132396   1.389   5.470   7.250
 3587TIP3    H232397   1.360   5.331   7.303
 3588TIP3   OH232398   3.691   5.052   0.636
 3588TIP3    H132399   3.738   5.005   0.705
 3588TIP3    H232400   3.728   5.018   0.555
 3589TIP3   OH232401   2.497   0.986   7.196
 3589TIP3    H132402   2.546   1.057   7.239
 3589TIP3    H232403   2.565   0.928   7.162
 3590TIP3   OH232404   6.676   2.247   7.486
 3590TIP3    H132405   6.588   2.218   7.512
 3590TIP3    H232406   6.689   2.330   7.532
 3591TIP3   OH232407   4.290   2.003   0.137
 3591TIP3    H132408   4.212   2.058   0.143
 3591TIP3    H232409   4.263   1.930   0.082
 3592TIP3   OH232410   6.156   3.155   7.625
 3592TIP3    H132411   6.111   3.091   7.680
 3592TIP3    H232412   6.119   3.142   7.538
 3593TIP3   OH232413   5.287   0.430   8.948
 3593TIP3    H132414   5.258   0.475   9.028
 3593TIP3    H232415   5.251   0.342   8.956
 3594TIP3   OH232416   4.931   0.359   8.947
 3594TIP3    H132417   4.845   0.323   8.971
 3594TIP3    H232418   4.985   0.282   8.930
 3595TIP3   OH232419   1.946   1.222   8.242
 3595TIP3    H132420   1.918   1.279   8.314
 3595TIP3    H232421   1.864   1.189   8.205
 3596TIP3   OH232422   0.831   2.020   7.349
 3596TIP3    H132423   0.918   2.054   7.325
 3596TIP3    H232424   0.775   2.045   7.275
 3597TIP3   OH232425   4.200   1.737   7.997
 3597TIP3    H132426   4.108   1.719   7.979
 3597TIP3    H232427   4.247   1.665   7.954
 3598TIP3   OH232428   3.784   3.626   8.066
 3598TIP3    H132429   3.772   3.586   8.152
 3598TIP3    H232430   3.774   3.720   8.081
 3599TIP3   OH232431   0.435   2.652   0.403
 3599TIP3    H132432   0.495   2.579   0.417
 3599TIP3    H232433   0.390   2.631   0.322
 3600TIP3   OH232434   1.303   5.655   1.157
 3600TIP3    H132435   1.376   5.640   1.097
 3600TIP3    H232436   1.345   5.680   1.240
 3601TIP3   OH232437   1.094   4.601   1.812
 3601TIP3    H132438   1.151   4.676   1.794
 3601TIP3    H232439   1.138   4.554   1.883
 3602TIP3   OH232440   2.117   0.673   8.886
 3602TIP3    H132441   2.126   0.749   8.944
 3602TIP3    H232442   2.094   0.601   8.944
 3603TIP3   OH232443   3.248   1.857   7.700
 3603TIP3    H132444   3.248   1.813   7.615
 3603TIP3    H232445   3.230   1.949   7.680
 3604TIP3   OH232446   1.830   3.694   6.864
 3604TIP3    H132447   1.741   3.719   6.836
 3604TIP3    H232448   1.887   3.760   6.824
 3605TIP3   OH232449   3.746   3.967   7.801
 3605TIP3    H132450   3.812   3.906   7.833
 3605TIP3    H232451   3.670   3.952   7.857
 3606TIP3   OH232452   4.395   5.623   2.332
 3606TIP3    H132453   4.481   5.609   2.293
 3606TIP3    H232454   4.399   5.713   2.365
 3607TIP3   OH232455   6.747   2.096   6.992
 3607TIP3    H132456   6.807   2.141   6.933
 3607TIP3    H232457   6.771   2.126   7.079
 3608TIP3   OH232458   3.626   5.483   1.491
 3608TIP3    H132459   3.698   5.539   1.464
 3608TIP3    H232460   3.555   5.505   1.431
 3609TIP3   OH232461   1.182   0.509   8.601
 3609TIP3    H132462   1.211   0.583   8.653
 3609TIP3    H232463   1.258   0.451   8.596
 3610TIP3   OH232464   1.689   0.520   7.421
 3610TIP3    H132465   1.676   0.439   7.470
 3610TIP3    H232466   1.601   0.547   7.395
 3611TIP3   OH232467   5.218   3.505   1.590
 3611TIP3    H132468   5.258   3.581   1.633
 3611TIP3    H232469   5.252   3.430   1.639
 3612TIP3   OH232470   3.271   0.671   1.301
 3612TIP3    H132471   3.296   0.628   1.219
 3612TIP3    H232472   3.300   0.761   1.290
 3613TIP3   OH232473   3.863   2.965   8.516
 3613TIP3    H132474   3.898   3.049   8.488
 3613TIP3    H232475   3.820   2.984   8.599
 3614TIP3   OH232476   6.575   5.243   7.900
 3614TIP3    H132477   6.551   5.205   7.815
 3614TIP3    H232478   6.669   5.226   7.908
 3615TIP3   OH232479   4.805   5.011   8.895
 3615TIP3    H132480   4.843   4.925   8.876
 3615TIP3    H232481   4.874   5.073   8.874
 3616TIP3   OH232482   3.542   6.758   1.435
 3616TIP3    H132483   3.483   6.726   1.502
 3616TIP3    H232484   3.617   6.698   1.439
 3617TIP3   OH232485   5.418   4.680   8.433
 3617TIP3    H132486   5.357   4.692   8.505
 3617TIP3    H232487   5.386   4.739   8.364
 3618TIP3   OH232488   4.446   0.977   2.275
 3618TIP3    H132489   4.407   0.973   2.188
 3618TIP3    H232490   4.416   0.898   2.319
 3619TIP3   OH232491   1.235   0.431   7.771
 3619TIP3    H132492   1.322   0.412   7.736
 3619TIP3    H232493   1.247   0.437   7.866
 3620TIP3   OH232494   4.874   4.400   2.298
 3620TIP3    H132495   4.947   4.338   2.306
 3620TIP3    H232496   4.806   4.365   2.354
 3621TIP3   OH232497   0.131   2.545   1.215
 3621TIP3    H132498   0.075   2.525   1.290
 3621TIP3    H232499   0.219   2.556   1.252
 3622TIP3   OH232500   3.378   6.244   0.950
 3622TIP3    H132501   3.319   6.169   0.960
 3622TIP3    H232502   3.466   6.207   0.948
 3623TIP3   OH232503   4.225   4.794   6.917
 3623TIP3    H132504   4.262   4.850   6.849
 3623TIP3    H232505   4.132   4.814   6.916
 3624TIP3   OH232506   5.953   1.888   8.802
 3624TIP3    H132507   5.873   1.839   8.784
 3624TIP3    H232508   6.024   1.828   8.780
 3625TIP3   OH232509   5.627   1.444   6.777
 3625TIP3    H132510   5.715   1.478   6.792
 3625TIP3    H232511   5.603   1.477   6.691
 3626TIP3   OH232512   2.302   4.573   0.896
 3626TIP3    H132513   2.382   4.521   0.886
 3626TIP3    H232514   2.331   4.654   0.937
 3627TIP3   OH232515   1.254   5.471   7.519
 3627TIP3    H132516   1.229   5.561   7.539
 3627TIP3    H232517   1.210   5.451   7.436
 3628TIP3   OH232518   2.864   2.776   2.151
 3628TIP3    H132519   2.787   2.730   2.185
 3628TIP3    H232520   2.884   2.842   2.217
 3629TIP3   OH232521   0.193   4.550   2.589
 3629TIP3    H132522   0.158   4.636   2.612
 3629TIP3    H232523   0.273   4.570   2.540
 3630TIP3   OH232524   3.595   3.808   0.600
 3630TIP3    H132525   3.601   3.885   0.657
 3630TIP3    H232526   3.503   3.781   0.604
 3631TIP3   OH232527   3.653   5.945   0.029
 3631TIP3    H132528   3.637   5.854   0.054
 3631TIP3    H232529   3.701   5.940  -0.053
 3632TIP3   OH232530   3.350   2.938   7.553
 3632TIP3    H132531   3.265   2.911   7.587
 3632TIP3    H232532   3.366   2.878   7.480
 3633TIP3   OH232533   6.723   2.196   8.378
 3633TIP3    H132534   6.815   2.186   8.351
 3633TIP3    H232535   6.674   2.191   8.296
 3634TIP3   OH232536   5.877   3.982   8.597
 3634TIP3    H132537   5.827   4.063   8.609
 3634TIP3    H232538   5.907   3.959   8.684
 3635TIP3   OH232539   0.950   1.700   8.575
 3635TIP3    H132540   0.941   1.792   8.551
 3635TIP3    H232541   1.003   1.663   8.504
 3636TIP3   OH232542   5.924   2.543   8.047
 3636TIP3    H132543   5.984   2.618   8.036
 3636TIP3    H232544   5.973   2.482   8.103
 3637TIP3   OH232545   3.023   5.077   1.060
 3637TIP3    H132546   2.978   5.083   1.144
 3637TIP3    H232547   3.027   5.167   1.027
 3638TIP3   OH232548   4.255   3.738   7.181
 3638TIP3    H132549   4.183   3.793   7.211
 3638TIP3    H232550   4.306   3.721   7.261
 3639TIP3   OH232551   3.746   0.668   0.020
 3639TIP3    H132552   3.692   0.662  -0.060
 3639TIP3    H232553   3.726   0.588   0.068
 3640TIP3   OH232554   1.650   6.623   1.065
 3640TIP3    H132555   1.662   6.697   1.124
 3640TIP3    H232556   1.681   6.547   1.115
 3641TIP3   OH232557   4.571   6.421   0.458
 3641TIP3    H132558   4.584   6.359   0.530
 3641TIP3    H232559   4.553   6.504   0.501
 3642TIP3   OH232560   2.359   4.809   8.970
 3642TIP3    H132561   2.286   4.830   8.911
 3642TIP3    H232562   2.395   4.895   8.994
 3643TIP3   OH232563   6.242   3.279   6.813
 3643TIP3    H132564   6.217   3.187   6.803
 3643TIP3    H232565   6.254   3.290   6.907
 3644TIP3   OH232566   1.511   0.268   0.534
 3644TIP3    H132567   1.475   0.228   0.612
 3644TIP3    H232568   1.437   0.312   0.492
 3645TIP3   OH232569   3.344   6.048   1.668
 3645TIP3    H132570   3.290   5.997   1.730
 3645TIP3    H232571   3.300   6.036   1.584
 3646TIP3   OH232572   0.287   1.856   1.245
 3646TIP3    H132573   0.250   1.940   1.272
 3646TIP3    H232574   0.276   1.855   1.150
 3647TIP3   OH232575   2.996   2.788   0.739
 3647TIP3    H132576   3.001   2.860   0.802
 3647TIP3    H232577   3.020   2.710   0.789
 3648TIP3   OH232578   6.206   1.515   1.987
 3648TIP3    H132579   6.300   1.501   2.000
 3648TIP3    H232580   6.176   1.551   2.071
 3649TIP3   OH232581   2.608   1.333   7.751
 3649TIP3    H132582   2.571   1.245   7.753
 3649TIP3    H232583   2.567   1.377   7.825
 3650TIP3   OH232584   3.164   1.950   6.474
 3650TIP3    H132585   3.126   2.030   6.436
 3650TIP3    H232586   3.119   1.879   6.430
 3651TIP3   OH232587   0.436   1.971   7.731
 3651TIP3    H132588   0.421   1.911   7.657
 3651TIP3    H232589   0.348   1.997   7.758
 3652TIP3   OH232590   6.241   6.563   7.237
 3652TIP3    H132591   6.189   6.522   7.306
 3652TIP3    H232592   6.213   6.518   7.157
 3653TIP3   OH232593   0.253   4.122   0.029
 3653TIP3    H132594   0.217   4.069  -0.041
 3653TIP3    H232595   0.348   4.109   0.023
 3654TIP3   OH232596   0.784   6.561   8.772
 3654TIP3    H132597   0.870   6.529   8.798
 3654TIP3    H232598   0.795   6.582   8.679
 3655TIP3   OH232599   2.247   3.190   8.225
 3655TIP3    H132600   2.335   3.154   8.237
 3655TIP3    H232601   2.190   3.129   8.271
 3656TIP3   OH232602   4.408   0.873   7.730
 3656TIP3    H132603   4.477   0.921   7.775
 3656TIP3    H232604   4.395   0.920   7.648
 3657TIP3   OH232605   4.056   3.370   8.556
 3657TIP3    H132606   4.054   3.318   8.476
 3657TIP3    H232607   4.044   3.460   8.527
 3658TIP3   OH232608   2.361   0.139   0.662
 3658TIP3    H132609   2.312   0.191   0.725
 3658TIP3    H232610   2.453   0.157   0.683
 3659TIP3   OH232611   4.857   5.334   0.068
 3659TIP3    H132612   4.861   5.238   0.061
 3659TIP3    H232613   4.792   5.361   0.004
 3660TIP3   OH232614   5.396   3.266   2.253
 3660TIP3    H132615   5.426   3.351   2.288
 3660TIP3    H232616   5.477   3.220   2.231
 3661TIP3   OH232617   2.825   3.474   0.889
 3661TIP3    H132618   2.857   3.558   0.855
 3661TIP3    H232619   2.807   3.422   0.810
 3662TIP3   OH232620   5.680   1.110   7.447
 3662TIP3    H132621   5.769   1.129   7.416
 3662TIP3    H232622   5.690   1.032   7.501
 3663TIP3   OH232623   5.014   5.662   0.730
 3663TIP3    H132624   5.025   5.591   0.793
 3663TIP3    H232625   4.940   5.636   0.676
 3664TIP3   OH232626   1.119   2.778   2.582
 3664TIP3    H132627   1.092   2.715   2.650
 3664TIP3    H232628   1.111   2.863   2.624
 3665TIP3   OH232629   3.463   3.388   2.178
 3665TIP3    H132630   3.425   3.442   2.109
 3665TIP3    H232631   3.444   3.298   2.152
 3666TIP3   OH232632   6.763   2.977   8.298
 3666TIP3    H132633   6.804   3.062   8.280
 3666TIP3    H232634   6.826   2.932   8.354
 3667TIP3   OH232635   4.297   2.146   0.402
 3667TIP3    H132636   4.313   2.095   0.323
 3667TIP3    H232637   4.277   2.082   0.469
 3668TIP3   OH232638   1.913   4.357   0.369
 3668TIP3    H132639   1.879   4.396   0.288
 3668TIP3    H232640   1.991   4.409   0.389
 3669TIP3   OH232641   0.652   5.049   2.489
 3669TIP3    H132642   0.619   5.018   2.573
 3669TIP3    H232643   0.606   4.995   2.424
 3670TIP3   OH232644   0.786   4.069   7.595
 3670TIP3    H132645   0.759   4.029   7.513
 3670TIP3    H232646   0.872   4.029   7.614
 3671TIP3   OH232647   5.737   6.409   0.268
 3671TIP3    H132648   5.780   6.324   0.260
 3671TIP3    H232649   5.695   6.407   0.354
 3672TIP3   OH232650   1.903   3.828   1.219
 3672TIP3    H132651   1.835   3.771   1.183
 3672TIP3    H232652   1.951   3.773   1.280
 3673TIP3   OH232653   1.185   1.810   6.365
 3673TIP3    H132654   1.211   1.723   6.393
 3673TIP3    H232655   1.237   1.870   6.418
 3674TIP3   OH232656   0.959   4.240   7.436
 3674TIP3    H132657   0.997   4.223   7.350
 3674TIP3    H232658   1.029   4.283   7.486
 3675TIP3   OH232659   4.395   1.438   0.074
 3675TIP3    H132660   4.407   1.512   0.133
 3675TIP3    H232661   4.341   1.376   0.123
 3676TIP3   OH232662   2.287   5.101   8.369
 3676TIP3    H132663   2.251   5.184   8.338
 3676TIP3    H232664   2.334   5.065   8.294
 3677TIP3   OH232665   6.510   4.418   0.902
 3677TIP3    H132666   6.545   4.350   0.844
 3677TIP3    H232667   6.416   4.415   0.887
 3678TIP3   OH232668   3.885   1.005   7.105
 3678TIP3    H132669   3.830   0.936   7.068
 3678TIP3    H232670   3.849   1.086   7.070
 3679TIP3   OH232671   0.228   2.362   7.304
 3679TIP3    H132672   0.264   2.450   7.318
 3679TIP3    H232673   0.278   2.327   7.230
 3680TIP3   OH232674   6.550   3.120   7.259
 3680TIP3    H132675   6.596   3.063   7.320
 3680TIP3    H232676   6.514   3.190   7.314
 3681TIP3   OH232677   2.382   2.294   1.952
 3681TIP3    H132678   2.448   2.244   1.904
 3681TIP3    H232679   2.307   2.234   1.959
 3682TIP3   OH232680   4.107   3.186   7.654
 3682TIP3    H132681   4.013   3.175   7.641
 3682TIP3    H232682   4.120   3.281   7.657
 3683TIP3   OH232683   4.900   4.830   7.679
 3683TIP3    H132684   4.881   4.838   7.585
 3683TIP3    H232685   4.948   4.748   7.687
 3684TIP3   OH232686   3.753   6.484   0.873
 3684TIP3    H132687   3.760   6.389   0.862
 3684TIP3    H232688   3.830   6.509   0.923
 3685TIP3   OH232689   2.059   6.674   8.314
 3685TIP3    H132690   2.109   6.652   8.392
 3685TIP3    H232691   2.073   6.769   8.303
 3686TIP3   OH232692   3.290   5.373   0.059
 3686TIP3    H132693   3.337   5.408   0.134
 3686TIP3    H232694   3.318   5.428  -0.015
 3687TIP3   OH232695   3.977   4.568   1.164
 3687TIP3    H132696   3.910   4.507   1.193
 3687TIP3    H232697   4.043   4.566   1.233
 3688TIP3   OH232698   2.505   5.781   8.165
 3688TIP3    H132699   2.483   5.692   8.195
 3688TIP3    H232700   2.509   5.774   8.070
 3689TIP3   OH232701   2.161   5.750   0.745
 3689TIP3    H132702   2.240   5.778   0.700
 3689TIP3    H232703   2.121   5.832   0.776
 3690TIP3   OH232704   4.258   3.163   1.653
 3690TIP3    H132705   4.305   3.111   1.719
 3690TIP3    H232706   4.321   3.230   1.626
 3691TIP3   OH232707   3.699   1.547   6.334
 3691TIP3    H132708   3.751   1.470   6.360
 3691TIP3    H232709   3.613   1.532   6.372
 3692TIP3   OH232710   5.670   3.615   1.283
 3692TIP3    H132711   5.654   3.554   1.355
 3692TIP3    H232712   5.612   3.689   1.300
 3693TIP3   OH232713   1.311   6.066   1.787
 3693TIP3    H132714   1.253   5.992   1.771
 3693TIP3    H232715   1.392   6.027   1.819
 3694TIP3   OH232716   2.070   2.709   7.685
 3694TIP3    H132717   2.142   2.755   7.728
 3694TIP3    H232718   2.112   2.637   7.637
 3695TIP3   OH232719   0.579   1.757   0.430
 3695TIP3    H132720   0.567   1.691   0.498
 3695TIP3    H232721   0.564   1.711   0.348
 3696TIP3   OH232722   0.324   6.232   0.856
 3696TIP3    H132723   0.370   6.151   0.832
 3696TIP3    H232724   0.317   6.281   0.775
 3697TIP3   OH232725   2.327   3.445   8.308
 3697TIP3    H132726   2.317   3.352   8.288
 3697TIP3    H232727   2.412   3.468   8.270
 3698TIP3   OH232728   0.906   6.754   8.106
 3698TIP3    H132729   0.906   6.659   8.096
 3698TIP3    H232730   0.915   6.787   8.016
 3699TIP3   OH232731   5.635   2.717   1.595
 3699TIP3    H132732   5.662   2.633   1.632
 3699TIP3    H232733   5.540   2.710   1.585
 3700TIP3   OH232734   3.938   5.867   8.982
 3700TIP3    H132735   3.940   5.772   8.967
 3700TIP3    H232736   4.021   5.898   8.947
 3701TIP3   OH232737   4.115   4.055   7.993
 3701TIP3    H132738   4.087   4.077   7.904
 3701TIP3    H232739   4.195   4.004   7.981
 3702TIP3   OH232740   6.128   1.574   0.196
 3702TIP3    H132741   6.046   1.619   0.179
 3702TIP3    H232742   6.121   1.544   0.287
 3703TIP3   OH232743   3.630   6.134   0.598
 3703TIP3    H132744   3.599   6.200   0.536
 3703TIP3    H232745   3.703   6.176   0.644
 3704TIP3   OH232746   1.305   3.750   6.843
 3704TIP3    H132747   1.249   3.817   6.804
 3704TIP3    H232748   1.251   3.671   6.842
 3705TIP3   OH232749   2.198   2.303   8.884
 3705TIP3    H132750   2.249   2.356   8.823
 3705TIP3    H232751   2.123   2.358   8.906
 3706TIP3   OH232752   2.389   0.772   7.378
 3706TIP3    H132753   2.313   0.811   7.420
 3706TIP3    H232754   2.404   0.825   7.300
 3707TIP3   OH232755   2.307   2.834   7.725
 3707TIP3    H132756   2.293   2.833   7.630
 3707TIP3    H232757   2.399   2.861   7.734
 3708TIP3   OH232758   4.744   3.549   7.884
 3708TIP3    H132759   4.803   3.606   7.935
 3708TIP3    H232760   4.798   3.473   7.863
 3709TIP3   OH232761   4.919   0.629   1.900
 3709TIP3    H132762   5.008   0.613   1.933
 3709TIP3    H232763   4.914   0.576   1.820
 3710TIP3   OH232764   2.589   6.134   0.052
 3710TIP3    H132765   2.667   6.163   0.099
 3710TIP3    H232766   2.518   6.142   0.115
 3711TIP3   OH232767   3.896   5.783   0.275
 3711TIP3    H132768   3.899   5.834   0.194
 3711TIP3    H232769   3.871   5.846   0.342
 3712TIP3   OH232770   2.736   0.034   0.871
 3712TIP3    H132771   2.701  -0.020   0.942
 3712TIP3    H232772   2.696   0.120   0.884
 3713TIP3   OH232773   4.679   2.012   7.507
 3713TIP3    H132774   4.655   1.962   7.584
 3713TIP3    H232775   4.637   1.967   7.434
 3714TIP3   OH232776   0.979   1.551   0.698
 3714TIP3    H132777   0.907   1.562   0.760
 3714TIP3    H232778   1.054   1.591   0.740
 3715TIP3   OH232779   4.231   6.517   8.959
 3715TIP3    H132780   4.274   6.444   9.003
 3715TIP3    H232781   4.301   6.564   8.914
 3716TIP3   OH232782   2.085   0.942   8.200
 3716TIP3    H132783   2.089   0.910   8.110
 3716TIP3    H232784   2.091   1.037   8.192
 3717TIP3   OH232785   4.531   1.606   0.217
 3717TIP3    H132786   4.560   1.647   0.135
 3717TIP3    H232787   4.501   1.679   0.271
 3718TIP3   OH232788   2.125   5.919   0.034
 3718TIP3    H132789   2.035   5.891   0.020
 3718TIP3    H232790   2.117   5.992   0.096
 3719TIP3   OH232791   2.356   6.231   0.147
 3719TIP3    H132792   2.321   6.228   0.236
 3719TIP3    H232793   2.322   6.313   0.111
 3720TIP3   OH232794   4.973   6.577   6.807
 3720TIP3    H132795   5.009   6.493   6.837
 3720TIP3    H232796   5.046   6.619   6.762
 3721TIP3   OH232797   6.231   0.013   7.434
 3721TIP3    H132798   6.306   0.068   7.410
 3721TIP3    H232799   6.258  -0.032   7.514
 3722TIP3   OH232800   3.026   1.246   5.972
 3722TIP3    H132801   3.014   1.322   6.029
 3722TIP3    H232802   2.937   1.210   5.962
 3723TIP3   OH232803   0.684   6.106   7.705
 3723TIP3    H132804   0.738   6.027   7.713
 3723TIP3    H232805   0.636   6.094   7.623
 3724TIP3   OH232806   6.585   4.580   1.533
 3724TIP3    H132807   6.525   4.543   1.467
 3724TIP3    H232808   6.652   4.625   1.482
 3725TIP3   OH232809   6.510   2.741   2.156
 3725TIP3    H132810   6.443   2.731   2.224
 3725TIP3    H232811   6.587   2.773   2.203
 3726TIP3   OH232812   6.025   3.677   1.171
 3726TIP3    H132813   6.059   3.588   1.162
 3726TIP3    H232814   6.029   3.713   1.083
 3727TIP3   OH232815   3.392   3.688   7.255
 3727TIP3    H132816   3.462   3.753   7.252
 3727TIP3    H232817   3.436   3.604   7.249
 3728TIP3   OH232818   3.862   5.558   1.327
 3728TIP3    H132819   3.936   5.514   1.285
 3728TIP3    H232820   3.794   5.560   1.259
 3729TIP3   OH232821   1.953   2.071   1.233
 3729TIP3    H132822   1.867   2.043   1.265
 3729TIP3    H232823   2.009   1.994   1.243
 3730TIP3   OH232824   4.181   1.153   8.313
 3730TIP3    H132825   4.229   1.210   8.253
 3730TIP3    H232826   4.189   1.066   8.274
 3731TIP3   OH232827   3.584   5.053   1.297
 3731TIP3    H132828   3.518   5.051   1.227
 3731TIP3    H232829   3.650   5.115   1.265
 3732TIP3   OH232830   3.340   4.971   8.200
 3732TIP3    H132831   3.404   4.904   8.222
 3732TIP3    H232832   3.259   4.922   8.184
 3733TIP3   OH232833   1.114   1.727   0.847
 3733TIP3    H132834   1.159   1.698   0.926
 3733TIP3    H232835   1.078   1.813   0.869
 3734TIP3   OH232836   0.430   5.103   6.427
 3734TIP3    H132837   0.455   5.194   6.415
 3734TIP3    H232838   0.402   5.074   6.340
 3735TIP3   OH232839   5.338   3.748   7.003
 3735TIP3    H132840   5.427   3.781   6.995
 3735TIP3    H232841   5.348   3.654   7.018
 3736TIP3   OH232842   4.685   2.695   8.640
 3736TIP3    H132843   4.743   2.754   8.686
 3736TIP3    H232844   4.612   2.680   8.700
 3737TIP3   OH232845   0.928   6.495   0.317
 3737TIP3    H132846   0.946   6.434   0.388
 3737TIP3    H232847   0.850   6.459   0.274
 3738TIP3   OH232848   0.406   5.766   8.681
 3738TIP3    H132849   0.365   5.799   8.601
 3738TIP3    H232850   0.465   5.697   8.652
 3739TIP3   OH232851   4.845   1.446   1.918
 3739TIP3    H132852   4.858   1.533   1.956
 3739TIP3    H232853   4.834   1.388   1.994
 3740TIP3   OH232854   3.196   1.826   8.741
 3740TIP3    H132855   3.197   1.904   8.685
 3740TIP3    H232856   3.122   1.775   8.709
 3741TIP3   OH232857   6.018   2.074   1.848
 3741TIP3    H132858   5.935   2.027   1.847
 3741TIP3    H232859   6.069   2.032   1.917
 3742TIP3   OH232860   4.964   1.102   0.803
 3742TIP3    H132861   4.878   1.141   0.784
 3742TIP3    H232862   5.023   1.178   0.809
 3743TIP3   OH232863   5.761   2.660   2.154
 3743TIP3    H132864   5.811   2.686   2.077
 3743TIP3    H232865   5.757   2.564   2.150
 3744TIP3   OH232866   2.924   4.731   6.814
 3744TIP3    H132867   2.935   4.681   6.895
 3744TIP3    H232868   2.935   4.667   6.744
 3745TIP3   OH232869   1.254   5.248   7.674
 3745TIP3    H132870   1.235   5.330   7.628
 3745TIP3    H232871   1.345   5.229   7.652
 3746TIP3   OH232872   2.229   5.546   8.337
 3746TIP3    H132873   2.311   5.530   8.383
 3746TIP3    H232874   2.163   5.548   8.407
 3747TIP3   OH232875   1.889   2.728   0.765
 3747TIP3    H132876   1.981   2.703   0.769
 3747TIP3    H232877   1.855   2.708   0.852
 3748TIP3   OH232878   4.315   1.391   1.937
 3748TIP3    H132879   4.363   1.422   2.014
 3748TIP3    H232880   4.224   1.412   1.955
 3749TIP3   OH232881   3.513   4.808   0.868
 3749TIP3    H132882   3.566   4.886   0.883
 3749TIP3    H232883   3.491   4.776   0.955
 3750TIP3   OH232884   0.990   2.186   8.563
 3750TIP3    H132885   0.964   2.195   8.655
 3750TIP3    H232886   0.949   2.261   8.520
 3751TIP3   OH232887   2.303   6.344   1.256
 3751TIP3    H132888   2.226   6.308   1.212
 3751TIP3    H232889   2.275   6.431   1.286
 3752TIP3   OH232890   0.386   6.287   7.567
 3752TIP3    H132891   0.466   6.331   7.597
 3752TIP3    H232892   0.322   6.357   7.558
 3753TIP3   OH232893   2.471   6.529   1.442
 3753TIP3    H132894   2.456   6.501   1.532
 3753TIP3    H232895   2.566   6.531   1.433
 3754TIP3   OH232896   3.571   6.379   7.818
 3754TIP3    H132897   3.660   6.390   7.785
 3754TIP3    H232898   3.520   6.352   7.742
 3755TIP3   OH232899   4.574   3.220   1.114
 3755TIP3    H132900   4.648   3.260   1.069
 3755TIP3    H232901   4.566   3.132   1.077
 3756TIP3   OH232902   1.930   4.588   6.856
 3756TIP3    H132903   1.900   4.589   6.947
 3756TIP3    H232904   1.860   4.632   6.807
 3757TIP3   OH232905   6.727   4.916   1.083
 3757TIP3    H132906   6.680   4.937   1.164
 3757TIP3    H232907   6.730   4.999   1.035
 3758TIP3   OH232908   1.897   1.497   1.007
 3758TIP3    H132909   1.835   1.452   1.065
 3758TIP3    H232910   1.902   1.442   0.929
 3759TIP3   OH232911   1.073   0.387   0.047
 3759TIP3    H132912   1.101   0.317  -0.012
 3759TIP3    H232913   1.018   0.443  -0.008
 3760TIP3   OH232914   1.050   5.440   7.224
 3760TIP3    H132915   0.974   5.390   7.195
 3760TIP3    H232916   1.125   5.397   7.182
 3761TIP3   OH232917   4.110   3.513   7.320
 3761TIP3    H132918   4.019   3.483   7.313
 3761TIP3    H232919   4.117   3.583   7.255
 3762TIP3   OH232920   4.056   1.953   8.755
 3762TIP3    H132921   4.007   1.966   8.674
 3762TIP3    H232922   4.003   1.998   8.822
 3763TIP3   OH232923   6.322   1.508   1.603
 3763TIP3    H132924   6.248   1.567   1.620
 3763TIP3    H232925   6.392   1.566   1.573
 3764TIP3   OH232926   3.047   0.314   8.842
 3764TIP3    H132927   3.010   0.298   8.929
 3764TIP3    H232928   3.026   0.235   8.792
 3765TIP3   OH232929   2.128   4.252   7.153
 3765TIP3    H132930   2.201   4.273   7.211
 3765TIP3    H232931   2.154   4.287   7.068
 3766TIP3   OH232932   5.566   1.517   1.094
 3766TIP3    H132933   5.631   1.557   1.152
 3766TIP3    H232934   5.546   1.432   1.134
 3767TIP3   OH232935   3.817   2.970   1.278
 3767TIP3    H132936   3.767   2.966   1.196
 3767TIP3    H232937   3.908   2.959   1.251
 3768TIP3   OH232938   6.071   3.672   8.981
 3768TIP3    H132939   6.089   3.733   9.053
 3768TIP3    H232940   6.136   3.603   8.991
 3769TIP3   OH232941   2.459   3.765   8.416
 3769TIP3    H132942   2.508   3.791   8.494
 3769TIP3    H232943   2.367   3.764   8.445
 3770TIP3   OH232944   2.406   4.308   7.207
 3770TIP3    H132945   2.500   4.294   7.198
 3770TIP3    H232946   2.396   4.402   7.221
 3771TIP3   OH232947   3.720   4.769   8.615
 3771TIP3    H132948   3.784   4.703   8.641
 3771TIP3    H232949   3.765   4.823   8.550
 3772TIP3   OH232950   5.171   3.335   0.910
 3772TIP3    H132951   5.254   3.288   0.919
 3772TIP3    H232952   5.107   3.278   0.952
 3773TIP3   OH232953   6.255   1.988   0.375
 3773TIP3    H132954   6.310   1.971   0.299
 3773TIP3    H232955   6.167   2.000   0.339
 3774TIP3   OH232956   1.960   3.426   7.357
 3774TIP3    H132957   1.890   3.451   7.296
 3774TIP3    H232958   2.016   3.504   7.362
 3775TIP3   OH232959   2.705   0.236   7.481
 3775TIP3    H132960   2.794   0.201   7.487
 3775TIP3    H232961   2.669   0.227   7.569
 3776TIP3   OH232962   4.767   3.831   6.949
 3776TIP3    H132963   4.814   3.805   7.028
 3776TIP3    H232964   4.714   3.906   6.976
 3777TIP3   OH232965   4.661   5.923   8.028
 3777TIP3    H132966   4.698   5.998   8.074
 3777TIP3    H232967   4.660   5.950   7.936
 3778TIP3   OH232968   5.297   1.380   7.916
 3778TIP3    H132969   5.237   1.446   7.950
 3778TIP3    H232970   5.302   1.399   7.822
 3779TIP3   OH232971   1.894   5.888   8.201
 3779TIP3    H132972   1.819   5.880   8.141
 3779TIP3    H232973   1.901   5.802   8.242
 3780TIP3   OH232974   1.936   6.774   7.246
 3780TIP3    H132975   1.999   6.774   7.317
 3780TIP3    H232976   1.850   6.770   7.289
 3781TIP3   OH232977   6.076   5.827   1.750
 3781TIP3    H132978   6.163   5.792   1.737
 3781TIP3    H232979   6.088   5.922   1.754
 3782TIP3   OH232980   0.054   4.637   6.415
 3782TIP3    H132981   0.102   4.609   6.493
 3782TIP3    H232982   0.119   4.680   6.361
 3783TIP3   OH232983   5.149   0.702   0.437
 3783TIP3    H132984   5.058   0.678   0.418
 3783TIP3    H232985   5.157   0.792   0.407
 3784TIP3   OH232986   6.472   0.677   1.295
 3784TIP3    H132987   6.461   0.619   1.370
 3784TIP3    H232988   6.429   0.759   1.322
 3785TIP3   OH232989   5.376   3.432   0.360
 3785TIP3    H132990   5.400   3.339   0.358
 3785TIP3    H232991   5.426   3.467   0.434
 3786TIP3   OH232992   1.714   1.954   0.746
 3786TIP3    H132993   1.734   1.995   0.661
 3786TIP3    H232994   1.779   1.991   0.806
 3787TIP3   OH232995   6.223   1.659   2.562
 3787TIP3    H132996   6.265   1.711   2.631
 3787TIP3    H232997   6.246   1.703   2.481
 3788TIP3   OH232998   0.332   6.177   0.380
 3788TIP3    H132999   0.394   6.248   0.371
 3788TIP3    H233000   0.301   6.160   0.291
 3789TIP3   OH233001   0.637   3.624   8.481
 3789TIP3    H133002   0.564   3.623   8.419
 3789TIP3    H233003   0.606   3.575   8.556
 3790TIP3   OH233004   4.309   5.898   7.819
 3790TIP3    H133005   4.318   5.864   7.730
 3790TIP3    H233006   4.379   5.963   7.828
 3791TIP3   OH233007   0.454   5.586   1.272
 3791TIP3    H133008   0.464   5.612   1.364
 3791TIP3    H233009   0.509   5.509   1.262
 3792TIP3   OH233010   5.804   4.913   0.812
 3792TIP3    H133011   5.756   4.834   0.788
 3792TIP3    H233012   5.749   4.956   0.877
 3793TIP3   OH233013   3.937   6.078   2.312
 3793TIP3    H133014   3.860   6.083   2.256
 3793TIP3    H233015   3.990   6.153   2.286
 3794TIP3   OH233016   1.022   4.355   1.304
 3794TIP3    H133017   1.020   4.386   1.395
 3794TIP3    H233018   1.112   4.367   1.276
 3795TIP3   OH233019   1.552   0.471   8.524
 3795TIP3    H133020   1.622   0.412   8.552
 3795TIP3    H233021   1.477   0.414   8.507
 3796TIP3   OH233022   6.660   0.106   8.592
 3796TIP3    H133023   6.705   0.106   8.508
 3796TIP3    H233024   6.685   0.189   8.633
 3797TIP3   OH233025   6.712   0.583   7.769
 3797TIP3    H133026   6.793   0.547   7.733
 3797TIP3    H233027   6.688   0.652   7.707
 3798TIP3   OH233028   1.622   2.342   0.098
 3798TIP3    H133029   1.532   2.372   0.101
 3798TIP3    H233030   1.671   2.417   0.063
 3799TIP3   OH233031   2.808   6.634   0.131
 3799TIP3    H133032   2.888   6.593   0.165
 3799TIP3    H233033   2.783   6.580   0.056
 3800TIP3   OH233034   0.137   1.857   0.421
 3800TIP3    H133035   0.202   1.905   0.370
 3800TIP3    H233036   0.179   1.840   0.505
 3801TIP3   OH233037   3.151   5.872   1.230
 3801TIP3    H133038   3.181   5.782   1.224
 3801TIP3    H233039   3.061   5.870   1.196
 3802TIP3   OH233040   0.535   4.072   0.423
 3802TIP3    H133041   0.551   3.980   0.402
 3802TIP3    H233042   0.598   4.120   0.368
 3803TIP3   OH233043   1.746   6.320   8.054
 3803TIP3    H133044   1.755   6.374   7.976
 3803TIP3    H233045   1.796   6.241   8.034
 3804TIP3   OH233046   5.991   6.512   0.523
 3804TIP3    H133047   6.031   6.568   0.589
 3804TIP3    H233048   6.042   6.528   0.444
 3805TIP3   OH233049   6.039   4.628   1.183
 3805TIP3    H133050   6.051   4.696   1.250
 3805TIP3    H233051   6.127   4.594   1.168
 3806TIP3   OH233052   5.840   3.356   1.105
 3806TIP3    H133053   5.901   3.360   1.178
 3806TIP3    H233054   5.802   3.443   1.100
 3807TIP3   OH233055   4.111   0.310   0.861
 3807TIP3    H133056   4.020   0.312   0.891
 3807TIP3    H233057   4.108   0.352   0.775
 3808TIP3   OH233058   5.843   3.674   0.267
 3808TIP3    H133059   5.810   3.614   0.334
 3808TIP3    H233060   5.938   3.670   0.277
 3809TIP3   OH233061   4.413   4.611   1.605
 3809TIP3    H133062   4.336   4.647   1.649
 3809TIP3    H233063   4.487   4.644   1.655
 3810TIP3   OH233064   2.728   1.114   1.898
 3810TIP3    H133065   2.680   1.150   1.972
 3810TIP3    H233066   2.685   1.030   1.880
 3811TIP3   OH233067   1.060   3.983   7.426
 3811TIP3    H133068   1.106   4.058   7.389
 3811TIP3    H233069   0.991   3.964   7.363
 3812TIP3   OH233070   3.192   0.986   7.052
 3812TIP3    H133071   3.139   1.066   7.060
 3812TIP3    H233072   3.160   0.945   6.972
 3813TIP3   OH233073   6.104   5.381   0.393
 3813TIP3    H133074   6.094   5.291   0.361
 3813TIP3    H233075   6.025   5.426   0.365
 3814TIP3   OH233076   4.941   1.231   1.721
 3814TIP3    H133077   5.022   1.280   1.706
 3814TIP3    H233078   4.876   1.299   1.740
 3815TIP3   OH233079   0.790   4.588   0.977
 3815TIP3    H133080   0.704   4.568   0.939
 3815TIP3    H233081   0.772   4.605   1.069
 3816TIP3   OH233082   4.455   1.929   8.424
 3816TIP3    H133083   4.367   1.966   8.427
 3816TIP3    H233084   4.445   1.840   8.458
 3817TIP3   OH233085   1.727   0.981   1.225
 3817TIP3    H133086   1.754   0.982   1.133
 3817TIP3    H233087   1.793   1.034   1.270
 3818TIP3   OH233088   1.195   6.715   7.431
 3818TIP3    H133089   1.249   6.637   7.447
 3818TIP3    H233090   1.105   6.683   7.439
 3819TIP3   OH233091   0.783   2.605   8.204
 3819TIP3    H133092   0.702   2.656   8.201
 3819TIP3    H233093   0.780   2.551   8.125
 3820TIP3   OH233094   1.041   3.407   0.092
 3820TIP3    H133095   1.028   3.327   0.144
 3820TIP3    H233096   0.970   3.464   0.119
 3821TIP3   OH233097   5.663   0.951   7.193
 3821TIP3    H133098   5.714   0.936   7.272
 3821TIP3    H233099   5.716   1.013   7.142
 3822TIP3   OH233100   4.308   0.379   7.448
 3822TIP3    H133101   4.290   0.415   7.535
 3822TIP3    H233102   4.224   0.343   7.419
 3823TIP3   OH233103   1.516   5.770   7.577
 3823TIP3    H133104   1.522   5.804   7.488
 3823TIP3    H233105   1.606   5.755   7.604
 3824TIP3   OH233106   4.923   0.953   8.100
 3824TIP3    H133107   4.856   0.890   8.128
 3824TIP3    H233108   4.968   0.908   8.028
 3825TIP3   OH233109   3.434   1.973   6.397
 3825TIP3    H133110   3.391   2.001   6.317
 3825TIP3    H233111   3.362   1.953   6.457
 3826TIP3   OH233112   0.866   5.671   1.819
 3826TIP3    H133113   0.777   5.662   1.852
 3826TIP3    H233114   0.898   5.752   1.858
 3827TIP3   OH233115   6.435   5.918   8.521
 3827TIP3    H133116   6.511   5.889   8.470
 3827TIP3    H233117   6.470   5.981   8.584
 3828TIP3   OH233118   2.187   5.309   8.196
 3828TIP3    H133119   2.202   5.391   8.244
 3828TIP3    H233120   2.183   5.336   8.104
 3829TIP3   OH233121   0.533   0.836   0.160
 3829TIP3    H133122   0.624   0.814   0.140
 3829TIP3    H233123   0.536   0.876   0.247
 3830TIP3   OH233124   6.504   1.917   0.227
 3830TIP3    H133125   6.455   1.898   0.147
 3830TIP3    H233126   6.588   1.951   0.196
 3831TIP3   OH233127   4.876   5.568   8.815
 3831TIP3    H133128   4.841   5.487   8.851
 3831TIP3    H233129   4.929   5.541   8.741
 3832TIP3   OH233130   0.797   1.403   6.191
 3832TIP3    H133131   0.832   1.483   6.229
 3832TIP3    H233132   0.823   1.334   6.252
 3833TIP3   OH233133   4.860   0.828   8.381
 3833TIP3    H133134   4.790   0.893   8.388
 3833TIP3    H233135   4.929   0.871   8.332
 3834TIP3   OH233136   3.079   2.792   8.919
 3834TIP3    H133137   3.042   2.749   8.996
 3834TIP3    H233138   3.147   2.732   8.889
 3835TIP3   OH233139   2.284   0.597   8.074
 3835TIP3    H133140   2.238   0.522   8.112
 3835TIP3    H233141   2.324   0.563   7.995
 3836TIP3   OH233142   0.290   4.816   8.575
 3836TIP3    H133143   0.314   4.908   8.586
 3836TIP3    H233144   0.216   4.804   8.635
 3837TIP3   OH233145   6.556   2.396   7.200
 3837TIP3    H133146   6.499   2.420   7.127
 3837TIP3    H233147   6.519   2.315   7.234
 3838TIP3   OH233148   3.312   0.953   7.997
 3838TIP3    H133149   3.273   0.885   8.051
 3838TIP3    H233150   3.238   0.996   7.953
 3839TIP3   OH233151   4.286   5.342   7.989
 3839TIP3    H133152   4.260   5.431   7.964
 3839TIP3    H233153   4.221   5.315   8.054
 3840TIP3   OH233154   6.652   1.925   0.641
 3840TIP3    H133155   6.688   1.884   0.563
 3840TIP3    H233156   6.600   1.998   0.609
 3841TIP3   OH233157   1.134   2.364   0.870
 3841TIP3    H133158   1.227   2.371   0.849
 3841TIP3    H233159   1.102   2.295   0.812
 3842TIP3   OH233160   3.567   6.581   8.529
 3842TIP3    H133161   3.536   6.586   8.619
 3842TIP3    H233162   3.633   6.650   8.523
 3843TIP3   OH233163   3.759   2.271   8.624
 3843TIP3    H133164   3.733   2.264   8.715
 3843TIP3    H233165   3.702   2.209   8.578
 3844TIP3   OH233166   0.617   1.888   1.287
 3844TIP3    H133167   0.543   1.869   1.229
 3844TIP3    H233168   0.583   1.952   1.350
 3845TIP3   OH233169   2.287   2.014   0.031
 3845TIP3    H133170   2.270   1.960  -0.046
 3845TIP3    H233171   2.232   2.091   0.019
 3846TIP3   OH233172   4.859   1.607   6.426
 3846TIP3    H133173   4.927   1.540   6.435
 3846TIP3    H233174   4.798   1.571   6.362
 3847TIP3   OH233175   5.933   3.304   7.344
 3847TIP3    H133176   5.901   3.390   7.316
 3847TIP3    H233177   5.919   3.247   7.268
 3848TIP3   OH233178   0.185   0.536   7.973
 3848TIP3    H133179   0.197   0.445   7.945
 3848TIP3    H233180   0.172   0.531   8.067
 3849TIP3   OH233181   4.652   2.874   7.487
 3849TIP3    H133182   4.665   2.884   7.393
 3849TIP3    H233183   4.739   2.887   7.525
 3850TIP3   OH233184   5.447   1.737   7.914
 3850TIP3    H133185   5.514   1.675   7.942
 3850TIP3    H233186   5.398   1.759   7.994
 3851TIP3   OH233187   1.987   4.882   1.874
 3851TIP3    H133188   2.050   4.923   1.935
 3851TIP3    H233189   1.910   4.939   1.878
 3852TIP3   OH233190   4.321   5.408   2.155
 3852TIP3    H133191   4.358   5.461   2.225
 3852TIP3    H233192   4.289   5.329   2.199
 3853TIP3   OH233193   6.468   3.271   1.014
 3853TIP3    H133194   6.461   3.180   0.986
 3853TIP3    H233195   6.428   3.321   0.943
 3854TIP3   OH233196   3.235   0.501   8.499
 3854TIP3    H133197   3.168   0.438   8.470
 3854TIP3    H233198   3.231   0.571   8.434
 3855TIP3   OH233199   6.727   4.941   0.340
 3855TIP3    H133200   6.778   4.875   0.386
 3855TIP3    H233201   6.657   4.965   0.402
 3856TIP3   OH233202   4.176   6.229   7.921
 3856TIP3    H133203   4.254   6.205   7.973
 3856TIP3    H233204   4.139   6.145   7.894
 3857TIP3   OH233205   4.141   5.894   6.918
 3857TIP3    H133206   4.235   5.905   6.933
 3857TIP3    H233207   4.124   5.802   6.937
 3858TIP3   OH233208   4.325   4.175   7.029
 3858TIP3    H133209   4.270   4.209   6.958
 3858TIP3    H233210   4.365   4.253   7.067
 3859TIP3   OH233211   3.711   6.291   6.725
 3859TIP3    H133212   3.780   6.325   6.782
 3859TIP3    H233213   3.737   6.201   6.705
 3860TIP3   OH233214   3.213   1.645   1.521
 3860TIP3    H133215   3.257   1.730   1.523
 3860TIP3    H233216   3.260   1.592   1.585
 3861TIP3   OH233217   0.925   3.783   0.425
 3861TIP3    H133218   0.931   3.687   0.425
 3861TIP3    H233219   0.861   3.803   0.493
 3862TIP3   OH233220   1.876   6.661   1.449
 3862TIP3    H133221   1.785   6.631   1.439
 3862TIP3    H233222   1.913   6.654   1.361
 3863TIP3   OH233223   0.459   5.007   7.432
 3863TIP3    H133224   0.372   5.047   7.434
 3863TIP3    H233225   0.455   4.947   7.358
 3864TIP3   OH233226   0.262   5.323   7.272
 3864TIP3    H133227   0.242   5.250   7.213
 3864TIP3    H233228   0.357   5.328   7.274
 3865TIP3   OH233229   1.308   3.315   0.503
 3865TIP3    H133230   1.398   3.343   0.517
 3865TIP3    H233231   1.260   3.396   0.486
 3866TIP3   OH233232   2.001   1.529   7.456
 3866TIP3    H133233   2.024   1.550   7.547
 3866TIP3    H233234   2.077   1.555   7.405
 3867TIP3   OH233235   6.061   1.726   1.887
 3867TIP3    H133236   6.098   1.657   1.942
 3867TIP3    H233237   5.968   1.727   1.910
 3868TIP3   OH233238   1.716   0.603   0.050
 3868TIP3    H133239   1.629   0.585   0.015
 3868TIP3    H233240   1.718   0.698   0.061
 3869TIP3   OH233241   0.530   6.284   1.926
 3869TIP3    H133242   0.486   6.199   1.916
 3869TIP3    H233243   0.466   6.338   1.973
 3870TIP3   OH233244   3.856   4.209   7.157
 3870TIP3    H133245   3.872   4.121   7.124
 3870TIP3    H233246   3.827   4.196   7.247
 3871TIP3   OH233247   4.842   4.190   0.532
 3871TIP3    H133248   4.847   4.097   0.551
 3871TIP3    H233249   4.751   4.205   0.509
 3872TIP3   OH233250   3.579   0.989   0.835
 3872TIP3    H133251   3.539   0.939   0.906
 3872TIP3    H233252   3.608   1.070   0.876
 3873TIP3   OH233253   3.296   0.286   0.050
 3873TIP3    H133254   3.364   0.220   0.038
 3873TIP3    H233255   3.239   0.275  -0.026
 3874TIP3   OH233256   0.170   1.470   6.623
 3874TIP3    H133257   0.091   1.420   6.604
 3874TIP3    H233258   0.234   1.440   6.559
 3875TIP3   OH233259   4.995   0.958   0.388
 3875TIP3    H133260   4.988   0.918   0.301
 3875TIP3    H233261   4.970   1.050   0.374
 3876TIP3   OH233262   2.228   1.167   6.877
 3876TIP3    H133263   2.224   1.231   6.948
 3876TIP3    H233264   2.272   1.091   6.916
 3877TIP3   OH233265   4.572   4.566   7.943
 3877TIP3    H133266   4.651   4.567   7.889
 3877TIP3    H233267   4.580   4.643   7.999
 3878TIP3   OH233268   1.386   6.267   7.162
 3878TIP3    H133269   1.452   6.224   7.218
 3878TIP3    H233270   1.306   6.263   7.214
 3879TIP3   OH233271   2.064   1.544   8.743
 3879TIP3    H133272   2.007   1.479   8.784
 3879TIP3    H233273   2.051   1.624   8.795
 3880TIP3   OH233274   6.289   1.426   0.477
 3880TIP3    H133275   6.199   1.458   0.474
 3880TIP3    H233276   6.287   1.345   0.426
 3881TIP3   OH233277   4.842   3.377   8.224
 3881TIP3    H133278   4.865   3.462   8.263
 3881TIP3    H233279   4.757   3.355   8.262
 3882TIP3   OH233280   3.433   0.361   8.745
 3882TIP3    H133281   3.379   0.440   8.731
 3882TIP3    H233282   3.502   0.390   8.804
 3883TIP3   OH233283   4.309   4.469   1.145
 3883TIP3    H133284   4.246   4.507   1.085
 3883TIP3    H233285   4.380   4.534   1.150
 3884TIP3   OH233286   3.925   3.067   7.219
 3884TIP3    H133287   3.930   3.030   7.307
 3884TIP3    H233288   3.958   2.998   7.161
 3885TIP3   OH233289   4.344   5.487   8.273
 3885TIP3    H133290   4.377   5.531   8.194
 3885TIP3    H233291   4.376   5.397   8.264
 3886TIP3   OH233292   2.134   4.810   1.137
 3886TIP3    H133293   2.078   4.789   1.063
 3886TIP3    H233294   2.113   4.743   1.203
 3887TIP3   OH233295   2.690   2.863   1.480
 3887TIP3    H133296   2.599   2.880   1.505
 3887TIP3    H233297   2.736   2.944   1.501
 3888TIP3   OH233298   5.090   0.680   7.371
 3888TIP3    H133299   5.062   0.597   7.331
 3888TIP3    H233300   5.148   0.719   7.306
 3889TIP3   OH233301   2.237   0.462   1.086
 3889TIP3    H133302   2.204   0.506   1.164
 3889TIP3    H233303   2.217   0.522   1.014
 3890TIP3   OH233304   0.837   0.421   7.745
 3890TIP3    H133305   0.854   0.403   7.838
 3890TIP3    H233306   0.764   0.483   7.746
 3891TIP3   OH233307   3.850   4.548   8.752
 3891TIP3    H133308   3.931   4.549   8.802
 3891TIP3    H233309   3.782   4.530   8.817
 3892TIP3   OH233310   2.210   2.931   7.977
 3892TIP3    H133311   2.192   3.025   7.983
 3892TIP3    H233312   2.240   2.918   7.887
 3893TIP3   OH233313   5.249   0.399   7.344
 3893TIP3    H133314   5.195   0.406   7.423
 3893TIP3    H233315   5.263   0.306   7.332
 3894TIP3   OH233316   6.437   4.221   7.291
 3894TIP3    H133317   6.349   4.188   7.307
 3894TIP3    H233318   6.490   4.183   7.361
 3895TIP3   OH233319   1.256   1.807   0.274
 3895TIP3    H133320   1.210   1.744   0.218
 3895TIP3    H233321   1.297   1.754   0.341
 3896TIP3   OH233322   0.187   3.330   7.742
 3896TIP3    H133323   0.245   3.268   7.699
 3896TIP3    H233324   0.229   3.415   7.729
 3897TIP3   OH233325   3.498   4.378   8.618
 3897TIP3    H133326   3.418   4.415   8.656
 3897TIP3    H233327   3.477   4.287   8.600
 3898TIP3   OH233328   3.812   5.795   7.736
 3898TIP3    H133329   3.851   5.737   7.802
 3898TIP3    H233330   3.731   5.826   7.776
 3899TIP3   OH233331   1.407   3.818   8.986
 3899TIP3    H133332   1.346   3.769   9.042
 3899TIP3    H233333   1.357   3.894   8.957
 3900TIP3   OH233334   5.181   2.636   2.117
 3900TIP3    H133335   5.183   2.596   2.030
 3900TIP3    H233336   5.211   2.726   2.103
 3901TIP3   OH233337   3.103   2.984   1.763
 3901TIP3    H133338   3.090   3.052   1.830
 3901TIP3    H233339   3.145   3.030   1.691
 3902TIP3   OH233340   2.023   2.645   1.210
 3902TIP3    H133341   2.108   2.601   1.217
 3902TIP3    H233342   1.959   2.576   1.230
 3903TIP3   OH233343   4.242   1.048   8.962
 3903TIP3    H133344   4.151   1.072   8.947
 3903TIP3    H233345   4.288   1.079   8.883
 3904TIP3   OH233346   0.509   0.576   8.159
 3904TIP3    H133347   0.447   0.502   8.153
 3904TIP3    H233348   0.554   0.577   8.075
 3905TIP3   OH233349   5.087   4.607   0.053
 3905TIP3    H133350   5.021   4.663   0.013
 3905TIP3    H233351   5.108   4.542  -0.015
 3906TIP3   OH233352   6.032   2.146   8.597
 3906TIP3    H133353   6.085   2.086   8.544
 3906TIP3    H233354   6.071   2.232   8.582
 3907TIP3   OH233355   5.157   3.814   1.458
 3907TIP3    H133356   5.213   3.844   1.530
 3907TIP3    H233357   5.085   3.768   1.502
 3908TIP3   OH233358   1.950   6.517   1.787
 3908TIP3    H133359   1.894   6.446   1.820
 3908TIP3    H233360   2.036   6.499   1.825
 3909TIP3   OH233361   0.651   3.917   8.489
 3909TIP3    H133362   0.739   3.951   8.509
 3909TIP3    H233363   0.659   3.822   8.499
 3910TIP3   OH233364   6.255   2.424   6.379
 3910TIP3    H133365   6.245   2.452   6.470
 3910TIP3    H233366   6.308   2.492   6.338
 3911TIP3   OH233367   0.318   1.324   8.287
 3911TIP3    H133368   0.283   1.319   8.199
 3911TIP3    H233369   0.255   1.276   8.341
 3912TIP3   OH233370   2.057   5.489   1.300
 3912TIP3    H133371   2.007   5.412   1.278
 3912TIP3    H233372   2.134   5.456   1.346
 3913TIP3   OH233373   6.015   0.880   2.618
 3913TIP3    H133374   5.998   0.861   2.526
 3913TIP3    H233375   6.072   0.957   2.617
 3914TIP3   OH233376   3.041   6.304   8.395
 3914TIP3    H133377   3.119   6.310   8.341
 3914TIP3    H233378   2.994   6.228   8.361
 3915TIP3   OH233379   3.816   3.912   8.098
 3915TIP3    H133380   3.731   3.954   8.105
 3915TIP3    H233381   3.877   3.983   8.079
 3916TIP3   OH233382   2.896   2.595   6.794
 3916TIP3    H133383   2.918   2.679   6.753
 3916TIP3    H233384   2.809   2.608   6.831
 3917TIP3   OH233385   2.105   3.775   0.326
 3917TIP3    H133386   2.074   3.815   0.245
 3917TIP3    H233387   2.144   3.693   0.299
 3918TIP3   OH233388   5.890   3.821   1.689
 3918TIP3    H133389   5.931   3.746   1.647
 3918TIP3    H233390   5.923   3.820   1.779
 3919TIP3   OH233391   2.897   2.670   0.093
 3919TIP3    H133392   2.820   2.726   0.085
 3919TIP3    H233393   2.883   2.602   0.027
 3920TIP3   OH233394   3.748   3.592   7.014
 3920TIP3    H133395   3.726   3.638   6.933
 3920TIP3    H233396   3.827   3.543   6.993
 3921TIP3   OH233397   1.212   0.655   0.722
 3921TIP3    H133398   1.294   0.696   0.694
 3921TIP3    H233399   1.159   0.649   0.643
 3922TIP3   OH233400   2.010   4.886   2.609
 3922TIP3    H133401   2.017   4.940   2.530
 3922TIP3    H233402   1.957   4.939   2.669
 3923TIP3   OH233403   2.476   0.653   8.250
 3923TIP3    H133404   2.415   0.710   8.296
 3923TIP3    H233405   2.432   0.632   8.167
 3924TIP3   OH233406   5.051   2.395   7.861
 3924TIP3    H133407   5.096   2.386   7.945
 3924TIP3    H233408   4.978   2.454   7.879
 3925TIP3   OH233409   0.917   3.248   0.818
 3925TIP3    H133410   0.883   3.261   0.730
 3925TIP3    H233411   0.891   3.159   0.841
 3926TIP3   OH233412   5.155   2.900   8.577
 3926TIP3    H133413   5.144   2.837   8.648
 3926TIP3    H233414   5.171   2.846   8.499
 3927TIP3   OH233415   2.502   3.763   6.751
 3927TIP3    H133416   2.596   3.779   6.753
 3927TIP3    H233417   2.468   3.827   6.688
 3928TIP3   OH233418   6.500   2.707   7.644
 3928TIP3    H133419   6.483   2.799   7.668
 3928TIP3    H233420   6.464   2.699   7.555
 3929TIP3   OH233421   5.525   3.370   0.007
 3929TIP3    H133422   5.463   3.440   0.028
 3929TIP3    H233423   5.576   3.404  -0.067
 3930TIP3   OH233424   1.631   3.399   6.940
 3930TIP3    H133425   1.707   3.407   6.883
 3930TIP3    H233426   1.557   3.423   6.885
 3931TIP3   OH233427   0.847   3.511   0.456
 3931TIP3    H133428   0.837   3.420   0.430
 3931TIP3    H233429   0.857   3.508   0.551
 3932TIP3   OH233430   4.229   5.262   2.380
 3932TIP3    H133431   4.150   5.249   2.432
 3932TIP3    H233432   4.290   5.195   2.410
 3933TIP3   OH233433   1.627   3.705   7.392
 3933TIP3    H133434   1.686   3.747   7.330
 3933TIP3    H233435   1.543   3.750   7.381
 3934TIP3   OH233436   5.059   3.533   6.913
 3934TIP3    H133437   5.150   3.515   6.937
 3934TIP3    H233438   5.012   3.454   6.937
 3935TIP3   OH233439   5.005   3.916   7.715
 3935TIP3    H133440   5.034   3.829   7.685
 3935TIP3    H233441   4.937   3.941   7.652
 3936TIP3   OH233442   3.091   4.138   8.517
 3936TIP3    H133443   3.025   4.189   8.470
 3936TIP3    H233444   3.167   4.137   8.459
 3937TIP3   OH233445   5.609   6.680   7.205
 3937TIP3    H133446   5.625   6.767   7.169
 3937TIP3    H233447   5.638   6.687   7.296
 3938TIP3   OH233448   1.549   0.737   7.804
 3938TIP3    H133449   1.536   0.802   7.735
 3938TIP3    H233450   1.494   0.768   7.876
 3939TIP3   OH233451   1.577   3.453   7.464
 3939TIP3    H133452   1.661   3.408   7.475
 3939TIP3    H233453   1.598   3.532   7.415
 3940TIP3   OH233454   5.342   4.122   7.460
 3940TIP3    H133455   5.356   4.211   7.492
 3940TIP3    H233456   5.304   4.075   7.535
 3941TIP3   OH233457   3.484   2.844   8.658
 3941TIP3    H133458   3.461   2.804   8.742
 3941TIP3    H233459   3.404   2.838   8.606
 3942TIP3   OH233460   5.189   0.882   8.275
 3942TIP3    H133461   5.145   0.835   8.204
 3942TIP3    H233462   5.265   0.827   8.296
 3943TIP3   OH233463   4.458   6.714   8.097
 3943TIP3    H133464   4.425   6.693   8.010
 3943TIP3    H233465   4.381   6.740   8.147
 3944TIP3   OH233466   6.753   0.535   7.210
 3944TIP3    H133467   6.707   0.582   7.140
 3944TIP3    H233468   6.842   0.525   7.177
 3945TIP3   OH233469   4.907   5.966   0.523
 3945TIP3    H133470   4.934   5.945   0.612
 3945TIP3    H233471   4.942   6.054   0.507
 3946TIP3   OH233472   4.768   4.254   2.014
 3946TIP3    H133473   4.783   4.170   2.059
 3946TIP3    H233474   4.790   4.320   2.079
 3947TIP3   OH233475   1.426   5.928   0.878
 3947TIP3    H133476   1.410   5.985   0.803
 3947TIP3    H233477   1.340   5.918   0.919
 3948TIP3   OH233478   0.956   3.589   2.184
 3948TIP3    H133479   0.951   3.599   2.088
 3948TIP3    H233480   0.869   3.557   2.209
 3949TIP3   OH233481   6.078   5.069   1.702
 3949TIP3    H133482   6.031   5.073   1.786
 3949TIP3    H233483   6.071   4.977   1.675
 3950TIP3   OH233484   5.888   5.624   1.774
 3950TIP3    H133485   5.951   5.695   1.785
 3950TIP3    H233486   5.941   5.546   1.760
 3951TIP3   OH233487   1.513   6.192   7.965
 3951TIP3    H133488   1.566   6.214   8.041
 3951TIP3    H233489   1.511   6.096   7.965
 3952TIP3   OH233490   4.670   2.231   2.042
 3952TIP3    H133491   4.645   2.324   2.035
 3952TIP3    H233492   4.732   2.228   2.114
 3953TIP3   OH233493   6.488   5.620   1.551
 3953TIP3    H133494   6.525   5.685   1.611
 3953TIP3    H233495   6.533   5.635   1.468
 3954TIP3   OH233496   4.601   0.130   1.043
 3954TIP3    H133497   4.656   0.207   1.032
 3954TIP3    H233498   4.584   0.125   1.137
 3955TIP3   OH233499   0.864   5.309   7.528
 3955TIP3    H133500   0.889   5.400   7.510
 3955TIP3    H233501   0.893   5.293   7.618
 3956TIP3   OH233502   1.328   3.994   8.617
 3956TIP3    H133503   1.300   4.007   8.527
 3956TIP3    H233504   1.251   3.956   8.661
 3957TIP3   OH233505   1.038   2.803   1.927
 3957TIP3    H133506   1.061   2.806   2.020
 3957TIP3    H233507   0.943   2.792   1.927
 3958TIP3   OH233508   0.670   2.079   8.220
 3958TIP3    H133509   0.637   2.142   8.155
 3958TIP3    H233510   0.605   2.080   8.290
 3959TIP3   OH233511   3.534   3.066   8.493
 3959TIP3    H133512   3.485   3.006   8.549
 3959TIP3    H233513   3.490   3.061   8.408
 3960TIP3   OH233514   1.695   2.252   6.581
 3960TIP3    H133515   1.728   2.342   6.570
 3960TIP3    H233516   1.601   2.262   6.592
 3961TIP3   OH233517   6.316   4.959   1.077
 3961TIP3    H133518   6.231   4.968   1.034
 3961TIP3    H233519   6.363   4.895   1.024
 3962TIP3   OH233520   3.424   0.029   6.805
 3962TIP3    H133521   3.465   0.087   6.741
 3962TIP3    H233522   3.498  -0.005   6.856
 3963TIP3   OH233523   3.142   1.535   8.191
 3963TIP3    H133524   3.228   1.503   8.220
 3963TIP3    H233525   3.147   1.535   8.096
 3964TIP3   OH233526   4.285   5.430   6.621
 3964TIP3    H133527   4.379   5.432   6.601
 3964TIP3    H233528   4.264   5.337   6.625
 3965TIP3   OH233529   4.628   0.076   7.675
 3965TIP3    H133530   4.664  -0.004   7.638
 3965TIP3    H233531   4.577   0.115   7.604
 3966TIP3   OH233532   5.424   6.239   8.666
 3966TIP3    H133533   5.488   6.309   8.658
 3966TIP3    H233534   5.433   6.207   8.756
 3967TIP3   OH233535   5.948   6.276   1.499
 3967TIP3    H133536   5.944   6.213   1.427
 3967TIP3    H233537   5.907   6.355   1.463
 3968TIP3   OH233538   1.840   0.843   7.660
 3968TIP3    H133539   1.841   0.814   7.751
 3968TIP3    H233540   1.860   0.764   7.609
 3969TIP3   OH233541   6.480   5.999   1.640
 3969TIP3    H133542   6.561   6.044   1.617
 3969TIP3    H233543   6.451   6.043   1.720
 3970TIP3   OH233544   3.474   6.092   8.471
 3970TIP3    H133545   3.544   6.156   8.457
 3970TIP3    H233546   3.520   6.009   8.481
 3971TIP3   OH233547   0.744   3.015   1.810
 3971TIP3    H133548   0.718   2.925   1.792
 3971TIP3    H233549   0.776   3.014   1.900
 3972TIP3   OH233550   2.612   1.662   2.349
 3972TIP3    H133551   2.647   1.749   2.368
 3972TIP3    H233552   2.603   1.621   2.435
 3973TIP3   OH233553   5.383   5.308   1.904
 3973TIP3    H133554   5.473   5.333   1.887
 3973TIP3    H233555   5.343   5.300   1.817
 3974TIP3   OH233556   2.488   1.520   7.387
 3974TIP3    H133557   2.405   1.479   7.363
 3974TIP3    H233558   2.467   1.576   7.461
 3975TIP3   OH233559   3.078   3.967   0.267
 3975TIP3    H133560   2.989   3.952   0.298
 3975TIP3    H233561   3.071   3.963   0.171
 3976TIP3   OH233562   1.723   0.419   0.630
 3976TIP3    H133563   1.685   0.496   0.672
 3976TIP3    H233564   1.648   0.373   0.593
 3977TIP3   OH233565   5.057   4.049   7.071
 3977TIP3    H133566   4.991   4.113   7.048
 3977TIP3    H233567   5.066   4.057   7.166
 3978TIP3   OH233568   1.568   0.105   7.155
 3978TIP3    H133569   1.605   0.064   7.234
 3978TIP3    H233570   1.542   0.031   7.100
 3979TIP3   OH233571   0.982   1.915   1.696
 3979TIP3    H133572   0.927   1.917   1.618
 3979TIP3    H233573   0.926   1.948   1.767
 3980TIP3   OH233574   4.879   2.380   0.574
 3980TIP3    H133575   4.821   2.306   0.594
 3980TIP3    H233576   4.819   2.454   0.559
 3981TIP3   OH233577   5.998   5.114   6.518
 3981TIP3    H133578   5.956   5.034   6.487
 3981TIP3    H233579   6.092   5.098   6.506
 3982TIP3   OH233580   1.106   2.351   0.512
 3982TIP3    H133581   1.114   2.350   0.416
 3982TIP3    H233582   1.067   2.436   0.532
 3983TIP3   OH233583   0.617   5.885   7.202
 3983TIP3    H133584   0.614   5.976   7.172
 3983TIP3    H233585   0.702   5.853   7.172
 3984TIP3   OH233586   6.142   2.489   2.216
 3984TIP3    H133587   6.078   2.419   2.203
 3984TIP3    H233588   6.093   2.560   2.257
 3985TIP3   OH233589   4.706   4.252   7.306
 3985TIP3    H133590   4.736   4.261   7.396
 3985TIP3    H233591   4.629   4.308   7.301
 3986TIP3   OH233592   2.141   5.988   8.759
 3986TIP3    H133593   2.132   5.978   8.854
 3986TIP3    H233594   2.135   5.899   8.724
 3987TIP3   OH233595   2.391   6.355   6.873
 3987TIP3    H133596   2.358   6.343   6.784
 3987TIP3    H233597   2.448   6.431   6.868
 3988TIP3   OH233598   1.289   2.942   0.926
 3988TIP3    H133599   1.365   2.890   0.897
 3988TIP3    H233600   1.218   2.916   0.867
 3989TIP3   OH233601   1.866   2.191   1.945
 3989TIP3    H133602   1.828   2.177   2.032
 3989TIP3    H233603   1.819   2.130   1.888
 3990TIP3   OH233604   4.557   3.398   7.543
 3990TIP3    H133605   4.593   3.446   7.468
 3990TIP3    H233606   4.582   3.307   7.527
 3991TIP3   OH233607   3.301   3.431   1.017
 3991TIP3    H133608   3.210   3.409   1.034
 3991TIP3    H233609   3.299   3.522   0.987
 3992TIP3   OH233610   1.963   4.252   1.891
 3992TIP3    H133611   2.002   4.322   1.942
 3992TIP3    H233612   1.968   4.283   1.800
 3993TIP3   OH233613   2.065   6.779   8.862
 3993TIP3    H133614   2.073   6.843   8.932
 3993TIP3    H233615   2.154   6.768   8.829
 3994TIP3   OH233616   5.015   4.069   7.949
 3994TIP3    H133617   4.986   4.015   7.875
 3994TIP3    H233618   4.935   4.109   7.983
 3995TIP3   OH233619   2.785   1.700   8.701
 3995TIP3    H133620   2.777   1.620   8.752
 3995TIP3    H233621   2.879   1.705   8.679
 3996TIP3   OH233622   6.091   0.792   8.230
 3996TIP3    H133623   6.110   0.882   8.254
 3996TIP3    H233624   6.133   0.780   8.145
 3997TIP3   OH233625   5.698   1.635   7.870
 3997TIP3    H133626   5.706   1.666   7.960
 3997TIP3    H233627   5.727   1.544   7.873
 3998TIP3   OH233628   3.912   1.260   0.359
 3998TIP3    H133629   3.964   1.184   0.382
 3998TIP3    H233630   3.840   1.261   0.422
 3999TIP3   OH233631   0.253   0.839   1.361
 3999TIP3    H133632   0.308   0.900   1.409
 3999TIP3    H233633   0.311   0.800   1.296
 4000TIP3   OH233634   3.616   5.665   0.070
 4000TIP3    H133635   3.667   5.587   0.090
 4000TIP3    H233636   3.529   5.632   0.046
 4001TIP3   OH233637   6.779   1.353   0.084
 4001TIP3    H133638   6.846   1.370   0.018
 4001TIP3    H233639   6.763   1.258   0.077
 4002TIP3   OH233640   3.755   4.318   7.437
 4002TIP3    H133641   3.838   4.293   7.479
 4002TIP3    H233642   3.697   4.243   7.452
 4003TIP3   OH233643   1.744   4.559   1.628
 4003TIP3    H133644   1.718   4.649   1.611
 4003TIP3    H233645   1.689   4.506   1.570
 4004TIP3   OH233646   1.160   3.641   0.148
 4004TIP3    H133647   1.167   3.550   0.120
 4004TIP3    H233648   1.099   3.681   0.086
 4005TIP3   OH233649   3.334   0.564   1.055
 4005TIP3    H133650   3.254   0.553   1.003
 4005TIP3    H233651   3.389   0.490   1.030
 4006TIP3   OH233652   3.704   0.473   0.194
 4006TIP3    H133653   3.646   0.516   0.257
 4006TIP3    H233654   3.694   0.379   0.212
 4007TIP3   OH233655   0.361   5.212   8.079
 4007TIP3    H133656   0.296   5.275   8.109
 4007TIP3    H233657   0.341   5.131   8.126
 4008TIP3   OH233658   2.362   2.837   8.367
 4008TIP3    H133659   2.443   2.837   8.419
 4008TIP3    H233660   2.336   2.929   8.365
 4009TIP3   OH233661   2.743   2.528   8.712
 4009TIP3    H133662   2.834   2.533   8.742
 4009TIP3    H233663   2.720   2.618   8.691
 4010TIP3   OH233664   1.932   4.001   8.922
 4010TIP3    H133665   1.976   4.027   8.841
 4010TIP3    H233666   1.853   4.055   8.924
 4011TIP3   OH233667   5.636   4.484   7.735
 4011TIP3    H133668   5.657   4.391   7.749
 4011TIP3    H233669   5.548   4.493   7.771
 4012TIP3   OH233670   0.120   0.622   1.151
 4012TIP3    H133671   0.103   0.529   1.135
 4012TIP3    H233672   0.040   0.666   1.123
 4013TIP3   OH233673   1.588   1.188   7.315
 4013TIP3    H133674   1.539   1.252   7.264
 4013TIP3    H233675   1.661   1.238   7.352
 4014TIP3   OH233676   5.660   5.571   0.226
 4014TIP3    H133677   5.676   5.614   0.142
 4014TIP3    H233678   5.572   5.534   0.218
 4015TIP3   OH233679   3.525   5.677   0.732
 4015TIP3    H133680   3.446   5.674   0.678
 4015TIP3    H233681   3.533   5.769   0.759
 4016TIP3   OH233682   1.892   2.257   8.802
 4016TIP3    H133683   1.811   2.249   8.751
 4016TIP3    H233684   1.947   2.186   8.770
 4017TIP3   OH233685   4.905   1.397   7.031
 4017TIP3    H133686   4.841   1.378   6.962
 4017TIP3    H233687   4.934   1.311   7.061
 4018TIP3   OH233688   1.454   1.021   1.229
 4018TIP3    H133689   1.487   0.934   1.204
 4018TIP3    H233690   1.528   1.062   1.273
 4019TIP3   OH233691   6.425   0.930   0.611
 4019TIP3    H133692   6.467   0.864   0.666
 4019TIP3    H233693   6.357   0.968   0.667
 4020TIP3   OH233694   3.882   1.822   6.763
 4020TIP3    H133695   3.790   1.804   6.744
 4020TIP3    H233696   3.930   1.772   6.696
 4021TIP3   OH233697   0.477   5.643   2.847
 4021TIP3    H133698   0.459   5.736   2.834
 4021TIP3    H233699   0.444   5.601   2.767
 4022TIP3   OH233700   4.208   3.146   7.074
 4022TIP3    H133701   4.244   3.106   6.995
 4022TIP3    H233702   4.123   3.104   7.086
 4023TIP3   OH233703   1.929   4.328   1.323
 4023TIP3    H133704   1.873   4.389   1.274
 4023TIP3    H233705   1.881   4.246   1.323
 4024TIP3   OH233706   1.386   3.402   6.782
 4024TIP3    H133707   1.320   3.459   6.822
 4024TIP3    H233708   1.408   3.445   6.699
 4025TIP3   OH233709   5.759   1.978   0.005
 4025TIP3    H133710   5.844   1.998  -0.033
 4025TIP3    H233711   5.725   1.906  -0.047
 4026TIP3   OH233712   4.889   6.592   0.688
 4026TIP3    H133713   4.951   6.666   0.686
 4026TIP3    H233714   4.803   6.633   0.687
 4027TIP3   OH233715   6.497   5.124   7.021
 4027TIP3    H133716   6.443   5.120   6.942
 4027TIP3    H233717   6.542   5.208   7.015
 4028TIP3   OH233718   5.565   2.054   6.752
 4028TIP3    H133719   5.523   2.074   6.669
 4028TIP3    H233720   5.658   2.071   6.737
 4029TIP3   OH233721   5.331   0.737   0.250
 4029TIP3    H133722   5.386   0.669   0.211
 4029TIP3    H233723   5.301   0.700   0.333
 4030TIP3   OH233724   0.549   1.762   1.808
 4030TIP3    H133725   0.497   1.842   1.812
 4030TIP3    H233726   0.484   1.691   1.809
 4031TIP3   OH233727   6.049   6.697   1.148
 4031TIP3    H133728   6.013   6.777   1.110
 4031TIP3    H233729   6.086   6.649   1.074
 4032TIP3   OH233730   3.145   5.730   0.119
 4032TIP3    H133731   3.060   5.725   0.164
 4032TIP3    H233732   3.186   5.645   0.138
 4033TIP3   OH233733   5.363   1.467   7.517
 4033TIP3    H133734   5.333   1.504   7.600
 4033TIP3    H233735   5.291   1.411   7.489
 4034TIP3   OH233736   2.834   3.239   8.383
 4034TIP3    H133737   2.910   3.181   8.373
 4034TIP3    H233738   2.808   3.261   8.294
 4035TIP3   OH233739   1.667   3.444   8.256
 4035TIP3    H133740   1.736   3.380   8.272
 4035TIP3    H233741   1.701   3.501   8.187
 4036TIP3   OH233742   5.037   3.567   0.502
 4036TIP3    H133743   5.006   3.525   0.422
 4036TIP3    H233744   5.067   3.495   0.557
 4037TIP3   OH233745   3.329   1.636   7.832
 4037TIP3    H133746   3.380   1.601   7.759
 4037TIP3    H233747   3.303   1.724   7.802
 4038TIP3   OH233748   5.845   5.428   2.586
 4038TIP3    H133749   5.838   5.375   2.665
 4038TIP3    H233750   5.940   5.437   2.572
 4039TIP3   OH233751   4.470   2.805   1.548
 4039TIP3    H133752   4.439   2.888   1.512
 4039TIP3    H233753   4.481   2.748   1.472
 4040TIP3   OH233754   0.711   0.906   7.786
 4040TIP3    H133755   0.739   0.923   7.876
 4040TIP3    H233756   0.776   0.953   7.732
 4041TIP3   OH233757   2.630   1.929   8.306
 4041TIP3    H133758   2.681   1.881   8.241
 4041TIP3    H233759   2.539   1.901   8.292
 4042TIP3   OH233760   5.390   2.083   6.507
 4042TIP3    H133761   5.444   2.047   6.437
 4042TIP3    H233762   5.357   2.005   6.553
 4043TIP3   OH233763   2.713   4.941   7.949
 4043TIP3    H133764   2.623   4.909   7.937
 4043TIP3    H233765   2.726   4.940   8.044
 4044TIP3   OH233766   4.755   6.004   1.545
 4044TIP3    H133767   4.675   5.982   1.498
 4044TIP3    H233768   4.725   6.024   1.634
 4045TIP3   OH233769   5.382   1.101   7.755
 4045TIP3    H133770   5.404   1.069   7.843
 4045TIP3    H233771   5.397   1.195   7.759
 4046TIP3   OH233772   2.611   0.263   6.590
 4046TIP3    H133773   2.565   0.293   6.512
 4046TIP3    H233774   2.553   0.286   6.663
 4047TIP3   OH233775   2.814   0.187   1.511
 4047TIP3    H133776   2.824   0.185   1.416
 4047TIP3    H233777   2.903   0.197   1.545
 4048TIP3   OH233778   6.661   5.108   1.961
 4048TIP3    H133779   6.665   5.030   1.905
 4048TIP3    H233780   6.574   5.145   1.944
 4049TIP3   OH233781   3.692   3.732   6.153
 4049TIP3    H133782   3.766   3.771   6.199
 4049TIP3    H233783   3.626   3.719   6.221
 4050TIP3   OH233784   4.908   6.645   7.177
 4050TIP3    H133785   4.962   6.588   7.232
 4050TIP3    H233786   4.838   6.588   7.145
 4051TIP3   OH233787   0.846   2.100   1.829
 4051TIP3    H133788   0.760   2.074   1.860
 4051TIP3    H233789   0.888   2.140   1.905
 4052TIP3   OH233790   0.211   0.939   0.730
 4052TIP3    H133791   0.247   0.879   0.795
 4052TIP3    H233792   0.146   0.990   0.779
 4053TIP3   OH233793   2.047   4.666   1.724
 4053TIP3    H133794   2.019   4.722   1.797
 4053TIP3    H233795   1.997   4.585   1.735
 4054TIP3   OH233796   1.796   6.772   6.017
 4054TIP3    H133797   1.881   6.814   6.004
 4054TIP3    H233798   1.732   6.841   5.999
 4055TIP3   OH233799   1.435   5.839   8.510
 4055TIP3    H133800   1.472   5.922   8.481
 4055TIP3    H233801   1.352   5.862   8.552
 4056TIP3   OH233802   5.801   2.922   0.359
 4056TIP3    H133803   5.821   2.931   0.265
 4056TIP3    H233804   5.829   2.833   0.380
 4057TIP3   OH233805   1.873   6.320   1.517
 4057TIP3    H133806   1.964   6.350   1.511
 4057TIP3    H233807   1.880   6.232   1.555
 4058TIP3   OH233808   0.963   5.986   7.421
 4058TIP3    H133809   0.984   5.972   7.513
 4058TIP3    H233810   0.972   6.081   7.408
 4059TIP3   OH233811   0.762   1.506   7.194
 4059TIP3    H133812   0.729   1.581   7.145
 4059TIP3    H233813   0.695   1.438   7.184
 4060TIP3   OH233814   5.276   4.240   0.637
 4060TIP3    H133815   5.213   4.264   0.705
 4060TIP3    H233816   5.290   4.146   0.649
 4061TIP3   OH233817   3.988   1.657   7.857
 4061TIP3    H133818   3.895   1.680   7.852
 4061TIP3    H233819   3.990   1.563   7.842
 4062TIP3   OH233820   6.753   0.021   1.507
 4062TIP3    H133821   6.780   0.013   1.415
 4062TIP3    H233822   6.689  -0.049   1.519
 4063TIP3   OH233823   5.763   0.285   7.574
 4063TIP3    H133824   5.676   0.251   7.555
 4063TIP3    H233825   5.809   0.213   7.617
 4064TIP3   OH233826   4.632   3.245   0.444
 4064TIP3    H133827   4.707   3.188   0.424
 4064TIP3    H233828   4.640   3.318   0.384
 4065TIP3   OH233829   3.591   4.249   6.741
 4065TIP3    H133830   3.592   4.209   6.654
 4065TIP3    H233831   3.498   4.253   6.764
 4066TIP3   OH233832   0.682   0.219   7.155
 4066TIP3    H133833   0.775   0.239   7.147
 4066TIP3    H233834   0.650   0.218   7.065
 4067TIP3   OH233835   0.728   3.223   8.063
 4067TIP3    H133836   0.753   3.302   8.015
 4067TIP3    H233837   0.741   3.245   8.155
 4068TIP3   OH233838   1.396   0.986   7.059
 4068TIP3    H133839   1.402   1.050   6.988
 4068TIP3    H233840   1.480   0.941   7.058
 4069TIP3   OH233841   6.446   6.043   8.249
 4069TIP3    H133842   6.439   5.986   8.325
 4069TIP3    H233843   6.438   5.985   8.174
 4070TIP3   OH233844   3.107   6.548   0.038
 4070TIP3    H133845   3.163   6.510  -0.030
 4070TIP3    H233846   3.018   6.538   0.004
 4071TIP3   OH233847   2.367   4.819   1.013
 4071TIP3    H133848   2.436   4.885   1.008
 4071TIP3    H233849   2.296   4.862   1.061
 4072TIP3   OH233850   3.358   5.995   7.339
 4072TIP3    H133851   3.434   5.970   7.391
 4072TIP3    H233852   3.394   6.033   7.259
 4073TIP3   OH233853   5.337   6.313   0.565
 4073TIP3    H133854   5.291   6.325   0.648
 4073TIP3    H233855   5.393   6.237   0.579
 4074TIP3   OH233856   5.434   1.880   0.630
 4074TIP3    H133857   5.449   1.792   0.595
 4074TIP3    H233858   5.445   1.938   0.556
 4075TIP3   OH233859   1.716   3.039   2.541
 4075TIP3    H133860   1.716   3.109   2.475
 4075TIP3    H233861   1.798   2.993   2.526
 4076TIP3   OH233862   3.956   2.779   8.084
 4076TIP3    H133863   3.975   2.722   8.157
 4076TIP3    H233864   4.013   2.855   8.096
 4077TIP3   OH233865   0.261   2.652   1.811
 4077TIP3    H133866   0.171   2.658   1.846
 4077TIP3    H233867   0.286   2.743   1.793
 4078TIP3   OH233868   0.012   0.711   8.047
 4078TIP3    H133869  -0.071   0.675   8.017
 4078TIP3    H233870   0.079   0.651   8.013
 4079TIP3   OH233871   2.578   0.659   2.381
 4079TIP3    H133872   2.638   0.716   2.428
 4079TIP3    H233873   2.504   0.649   2.441
 4080TIP3   OH233874   2.681   5.248   0.906
 4080TIP3    H133875   2.743   5.322   0.904
 4080TIP3    H233876   2.713   5.188   0.839
 4081TIP3   OH233877   1.245   2.876   1.727
 4081TIP3    H133878   1.161   2.845   1.761
 4081TIP3    H233879   1.222   2.927   1.649
 4082TIP3   OH233880   5.694   6.042   0.898
 4082TIP3    H133881   5.772   5.999   0.866
 4082TIP3    H233882   5.646   6.067   0.819
 4083TIP3   OH233883   0.083   2.421   0.970
 4083TIP3    H133884  -0.012   2.433   0.961
 4083TIP3    H233885   0.104   2.462   1.054
 4084TIP3   OH233886   0.491   4.577   7.459
 4084TIP3    H133887   0.411   4.618   7.493
 4084TIP3    H233888   0.476   4.483   7.468
 4085TIP3   OH233889   5.232   6.673   8.910
 4085TIP3    H133890   5.222   6.707   8.999
 4085TIP3    H233891   5.322   6.641   8.906
 4086TIP3   OH233892   5.511   1.778   0.343
 4086TIP3    H133893   5.564   1.705   0.312
 4086TIP3    H233894   5.424   1.763   0.305
 4087TIP3   OH233895   5.395   5.901   0.276
 4087TIP3    H133896   5.360   5.827   0.227
 4087TIP3    H233897   5.331   5.917   0.345
 4088TIP3   OH233898   3.683   4.165   0.682
 4088TIP3    H133899   3.719   4.242   0.638
 4088TIP3    H233900   3.759   4.122   0.722
 4089TIP3   OH233901   0.109   2.159   0.827
 4089TIP3    H133902   0.033   2.195   0.781
 4089TIP3    H233903   0.118   2.214   0.904
 4090TIP3   OH233904   1.026   1.635   8.895
 4090TIP3    H133905   1.114   1.657   8.865
 4090TIP3    H233906   1.000   1.561   8.840
 4091TIP3   OH233907   4.905   5.500   1.046
 4091TIP3    H133908   4.921   5.449   0.967
 4091TIP3    H233909   4.960   5.578   1.037
 4092TIP3   OH233910   1.485   5.923   8.006
 4092TIP3    H133911   1.561   5.865   8.018
 4092TIP3    H233912   1.423   5.870   7.956
 4093TIP3   OH233913   4.235   1.253   0.186
 4093TIP3    H133914   4.150   1.285   0.156
 4093TIP3    H233915   4.243   1.166   0.147
 4094TIP3   OH233916   5.351   4.709   1.627
 4094TIP3    H133917   5.363   4.791   1.579
 4094TIP3    H233918   5.332   4.645   1.559
 4095TIP3   OH233919   0.767   5.706   0.996
 4095TIP3    H133920   0.674   5.707   1.020
 4095TIP3    H233921   0.794   5.798   0.998
 4096TIP3   OH233922   0.871   5.280   7.037
 4096TIP3    H133923   0.870   5.346   6.968
 4096TIP3    H233924   0.798   5.221   7.015
 4097TIP3   OH233925   6.167   0.235   6.996
 4097TIP3    H133926   6.074   0.247   6.978
 4097TIP3    H233927   6.186   0.146   6.966
 4098TIP3   OH233928   1.491   4.762   1.317
 4098TIP3    H133929   1.542   4.717   1.249
 4098TIP3    H233930   1.401   4.732   1.303
 4099TIP3   OH233931   0.615   6.431   7.624
 4099TIP3    H133932   0.673   6.379   7.680
 4099TIP3    H233933   0.635   6.522   7.647
 4100TIP3   OH233934   3.493   2.461   7.778
 4100TIP3    H133935   3.457   2.524   7.840
 4100TIP3    H233936   3.570   2.505   7.742
 4101TIP3   OH233937   5.239   4.984   7.527
 4101TIP3    H133938   5.275   5.030   7.603
 4101TIP3    H233939   5.308   4.992   7.460
 4102TIP3   OH233940   1.188   1.206   8.707
 4102TIP3    H133941   1.125   1.222   8.636
 4102TIP3    H233942   1.260   1.266   8.689
 4103TIP3   OH233943   2.224   1.254   7.705
 4103TIP3    H133944   2.150   1.198   7.686
 4103TIP3    H233945   2.296   1.194   7.724
 4104TIP3   OH233946   4.500   4.652   0.620
 4104TIP3    H133947   4.490   4.614   0.707
 4104TIP3    H233948   4.581   4.702   0.625
 4105TIP3   OH233949   2.813   5.369   1.882
 4105TIP3    H133950   2.863   5.375   1.964
 4105TIP3    H233951   2.877   5.387   1.813
 4106TIP3   OH233952   4.612   0.098   0.761
 4106TIP3    H133953   4.533   0.152   0.750
 4106TIP3    H233954   4.638   0.112   0.852
 4107TIP3   OH233955   5.645   0.900   0.317
 4107TIP3    H133956   5.693   0.980   0.294
 4107TIP3    H233957   5.673   0.880   0.406
 4108TIP3   OH233958   5.916   5.665   0.880
 4108TIP3    H133959   5.893   5.595   0.820
 4108TIP3    H233960   5.928   5.742   0.824
 4109TIP3   OH233961   4.607   0.806   6.484
 4109TIP3    H133962   4.554   0.750   6.540
 4109TIP3    H233963   4.599   0.767   6.397
 4110TIP3   OH233964   3.179   1.384   8.535
 4110TIP3    H133965   3.273   1.392   8.518
 4110TIP3    H233966   3.150   1.316   8.475
 4111TIP3   OH233967   3.365   1.188   6.829
 4111TIP3    H133968   3.385   1.166   6.920
 4111TIP3    H233969   3.431   1.254   6.806
 4112TIP3   OH233970   4.941   3.418   7.596
 4112TIP3    H133971   5.026   3.403   7.637
 4112TIP3    H233972   4.922   3.336   7.550
 4113TIP3   OH233973   6.350   6.577   0.116
 4113TIP3    H133974   6.439   6.542   0.120
 4113TIP3    H233975   6.328   6.576   0.023
 4114TIP3   OH233976   2.684   1.283   0.742
 4114TIP3    H133977   2.766   1.255   0.785
 4114TIP3    H233978   2.704   1.280   0.648
 4115TIP3   OH233979   2.046   0.195   6.631
 4115TIP3    H133980   2.120   0.221   6.576
 4115TIP3    H233981   2.086   0.171   6.715
 4116TIP3   OH233982   5.343   5.696   2.388
 4116TIP3    H133983   5.405   5.635   2.428
 4116TIP3    H233984   5.335   5.768   2.450
 4117TIP3   OH233985   4.935   0.301   7.426
 4117TIP3    H133986   4.862   0.353   7.460
 4117TIP3    H233987   5.004   0.311   7.492
 4118TIP3   OH233988   5.802   2.269   1.818
 4118TIP3    H133989   5.849   2.200   1.773
 4118TIP3    H233990   5.823   2.257   1.911
 4119TIP3   OH233991   2.731   5.143   6.890
 4119TIP3    H133992   2.746   5.060   6.846
 4119TIP3    H233993   2.755   5.209   6.826
 4120TIP3   OH233994   6.039   6.321   8.352
 4120TIP3    H133995   5.998   6.324   8.266
 4120TIP3    H233996   6.042   6.227   8.374
 4121TIP3   OH233997   2.478   5.762   0.958
 4121TIP3    H133998   2.498   5.844   1.003
 4121TIP3    H233999   2.503   5.694   1.020
 4122TIP3   OH234000   4.912   4.646   0.704
 4122TIP3    H134001   4.832   4.696   0.686
 4122TIP3    H234002   4.929   4.599   0.622
 4123TIP3   OH234003   5.906   6.069   1.340
 4123TIP3    H134004   5.946   6.004   1.282
 4123TIP3    H234005   5.850   6.018   1.398
 4124TIP3   OH234006   2.013   4.663   1.364
 4124TIP3    H134007   2.049   4.606   1.431
 4124TIP3    H234008   2.007   4.749   1.405
 4125TIP3   OH234009   4.420   6.122   7.552
 4125TIP3    H134010   4.347   6.175   7.584
 4125TIP3    H234011   4.473   6.105   7.631
 4126TIP3   OH234012   5.255   5.586   6.308
 4126TIP3    H134013   5.218   5.523   6.245
 4126TIP3    H234014   5.180   5.615   6.360
 4127TIP3   OH234015   2.917   4.121   1.111
 4127TIP3    H134016   2.854   4.130   1.183
 4127TIP3    H234017   2.870   4.072   1.044
 4128TIP3   OH234018   0.837   2.464   0.247
 4128TIP3    H134019   0.776   2.392   0.257
 4128TIP3    H234020   0.790   2.529   0.194
 4129TIP3   OH234021   5.487   0.607   0.525
 4129TIP3    H134022   5.486   0.584   0.432
 4129TIP3    H234023   5.397   0.591   0.555
 4130TIP3   OH234024   0.944   6.777   7.820
 4130TIP3    H134025   0.995   6.853   7.847
 4130TIP3    H234026   0.986   6.748   7.739
 4131TIP3   OH234027   6.070   2.538   8.749
 4131TIP3    H134028   6.005   2.566   8.814
 4131TIP3    H234029   6.053   2.593   8.673
 4132TIP3   OH234030   3.635   3.085   7.177
 4132TIP3    H134031   3.729   3.073   7.190
 4132TIP3    H234032   3.627   3.114   7.086
 4133TIP3   OH234033   4.887   5.697   1.302
 4133TIP3    H134034   4.812   5.757   1.299
 4133TIP3    H234035   4.960   5.752   1.330
 4134TIP3   OH234036   2.450   4.341   8.563
 4134TIP3    H134037   2.361   4.366   8.588
 4134TIP3    H234038   2.447   4.246   8.554
 4135TIP3   OH234039   1.100   0.812   0.138
 4135TIP3    H134040   1.085   0.717   0.137
 4135TIP3    H234041   1.118   0.835   0.047
 4136TIP3   OH234042   5.380   4.043   1.812
 4136TIP3    H134043   5.294   4.002   1.823
 4136TIP3    H234044   5.386   4.107   1.883
 4137TIP3   OH234045   6.408   4.190   2.417
 4137TIP3    H134046   6.378   4.254   2.481
 4137TIP3    H234047   6.479   4.143   2.461
 4138TIP3   OH234048   3.359   3.531   1.963
 4138TIP3    H134049   3.273   3.556   1.927
 4138TIP3    H234050   3.412   3.610   1.954
 4139TIP3   OH234051   2.596   6.689   0.546
 4139TIP3    H134052   2.510   6.673   0.510
 4139TIP3    H234053   2.594   6.649   0.633
 4140TIP3   OH234054   3.688   4.703   0.547
 4140TIP3    H134055   3.658   4.702   0.456
 4140TIP3    H234056   3.657   4.619   0.583
 4141TIP3   OH234057   4.597   6.253   6.900
 4141TIP3    H134058   4.504   6.272   6.906
 4141TIP3    H234059   4.622   6.281   6.812
 4142TIP3   OH234060   0.059   0.848   0.349
 4142TIP3    H134061   0.117   0.914   0.310
 4142TIP3    H234062  -0.027   0.868   0.311
 4143TIP3   OH234063   3.674   1.306   8.143
 4143TIP3    H134064   3.623   1.331   8.066
 4143TIP3    H234065   3.634   1.224   8.173
 4144TIP3   OH234066   1.469   6.394   1.232
 4144TIP3    H134067   1.408   6.460   1.198
 4144TIP3    H234068   1.486   6.336   1.157
 4145TIP3   OH234069   4.842   4.011   2.119
 4145TIP3    H134070   4.805   3.953   2.186
 4145TIP3    H234071   4.935   4.017   2.142
 4146TIP3   OH234072   6.536   1.474   8.756
 4146TIP3    H134073   6.610   1.518   8.797
 4146TIP3    H234074   6.479   1.545   8.726
 4147TIP3   OH234075   2.298   1.079   0.256
 4147TIP3    H134076   2.299   1.001   0.311
 4147TIP3    H234077   2.269   1.149   0.315
 4148TIP3   OH234078   5.291   0.832   7.701
 4148TIP3    H134079   5.273   0.907   7.757
 4148TIP3    H234080   5.286   0.866   7.612
 4149TIP3   OH234081   3.806   2.742   0.515
 4149TIP3    H134082   3.811   2.647   0.509
 4149TIP3    H234083   3.818   2.773   0.426
 4150TIP3   OH234084   0.634   4.368   1.225
 4150TIP3    H134085   0.567   4.320   1.177
 4150TIP3    H234086   0.715   4.348   1.179
 4151TIP3   OH234087   5.958   6.574   0.218
 4151TIP3    H134088   5.997   6.525   0.145
 4151TIP3    H234089   5.872   6.533   0.231
 4152TIP3   OH234090   4.133   6.214   7.365
 4152TIP3    H134091   4.178   6.298   7.356
 4152TIP3    H234092   4.056   6.222   7.308
 4153TIP3   OH234093   1.860   3.157   8.208
 4153TIP3    H134094   1.825   3.161   8.119
 4153TIP3    H234095   1.846   3.067   8.236
 4154TIP3   OH234096   6.353   0.404   0.930
 4154TIP3    H134097   6.266   0.404   0.890
 4154TIP3    H234098   6.377   0.496   0.936
 4155TIP3   OH234099   6.634   2.710   8.529
 4155TIP3    H134100   6.574   2.728   8.456
 4155TIP3    H234101   6.715   2.755   8.505
 4156TIP3   OH234102   0.745   1.376   7.647
 4156TIP3    H134103   0.766   1.348   7.736
 4156TIP3    H234104   0.743   1.472   7.652
 4157TIP3   OH234105   4.157   1.143   7.141
 4157TIP3    H134106   4.076   1.092   7.130
 4157TIP3    H234107   4.165   1.192   7.059
 4158TIP3   OH234108   1.682   6.462   1.635
 4158TIP3    H134109   1.658   6.526   1.567
 4158TIP3    H234110   1.766   6.426   1.606
 4159TIP3   OH234111   1.149   6.309   1.240
 4159TIP3    H134112   1.207   6.259   1.299
 4159TIP3    H234113   1.074   6.251   1.226
 4160TIP3   OH234114   3.028   4.715   6.178
 4160TIP3    H134115   2.961   4.768   6.222
 4160TIP3    H234116   3.111   4.754   6.206
 4161TIP3   OH234117   4.247   4.188   0.347
 4161TIP3    H134118   4.309   4.118   0.369
 4161TIP3    H234119   4.215   4.220   0.432
 4162TIP3   OH234120   6.459   3.573   7.297
 4162TIP3    H134121   6.446   3.591   7.204
 4162TIP3    H234122   6.372   3.579   7.336
 4163TIP3   OH234123   5.600   4.480   2.049
 4163TIP3    H134124   5.534   4.508   1.986
 4163TIP3    H234125   5.585   4.536   2.126
 4164TIP3   OH234126   1.961   1.296   8.592
 4164TIP3    H134127   1.894   1.345   8.641
 4164TIP3    H234128   1.924   1.208   8.583
 4165TIP3   OH234129   3.855   3.150   7.632
 4165TIP3    H134130   3.818   3.150   7.720
 4165TIP3    H234131   3.792   3.101   7.579
 4166TIP3   OH234132   0.405   6.262   7.220
 4166TIP3    H134133   0.345   6.306   7.279
 4166TIP3    H234134   0.374   6.284   7.132
 4167TIP3   OH234135   3.176   4.562   1.685
 4167TIP3    H134136   3.158   4.492   1.623
 4167TIP3    H234137   3.202   4.517   1.766
 4168TIP3   OH234138   4.772   5.038   8.267
 4168TIP3    H134139   4.752   5.128   8.294
 4168TIP3    H234140   4.744   4.984   8.341
 4169TIP3   OH234141   4.362   3.167   0.320
 4169TIP3    H134142   4.304   3.240   0.342
 4169TIP3    H234143   4.447   3.192   0.357
 4170TIP3   OH234144   1.145   0.927   1.661
 4170TIP3    H134145   1.150   0.920   1.756
 4170TIP3    H234146   1.058   0.892   1.639
 4171TIP3   OH234147   1.108   3.645   8.257
 4171TIP3    H134148   1.146   3.635   8.344
 4171TIP3    H234149   1.057   3.726   8.263
 4172TIP3   OH234150   4.064   4.548   6.941
 4172TIP3    H134151   4.022   4.633   6.947
 4172TIP3    H234152   4.155   4.565   6.964
 4173TIP3   OH234153   3.387   1.426   8.203
 4173TIP3    H134154   3.412   1.406   8.293
 4173TIP3    H234155   3.408   1.346   8.154
 4174TIP3   OH234156   3.550   6.233   1.559
 4174TIP3    H134157   3.535   6.234   1.465
 4174TIP3    H234158   3.516   6.149   1.588
 4175TIP3   OH234159   5.954   1.306   7.565
 4175TIP3    H134160   5.998   1.341   7.487
 4175TIP3    H234161   5.985   1.215   7.570
 4176TIP3   OH234162   5.649   5.797   2.364
 4176TIP3    H134163   5.658   5.766   2.455
 4176TIP3    H234164   5.571   5.852   2.365
 4177TIP3   OH234165   5.810   1.246   1.705
 4177TIP3    H134166   5.861   1.283   1.776
 4177TIP3    H234167   5.824   1.152   1.712
 4178TIP3   OH234168   5.277   4.019   0.266
 4178TIP3    H134169   5.233   4.004   0.182
 4178TIP3    H234170   5.288   3.932   0.303
 4179TIP3   OH234171   6.710   1.936   1.265
 4179TIP3    H134172   6.746   1.908   1.181
 4179TIP3    H234173   6.747   1.874   1.328
 4180TIP3   OH234174   2.202   0.692   7.041
 4180TIP3    H134175   2.135   0.696   6.972
 4180TIP3    H234176   2.181   0.613   7.090
 4181TIP3   OH234177   3.914   0.737   1.494
 4181TIP3    H134178   3.992   0.763   1.543
 4181TIP3    H234179   3.948   0.714   1.407
 4182TIP3   OH234180   0.161   6.268   0.128
 4182TIP3    H134181   0.210   6.324   0.067
 4182TIP3    H234182   0.111   6.329   0.182
 4183TIP3   OH234183   1.950   3.857   6.548
 4183TIP3    H134184   2.020   3.817   6.600
 4183TIP3    H234185   1.979   3.947   6.536
 4184TIP3   OH234186   3.502   3.090   1.610
 4184TIP3    H134187   3.587   3.045   1.613
 4184TIP3    H234188   3.463   3.064   1.527
 4185TIP3   OH234189   4.415   2.886   0.672
 4185TIP3    H134190   4.466   2.953   0.717
 4185TIP3    H234191   4.446   2.888   0.581
 4186TIP3   OH234192   2.422   1.614   0.045
 4186TIP3    H134193   2.432   1.523   0.016
 4186TIP3    H234194   2.328   1.627   0.050
 4187TIP3   OH234195   2.826   0.474   1.254
 4187TIP3    H134196   2.919   0.451   1.244
 4187TIP3    H234197   2.816   0.493   1.347
 4188TIP3   OH234198   3.859   2.659   8.922
 4188TIP3    H134199   3.810   2.742   8.923
 4188TIP3    H234200   3.904   2.657   9.006
 4189TIP3   OH234201   3.466   4.992   0.206
 4189TIP3    H134202   3.486   4.906   0.244
 4189TIP3    H234203   3.425   5.041   0.277
 4190TIP3   OH234204   6.438   3.923   7.674
 4190TIP3    H134205   6.482   3.948   7.593
 4190TIP3    H234206   6.378   3.853   7.648
 4191TIP3   OH234207   2.217   3.264   7.598
 4191TIP3    H134208   2.283   3.203   7.630
 4191TIP3    H234209   2.227   3.342   7.652
 4192TIP3   OH234210   3.403   4.833   8.936
 4192TIP3    H134211   3.379   4.859   9.025
 4192TIP3    H234212   3.332   4.776   8.908
 4193TIP3   OH234213   6.085   6.516   7.862
 4193TIP3    H134214   6.001   6.537   7.821
 4193TIP3    H234215   6.070   6.433   7.907
 4194TIP3   OH234216   6.480   2.018   7.020
 4194TIP3    H134217   6.476   1.945   6.958
 4194TIP3    H234218   6.569   2.053   7.011
 4195TIP3   OH234219   0.334   4.976   3.200
 4195TIP3    H134220   0.293   4.970   3.114
 4195TIP3    H234221   0.373   4.889   3.214
 4196TIP3   OH234222   2.549   0.413   1.401
 4196TIP3    H134223   2.625   0.431   1.456
 4196TIP3    H234224   2.569   0.454   1.318
 4197TIP3   OH234225   2.968   4.041   7.523
 4197TIP3    H134226   2.972   3.946   7.511
 4197TIP3    H234227   3.049   4.063   7.568
 4198TIP3   OH234228   5.929   1.111   7.290
 4198TIP3    H134229   6.013   1.109   7.336
 4198TIP3    H234230   5.937   1.184   7.229
 4199TIP3   OH234231   0.851   4.250   8.694
 4199TIP3    H134232   0.869   4.308   8.620
 4199TIP3    H234233   0.898   4.290   8.767
 4200TIP3   OH234234   4.945   1.080   8.615
 4200TIP3    H134235   5.032   1.063   8.580
 4200TIP3    H234236   4.913   0.995   8.643
 4201TIP3   OH234237   4.227   4.051   7.312
 4201TIP3    H134238   4.183   3.999   7.245
 4201TIP3    H234239   4.245   4.135   7.270
 4202TIP3   OH234240   1.104   4.544   1.018
 4202TIP3    H134241   1.179   4.547   0.958
 4202TIP3    H234242   1.028   4.539   0.960
 4203TIP3   OH234243   2.602   1.888   7.484
 4203TIP3    H134244   2.538   1.849   7.543
 4203TIP3    H234245   2.679   1.833   7.492
 4204TIP3   OH234246   3.328   2.005   6.136
 4204TIP3    H134247   3.274   1.938   6.094
 4204TIP3    H234248   3.286   2.088   6.113
 4205TIP3   OH234249   0.896   0.076   1.305
 4205TIP3    H134250   0.851   0.143   1.355
 4205TIP3    H234251   0.958   0.124   1.250
 4206TIP3   OH234252   3.763   1.715   7.288
 4206TIP3    H134253   3.757   1.777   7.360
 4206TIP3    H234254   3.855   1.687   7.288
 4207TIP3   OH234255   1.034   1.220   8.485
 4207TIP3    H134256   0.962   1.253   8.430
 4207TIP3    H234257   1.003   1.135   8.515
 4208TIP3   OH234258   4.284   5.017   7.333
 4208TIP3    H134259   4.233   4.983   7.259
 4208TIP3    H234260   4.294   5.110   7.314
 4209TIP3   OH234261   6.181   3.489   7.711
 4209TIP3    H134262   6.104   3.432   7.704
 4209TIP3    H234263   6.209   3.479   7.802
 4210TIP3   OH234264   6.192   5.197   7.194
 4210TIP3    H134265   6.282   5.173   7.213
 4210TIP3    H234266   6.199   5.266   7.128
 4211TIP3   OH234267   5.270   4.411   7.317
 4211TIP3    H134268   5.229   4.449   7.239
 4211TIP3    H234269   5.299   4.324   7.289
 4212TIP3   OH234270   3.082   0.780   0.258
 4212TIP3    H134271   3.175   0.764   0.239
 4212TIP3    H234272   3.044   0.800   0.173
 4213TIP3   OH234273   2.305   0.280   6.264
 4213TIP3    H134274   2.254   0.205   6.297
 4213TIP3    H234275   2.239   0.347   6.244
 4214TIP3   OH234276   4.189   5.175   8.875
 4214TIP3    H134277   4.185   5.126   8.957
 4214TIP3    H234278   4.214   5.110   8.809
 4215TIP3   OH234279   4.796   5.600   7.777
 4215TIP3    H134280   4.821   5.515   7.813
 4215TIP3    H234281   4.701   5.605   7.791
 4216TIP3   OH234282   5.781   1.289   0.191
 4216TIP3    H134283   5.813   1.331   0.111
 4216TIP3    H234284   5.858   1.282   0.248
 4217TIP3   OH234285   3.499   6.202   0.351
 4217TIP3    H134286   3.416   6.177   0.391
 4217TIP3    H234287   3.474   6.252   0.273
 4218TIP3   OH234288   6.735   5.879   8.046
 4218TIP3    H134289   6.662   5.824   8.016
 4218TIP3    H234290   6.696   5.965   8.060
 4219TIP3   OH234291   5.376   4.964   2.054
 4219TIP3    H134292   5.464   4.928   2.044
 4219TIP3    H234293   5.383   5.026   2.126
 4220TIP3   OH234294   4.444   6.648   8.799
 4220TIP3    H134295   4.486   6.693   8.872
 4220TIP3    H234296   4.394   6.716   8.754
 4221TIP3   OH234297   0.886   3.033   1.115
 4221TIP3    H134298   0.891   2.955   1.170
 4221TIP3    H234299   0.869   3.000   1.027
 4222TIP3   OH234300   1.429   1.805   7.954
 4222TIP3    H134301   1.362   1.796   7.885
 4222TIP3    H234302   1.407   1.887   7.998
 4223TIP3   OH234303   6.223   4.284   1.864
 4223TIP3    H134304   6.222   4.292   1.960
 4223TIP3    H234305   6.251   4.194   1.848
 4224TIP3   OH234306   3.720   2.908   8.814
 4224TIP3    H134307   3.658   2.856   8.763
 4224TIP3    H234308   3.668   2.939   8.889
 4225TIP3   OH234309   5.928   3.448   1.908
 4225TIP3    H134310   5.931   3.353   1.919
 4225TIP3    H234311   5.893   3.480   1.992
 4226TIP3   OH234312   6.347   5.808   7.589
 4226TIP3    H134313   6.418   5.758   7.548
 4226TIP3    H234314   6.267   5.764   7.560
 4227TIP3   OH234315   4.493   0.182   1.617
 4227TIP3    H134316   4.542   0.198   1.537
 4227TIP3    H234317   4.477   0.270   1.653
 4228TIP3   OH234318   5.660   3.446   8.749
 4228TIP3    H134319   5.585   3.501   8.727
 4228TIP3    H234320   5.729   3.508   8.775
 4229TIP3   OH234321   1.373   4.124   7.150
 4229TIP3    H134322   1.395   4.214   7.123
 4229TIP3    H234323   1.376   4.126   7.246
 4230TIP3   OH234324   4.608   6.278   0.719
 4230TIP3    H134325   4.562   6.197   0.739
 4230TIP3    H234326   4.696   6.264   0.753
 4231TIP3   OH234327   2.273   5.552   0.958
 4231TIP3    H134328   2.314   5.638   0.947
 4231TIP3    H234329   2.233   5.533   0.873
 4232TIP3   OH234330   4.381   4.719   7.358
 4232TIP3    H134331   4.446   4.683   7.418
 4232TIP3    H234332   4.369   4.810   7.387
 4233TIP3   OH234333   4.225   5.317   6.317
 4233TIP3    H134334   4.165   5.244   6.305
 4233TIP3    H234335   4.285   5.287   6.386
 4234TIP3   OH234336   3.865   2.077   1.097
 4234TIP3    H134337   3.787   2.082   1.151
 4234TIP3    H234338   3.936   2.109   1.154
 4235TIP3   OH234339   1.142   2.771   8.495
 4235TIP3    H134340   1.073   2.831   8.525
 4235TIP3    H234341   1.190   2.748   8.574
 4236TIP3   OH234342   5.642   0.933   0.895
 4236TIP3    H134343   5.558   0.887   0.885
 4236TIP3    H234344   5.653   0.943   0.989
 4237TIP3   OH234345   5.072   5.291   1.932
 4237TIP3    H134346   5.104   5.238   1.859
 4237TIP3    H234347   4.980   5.269   1.940
 4238TIP3   OH234348   5.293   5.989   7.352
 4238TIP3    H134349   5.231   5.919   7.371
 4238TIP3    H234350   5.313   5.980   7.259
 4239TIP3   OH234351   1.247   2.933   2.217
 4239TIP3    H134352   1.262   2.871   2.288
 4239TIP3    H234353   1.157   2.917   2.190
 4240TIP3   OH234354   5.656   4.771   0.475
 4240TIP3    H134355   5.640   4.688   0.429
 4240TIP3    H234356   5.625   4.755   0.564
 4241TIP3   OH234357   2.458   5.564   6.868
 4241TIP3    H134358   2.399   5.502   6.911
 4241TIP3    H234359   2.538   5.514   6.852
 4242TIP3   OH234360   5.082   5.247   1.238
 4242TIP3    H134361   4.989   5.263   1.219
 4242TIP3    H234362   5.099   5.300   1.316
 4243TIP3   OH234363   0.555   1.624   0.157
 4243TIP3    H134364   0.539   1.530   0.147
 4243TIP3    H234365   0.650   1.632   0.156
 4244TIP3   OH234366   4.844   6.714   6.343
 4244TIP3    H134367   4.777   6.779   6.322
 4244TIP3    H234368   4.927   6.760   6.331
 4245TIP3   OH234369   1.079   5.847   1.097
 4245TIP3    H134370   1.144   5.777   1.106
 4245TIP3    H234371   1.088   5.877   1.007
 4246TIP3   OH234372   4.994   3.701   1.665
 4246TIP3    H134373   4.923   3.674   1.607
 4246TIP3    H234374   5.057   3.629   1.661
 4247TIP3   OH234375   0.521   3.453   0.594
 4247TIP3    H134376   0.500   3.364   0.623
 4247TIP3    H234377   0.559   3.495   0.671
 4248TIP3   OH234378   6.482   4.468   8.191
 4248TIP3    H134379   6.445   4.491   8.106
 4248TIP3    H234380   6.489   4.551   8.238
 4249TIP3   OH234381   3.155   4.376   1.260
 4249TIP3    H134382   3.165   4.456   1.208
 4249TIP3    H234383   3.239   4.331   1.253
 4250TIP3   OH234384   5.539   3.466   1.862
 4250TIP3    H134385   5.592   3.522   1.805
 4250TIP3    H234386   5.523   3.519   1.940
 4251TIP3   OH234387   3.891   1.817   1.140
 4251TIP3    H134388   3.879   1.900   1.094
 4251TIP3    H234389   3.976   1.785   1.111
 4252TIP3   OH234390   3.302   5.734   2.056
 4252TIP3    H134391   3.327   5.728   2.148
 4252TIP3    H234392   3.363   5.675   2.011
 4253TIP3   OH234393   5.857   1.407   0.887
 4253TIP3    H134394   5.822   1.495   0.873
 4253TIP3    H234395   5.874   1.402   0.981
 4254TIP3   OH234396   0.772   3.503   1.619
 4254TIP3    H134397   0.838   3.507   1.550
 4254TIP3    H234398   0.817   3.533   1.698
 4255TIP3   OH234399   4.522   0.858   6.955
 4255TIP3    H134400   4.557   0.867   6.867
 4255TIP3    H234401   4.462   0.932   6.966
 4256TIP3   OH234402   6.681   4.530   6.780
 4256TIP3    H134403   6.758   4.483   6.748
 4256TIP3    H234404   6.607   4.489   6.735
 4257TIP3   OH234405   3.943   5.597   1.897
 4257TIP3    H134406   4.027   5.553   1.883
 4257TIP3    H234407   3.877   5.528   1.889
 4258TIP3   OH234408   3.310   4.116   0.395
 4258TIP3    H134409   3.297   4.190   0.454
 4258TIP3    H234410   3.223   4.097   0.361
 4259TIP3   OH234411   4.946   5.643   0.148
 4259TIP3    H134412   5.027   5.591   0.150
 4259TIP3    H234413   4.912   5.630   0.060
 4260TIP3   OH234414   6.649   3.549   8.587
 4260TIP3    H134415   6.701   3.482   8.631
 4260TIP3    H234416   6.569   3.504   8.561
 4261TIP3   OH234417   6.322   6.356   2.065
 4261TIP3    H134418   6.339   6.280   2.119
 4261TIP3    H234419   6.384   6.422   2.096
 4262TIP3   OH234420   3.800   6.566   0.305
 4262TIP3    H134421   3.807   6.626   0.231
 4262TIP3    H234422   3.889   6.563   0.342
 4263TIP3   OH234423   5.189   2.416   0.197
 4263TIP3    H134424   5.267   2.386   0.151
 4263TIP3    H234425   5.216   2.429   0.287
 4264TIP3   OH234426   5.792   0.470   0.900
 4264TIP3    H134427   5.808   0.386   0.857
 4264TIP3    H234428   5.731   0.516   0.842
 4265TIP3   OH234429   5.531   6.761   8.207
 4265TIP3    H134430   5.560   6.759   8.116
 4265TIP3    H234431   5.450   6.710   8.208
 4266TIP3   OH234432   6.477   6.321   0.990
 4266TIP3    H134433   6.475   6.244   0.934
 4266TIP3    H234434   6.513   6.290   1.073
 4267TIP3   OH234435   1.967   5.153   0.646
 4267TIP3    H134436   1.996   5.114   0.564
 4267TIP3    H234437   2.040   5.136   0.707
 4268TIP3   OH234438   4.504   4.615   0.887
 4268TIP3    H134439   4.478   4.707   0.883
 4268TIP3    H234440   4.538   4.603   0.976
 4269TIP3   OH234441   1.215   4.598   7.903
 4269TIP3    H134442   1.170   4.663   7.849
 4269TIP3    H234443   1.305   4.600   7.871
 4270TIP3   OH234444   4.916   2.350   1.213
 4270TIP3    H134445   4.962   2.291   1.272
 4270TIP3    H234446   4.855   2.294   1.165
 4271TIP3   OH234447   6.200   4.625   8.172
 4271TIP3    H134448   6.248   4.696   8.215
 4271TIP3    H234449   6.210   4.644   8.078
 4272TIP3   OH234450   5.331   3.464   6.955
 4272TIP3    H134451   5.385   3.388   6.978
 4272TIP3    H234452   5.363   3.492   6.870
 4273TIP3   OH234453   0.695   0.592   0.907
 4273TIP3    H134454   0.709   0.649   0.982
 4273TIP3    H234455   0.782   0.579   0.869
 4274TIP3   OH234456   0.046   6.420   0.327
 4274TIP3    H134457   0.119   6.469   0.364
 4274TIP3    H234458   0.034   6.346   0.386
 4275TIP3   OH234459   6.737   5.314   7.065
 4275TIP3    H134460   6.760   5.222   7.080
 4275TIP3    H234461   6.760   5.359   7.146
 4276TIP3   OH234462   2.867   5.195   7.988
 4276TIP3    H134463   2.791   5.158   7.944
 4276TIP3    H234464   2.941   5.141   7.960
 4277TIP3   OH234465   4.499   1.650   6.777
 4277TIP3    H134466   4.580   1.695   6.751
 4277TIP3    H234467   4.429   1.707   6.745
 4278TIP3   OH234468   6.443   6.318   7.307
 4278TIP3    H134469   6.422   6.409   7.288
 4278TIP3    H234470   6.381   6.292   7.375
 4279TIP3   OH234471   6.584   1.205   8.426
 4279TIP3    H134472   6.626   1.284   8.393
 4279TIP3    H234473   6.500   1.234   8.461
 4280TIP3   OH234474   5.122   3.632   8.839
 4280TIP3    H134475   5.104   3.621   8.932
 4280TIP3    H234476   5.040   3.666   8.803
 4281TIP3   OH234477   4.223   3.733   8.888
 4281TIP3    H134478   4.270   3.675   8.828
 4281TIP3    H234479   4.291   3.790   8.924
 4282TIP3   OH234480   4.945   3.028   0.694
 4282TIP3    H134481   4.882   2.993   0.632
 4282TIP3    H234482   5.029   3.024   0.648
 4283TIP3   OH234483   1.606   2.214   1.255
 4283TIP3    H134484   1.592   2.192   1.346
 4283TIP3    H234485   1.520   2.243   1.223
 4284TIP3   OH234486   1.506   5.980   1.178
 4284TIP3    H134487   1.498   6.019   1.091
 4284TIP3    H234488   1.416   5.960   1.204
 4285TIP3   OH234489   0.933   4.017   0.272
 4285TIP3    H134490   1.015   4.065   0.286
 4285TIP3    H234491   0.936   3.946   0.336
 4286TIP3   OH234492   2.240   3.009   7.160
 4286TIP3    H134493   2.166   3.052   7.204
 4286TIP3    H234494   2.306   3.078   7.151
 4287TIP3   OH234495   2.311   3.388   1.076
 4287TIP3    H134496   2.237   3.406   1.018
 4287TIP3    H234497   2.372   3.336   1.023
 4288TIP3   OH234498   3.068   1.432   0.909
 4288TIP3    H134499   3.053   1.477   0.826
 4288TIP3    H234500   3.034   1.344   0.896
 4289TIP3   OH234501   6.544   2.728   1.087
 4289TIP3    H134502   6.501   2.701   1.168
 4289TIP3    H234503   6.497   2.681   1.018
 4290TIP3   OH234504   3.564   6.090   2.253
 4290TIP3    H134505   3.513   6.042   2.317
 4290TIP3    H234506   3.523   6.070   2.169
 4291TIP3   OH234507   2.777   5.212   7.669
 4291TIP3    H134508   2.755   5.258   7.587
 4291TIP3    H234509   2.806   5.282   7.728
 4292TIP3   OH234510   1.266   5.056   7.262
 4292TIP3    H134511   1.278   5.090   7.173
 4292TIP3    H234512   1.335   5.099   7.313
 4293TIP3   OH234513   3.719   5.440   8.864
 4293TIP3    H134514   3.778   5.492   8.810
 4293TIP3    H234515   3.776   5.376   8.907
 4294TIP3   OH234516   6.252   3.749   6.579
 4294TIP3    H134517   6.174   3.745   6.524
 4294TIP3    H234518   6.261   3.661   6.615
 4295TIP3   OH234519   3.067   2.823   7.299
 4295TIP3    H134520   3.025   2.790   7.379
 4295TIP3    H234521   3.157   2.842   7.324
 4296TIP3   OH234522   3.060   5.402   0.965
 4296TIP3    H134523   3.138   5.404   1.020
 4296TIP3    H234524   3.093   5.403   0.876
 4297TIP3   OH234525   5.662   4.105   7.499
 4297TIP3    H134526   5.646   4.111   7.593
 4297TIP3    H234527   5.574   4.107   7.460
 4298TIP3   OH234528   3.815   5.352   2.165
 4298TIP3    H134529   3.737   5.395   2.131
 4298TIP3    H234530   3.835   5.398   2.246
 4299TIP3   OH234531   3.662   0.202   0.234
 4299TIP3    H134532   3.613   0.148   0.297
 4299TIP3    H234533   3.727   0.143   0.197
 4300TIP3   OH234534   2.033   1.330   7.940
 4300TIP3    H134535   2.066   1.264   7.880
 4300TIP3    H234536   1.938   1.317   7.942
 4301TIP3   OH234537   3.305   6.537   8.483
 4301TIP3    H134538   3.398   6.547   8.504
 4301TIP3    H234539   3.301   6.457   8.430
 4302TIP3   OH234540   6.224   5.368   7.746
 4302TIP3    H134541   6.246   5.313   7.822
 4302TIP3    H234542   6.272   5.328   7.673
 4303TIP3   OH234543   4.495   5.004   1.578
 4303TIP3    H134544   4.420   5.053   1.612
 4303TIP3    H234545   4.517   4.942   1.648
 4304TIP3   OH234546   0.605   0.608   1.659
 4304TIP3    H134547   0.608   0.702   1.679
 4304TIP3    H234548   0.610   0.565   1.744
 4305TIP3   OH234549   5.705   6.297   8.533
 4305TIP3    H134550   5.751   6.380   8.522
 4305TIP3    H234551   5.654   6.288   8.452
 4306TIP3   OH234552   6.587   3.295   8.911
 4306TIP3    H134553   6.541   3.379   8.900
 4306TIP3    H234554   6.677   3.320   8.930
 4307TIP3   OH234555   3.077   5.117   6.730
 4307TIP3    H134556   3.128   5.087   6.806
 4307TIP3    H234557   2.993   5.073   6.739
 4308TIP3   OH234558   6.569   4.032   7.454
 4308TIP3    H134559   6.640   4.040   7.518
 4308TIP3    H234560   6.551   3.938   7.451
 4309TIP3   OH234561   4.730   0.449   7.555
 4309TIP3    H134562   4.669   0.523   7.560
 4309TIP3    H234563   4.682   0.381   7.508
 4310TIP3   OH234564   6.565   3.766   7.463
 4310TIP3    H134565   6.658   3.753   7.479
 4310TIP3    H234566   6.536   3.684   7.423
 4311TIP3   OH234567   5.444   5.783   8.280
 4311TIP3    H134568   5.499   5.862   8.280
 4311TIP3    H234569   5.506   5.710   8.281
 4312TIP3   OH234570   5.864   5.888   7.175
 4312TIP3    H134571   5.778   5.932   7.177
 4312TIP3    H234572   5.885   5.883   7.082
 4313TIP3   OH234573   5.825   2.662   0.460
 4313TIP3    H134574   5.754   2.631   0.516
 4313TIP3    H234575   5.876   2.583   0.440
 4314TIP3   OH234576   4.170   6.265   0.428
 4314TIP3    H134577   4.096   6.266   0.367
 4314TIP3    H234578   4.144   6.325   0.498
 4315TIP3   OH234579   2.712   6.096   7.014
 4315TIP3    H134580   2.638   6.135   7.061
 4315TIP3    H234581   2.715   6.005   7.046
 4316TIP3   OH234582   6.320   1.426   1.306
 4316TIP3    H134583   6.258   1.474   1.361
 4316TIP3    H234584   6.268   1.398   1.231
 4317TIP3   OH234585   1.945   4.221   2.337
 4317TIP3    H134586   2.022   4.259   2.294
 4317TIP3    H234587   1.981   4.165   2.406
 4318TIP3   OH234588   6.312   5.236   0.227
 4318TIP3    H134589   6.311   5.310   0.288
 4318TIP3    H234590   6.220   5.220   0.208
 4319TIP3   OH234591   4.038   6.366   1.682
 4319TIP3    H134592   4.051   6.273   1.698
 4319TIP3    H234593   4.123   6.396   1.648
 4320TIP3   OH234594   2.963   1.226   7.330
 4320TIP3    H134595   3.006   1.302   7.292
 4320TIP3    H234596   2.870   1.240   7.312
 4321TIP3   OH234597   0.367   3.547   7.745
 4321TIP3    H134598   0.365   3.598   7.827
 4321TIP3    H234599   0.429   3.476   7.762
 4322TIP3   OH234600   4.937   3.739   0.695
 4322TIP3    H134601   4.985   3.707   0.770
 4322TIP3    H234602   4.975   3.694   0.620
 4323TIP3   OH234603   4.786   6.541   7.999
 4323TIP3    H134604   4.692   6.555   7.989
 4323TIP3    H234605   4.818   6.523   7.911
 4324TIP3   OH234606   1.326   0.864   0.929
 4324TIP3    H134607   1.249   0.810   0.949
 4324TIP3    H234608   1.382   0.854   1.006
 4325TIP3   OH234609   0.178   1.942   8.502
 4325TIP3    H134610   0.162   1.870   8.563
 4325TIP3    H234611   0.134   1.915   8.421
 4326TIP3   OH234612   0.159   3.428   2.503
 4326TIP3    H134613   0.168   3.333   2.494
 4326TIP3    H234614   0.065   3.444   2.496
 4327TIP3   OH234615   0.707   4.701   7.535
 4327TIP3    H134616   0.622   4.665   7.510
 4327TIP3    H234617   0.706   4.699   7.631
 4328TIP3   OH234618   3.772   1.541   0.880
 4328TIP3    H134619   3.701   1.502   0.929
 4328TIP3    H234620   3.730   1.609   0.826
 4329TIP3   OH234621   3.836   0.592   8.681
 4329TIP3    H134622   3.913   0.626   8.726
 4329TIP3    H234623   3.762   0.629   8.730
 4330TIP3   OH234624   4.970   4.905   8.107
 4330TIP3    H134625   4.902   4.932   8.168
 4330TIP3    H234626   4.925   4.851   8.042
 4331TIP3   OH234627   3.284   4.080   6.968
 4331TIP3    H134628   3.239   4.023   7.031
 4331TIP3    H234629   3.372   4.044   6.963
 4332TIP3   OH234630   2.650   6.301   0.504
 4332TIP3    H134631   2.616   6.343   0.584
 4332TIP3    H234632   2.695   6.372   0.458
 4333TIP3   OH234633   6.395   3.735   0.540
 4333TIP3    H134634   6.463   3.792   0.577
 4333TIP3    H234635   6.443   3.669   0.490
 4334TIP3   OH234636   1.947   6.252   1.919
 4334TIP3    H134637   1.895   6.182   1.958
 4334TIP3    H234638   2.012   6.207   1.865
 4335TIP3   OH234639   2.800   2.368   2.057
 4335TIP3    H134640   2.834   2.405   1.975
 4335TIP3    H234641   2.710   2.400   2.063
 4336TIP3   OH234642   6.449   0.487   7.444
 4336TIP3    H134643   6.490   0.415   7.396
 4336TIP3    H234644   6.406   0.540   7.378
 4337TIP3   OH234645   2.651   5.864   7.182
 4337TIP3    H134646   2.589   5.915   7.233
 4337TIP3    H234647   2.596   5.813   7.122
 4338TIP3   OH234648   1.005   1.188   0.202
 4338TIP3    H134649   1.019   1.252   0.132
 4338TIP3    H234650   0.994   1.241   0.281
 4339TIP3   OH234651   0.033   6.257   0.571
 4339TIP3    H134652  -0.060   6.248   0.590
 4339TIP3    H234653   0.064   6.167   0.556
 4340TIP3   OH234654   5.789   5.846   8.908
 4340TIP3    H134655   5.728   5.773   8.919
 4340TIP3    H234656   5.802   5.852   8.814
 4341TIP3   OH234657   0.389   2.277   0.901
 4341TIP3    H134658   0.409   2.212   0.834
 4341TIP3    H234659   0.340   2.345   0.855
 4342TIP3   OH234660   2.387   1.713   7.576
 4342TIP3    H134661   2.329   1.789   7.577
 4342TIP3    H234662   2.343   1.648   7.630
 4343TIP3   OH234663   2.034   2.152   7.503
 4343TIP3    H134664   2.092   2.222   7.474
 4343TIP3    H234665   1.946   2.190   7.499
 4344TIP3   OH234666   2.611   6.311   2.066
 4344TIP3    H134667   2.539   6.359   2.027
 4344TIP3    H234668   2.642   6.253   1.997
 4345TIP3   OH234669   0.175   5.389   6.356
 4345TIP3    H134670   0.105   5.336   6.392
 4345TIP3    H234671   0.256   5.348   6.386
 4346TIP3   OH234672   5.161   2.516   1.522
 4346TIP3    H134673   5.100   2.585   1.495
 4346TIP3    H234674   5.237   2.563   1.555
 4347TIP3   OH234675   2.379   3.929   7.935
 4347TIP3    H134676   2.429   3.942   7.854
 4347TIP3    H234677   2.393   3.837   7.958
 4348TIP3   OH234678   5.268   0.528   7.084
 4348TIP3    H134679   5.257   0.489   7.170
 4348TIP3    H234680   5.351   0.574   7.088
 4349TIP3   OH234681   3.806   5.080   0.360
 4349TIP3    H134682   3.837   5.169   0.376
 4349TIP3    H234683   3.796   5.074   0.265
 4350TIP3   OH234684   5.299   1.379   7.216
 4350TIP3    H134685   5.330   1.391   7.126
 4350TIP3    H234686   5.359   1.314   7.254
 4351TIP3   OH234687   1.425   4.419   1.099
 4351TIP3    H134688   1.470   4.503   1.111
 4351TIP3    H234689   1.494   4.353   1.107
 4352TIP3   OH234690   1.939   5.253   7.180
 4352TIP3    H134691   1.960   5.194   7.252
 4352TIP3    H234692   1.858   5.219   7.143
 4353TIP3   OH234693   0.246   4.834   0.652
 4353TIP3    H134694   0.330   4.880   0.651
 4353TIP3    H234695   0.183   4.899   0.683
 4354TIP3   OH234696   0.363   5.969   0.855
 4354TIP3    H134697   0.425   5.898   0.871
 4354TIP3    H234698   0.278   5.933   0.883
 4355TIP3   OH234699   5.026   5.803   6.738
 4355TIP3    H134700   5.022   5.813   6.833
 4355TIP3    H234701   4.936   5.780   6.713
 4356TIP3   OH234702   2.828   3.015   0.979
 4356TIP3    H134703   2.813   2.999   0.886
 4356TIP3    H234704   2.774   2.948   1.023
 4357TIP3   OH234705   3.195   2.580   8.805
 4357TIP3    H134706   3.262   2.582   8.737
 4357TIP3    H234707   3.234   2.528   8.875
 4358TIP3   OH234708   6.639   0.932   1.909
 4358TIP3    H134709   6.565   0.969   1.859
 4358TIP3    H234710   6.614   0.841   1.923
 4359TIP3   OH234711   5.386   3.957   1.562
 4359TIP3    H134712   5.389   3.995   1.650
 4359TIP3    H234713   5.459   4.000   1.516
 4360TIP3   OH234714   2.264   5.174   0.333
 4360TIP3    H134715   2.320   5.152   0.408
 4360TIP3    H234716   2.209   5.246   0.364
 4361TIP3   OH234717   1.273   2.662   1.199
 4361TIP3    H134718   1.277   2.568   1.220
 4361TIP3    H234719   1.184   2.675   1.166
 4362TIP3   OH234720   0.071   1.716   7.380
 4362TIP3    H134721   0.136   1.758   7.323
 4362TIP3    H234722  -0.004   1.776   7.378
 4363TIP3   OH234723   0.015   0.423   7.447
 4363TIP3    H134724  -0.023   0.475   7.376
 4363TIP3    H234725   0.100   0.394   7.414
 4364TIP3   OH234726   6.758   4.373   8.242
 4364TIP3    H134727   6.794   4.430   8.174
 4364TIP3    H234728   6.665   4.395   8.246
 4365TIP3   OH234729   0.336   4.666   8.235
 4365TIP3    H134730   0.409   4.664   8.174
 4365TIP3    H234731   0.377   4.664   8.322
 4366TIP3   OH234732   2.189   1.553   8.002
 4366TIP3    H134733   2.141   1.475   7.974
 4366TIP3    H234734   2.130   1.596   8.064
 4367TIP3   OH234735   1.013   2.151   2.399
 4367TIP3    H134736   1.098   2.187   2.425
 4367TIP3    H234737   0.963   2.227   2.371
 4368TIP3   OH234738   5.470   0.785   1.521
 4368TIP3    H134739   5.410   0.728   1.570
 4368TIP3    H234740   5.469   0.868   1.569
 4369TIP3   OH234741   1.407   5.196   2.609
 4369TIP3    H134742   1.441   5.243   2.685
 4369TIP3    H234743   1.340   5.255   2.573
 4370TIP3   OH234744   3.912   3.354   7.197
 4370TIP3    H134745   3.945   3.267   7.222
 4370TIP3    H234746   3.926   3.358   7.102
 4371TIP3   OH234747   3.559   1.664   8.505
 4371TIP3    H134748   3.499   1.718   8.453
 4371TIP3    H234749   3.635   1.653   8.448
 4372TIP3   OH234750   0.359   5.351   1.017
 4372TIP3    H134751   0.314   5.423   0.973
 4372TIP3    H234752   0.414   5.313   0.948
 4373TIP3   OH234753   3.798   1.513   6.846
 4373TIP3    H134754   3.796   1.424   6.810
 4373TIP3    H234755   3.755   1.567   6.780
 4374TIP3   OH234756   0.900   0.609   8.206
 4374TIP3    H134757   0.869   0.524   8.177
 4374TIP3    H234758   0.970   0.632   8.145
 4375TIP3   OH234759   5.162   1.215   8.180
 4375TIP3    H134760   5.114   1.148   8.131
 4375TIP3    H234761   5.254   1.201   8.157
 4376TIP3   OH234762   4.451   1.206   6.649
 4376TIP3    H134763   4.439   1.294   6.612
 4376TIP3    H234764   4.363   1.169   6.651
 4377TIP3   OH234765   6.597   5.497   8.003
 4377TIP3    H134766   6.580   5.531   7.915
 4377TIP3    H234767   6.580   5.403   7.995
 4378TIP3   OH234768   1.837   0.680   2.413
 4378TIP3    H134769   1.929   0.699   2.429
 4378TIP3    H234770   1.831   0.585   2.422
 4379TIP3   OH234771   0.392   4.710   0.856
 4379TIP3    H134772   0.322   4.763   0.818
 4379TIP3    H234773   0.461   4.772   0.877
 4380TIP3   OH234774   1.101   5.465   1.250
 4380TIP3    H134775   1.054   5.459   1.333
 4380TIP3    H234776   1.157   5.542   1.259
 4381TIP3   OH234777   2.661   1.877   1.121
 4381TIP3    H134778   2.637   1.966   1.094
 4381TIP3    H234779   2.654   1.826   1.040
 4382TIP3   OH234780   1.062   6.111   7.870
 4382TIP3    H134781   1.002   6.083   7.939
 4382TIP3    H234782   1.122   6.171   7.914
 4383TIP3   OH234783   1.387   3.805   7.269
 4383TIP3    H134784   1.389   3.879   7.329
 4383TIP3    H234785   1.339   3.836   7.193
 4384TIP3   OH234786   2.861   5.160   1.294
 4384TIP3    H134787   2.791   5.207   1.249
 4384TIP3    H234788   2.854   5.188   1.385
 4385TIP3   OH234789   2.326   6.014   1.476
 4385TIP3    H134790   2.315   5.995   1.569
 4385TIP3    H234791   2.246   6.059   1.450
 4386TIP3   OH234792   0.771   5.428   0.745
 4386TIP3    H134793   0.765   5.389   0.832
 4386TIP3    H234794   0.744   5.519   0.757
 4387TIP3   OH234795   0.664   1.835   2.129
 4387TIP3    H134796   0.572   1.862   2.120
 4387TIP3    H234797   0.702   1.902   2.186
 4388TIP3   OH234798   5.706   6.295   7.609
 4388TIP3    H134799   5.723   6.251   7.526
 4388TIP3    H234800   5.643   6.239   7.654
 4389TIP3   OH234801   5.200   1.523   0.968
 4389TIP3    H134802   5.149   1.490   0.894
 4389TIP3    H234803   5.134   1.548   1.033
 4390TIP3   OH234804   3.321   2.544   0.069
 4390TIP3    H134805   3.314   2.458   0.110
 4390TIP3    H234806   3.270   2.602   0.127
 4391TIP3   OH234807   1.124   5.063   1.246
 4391TIP3    H134808   1.184   5.072   1.172
 4391TIP3    H234809   1.181   5.053   1.322
 4392TIP3   OH234810   3.684   5.174   8.226
 4392TIP3    H134811   3.720   5.100   8.177
 4392TIP3    H234812   3.721   5.251   8.184
 4393TIP3   OH234813   4.741   4.500   8.309
 4393TIP3    H134814   4.668   4.498   8.370
 4393TIP3    H234815   4.737   4.587   8.269
 4394TIP3   OH234816   0.168   0.297   0.687
 4394TIP3    H134817   0.143   0.366   0.748
 4394TIP3    H234818   0.098   0.232   0.694
 4395TIP3   OH234819   2.334   1.829   0.739
 4395TIP3    H134820   2.314   1.735   0.746
 4395TIP3    H234821   2.269   1.871   0.795
 4396TIP3   OH234822   4.746   5.774   8.709
 4396TIP3    H134823   4.781   5.844   8.764
 4396TIP3    H234824   4.793   5.695   8.738
 4397TIP3   OH234825   0.048   5.916   2.275
 4397TIP3    H134826   0.129   5.910   2.325
 4397TIP3    H234827  -0.018   5.876   2.333
 4398TIP3   OH234828   6.337   3.214   7.980
 4398TIP3    H134829   6.315   3.307   7.983
 4398TIP3    H234830   6.254   3.170   7.962
 4399TIP3   OH234831   3.196   4.634   8.903
 4399TIP3    H134832   3.130   4.699   8.926
 4399TIP3    H234833   3.164   4.552   8.943
 4400TIP3   OH234834   5.073   2.387   8.127
 4400TIP3    H134835   5.008   2.317   8.128
 4400TIP3    H234836   5.081   2.414   8.219
 4401TIP3   OH234837   3.315   4.978   1.105
 4401TIP3    H134838   3.298   4.898   1.154
 4401TIP3    H234839   3.228   5.010   1.082
 4402TIP3   OH234840   0.376   4.219   1.359
 4402TIP3    H134841   0.377   4.258   1.271
 4402TIP3    H234842   0.296   4.166   1.361
 4403TIP3   OH234843   4.195   3.895   1.289
 4403TIP3    H134844   4.201   3.991   1.286
 4403TIP3    H234845   4.112   3.875   1.245
 4404TIP3   OH234846   0.257   1.617   8.042
 4404TIP3    H134847   0.325   1.678   8.015
 4404TIP3    H234848   0.204   1.604   7.963
 4405TIP3   OH234849   2.023   0.861   1.925
 4405TIP3    H134850   2.017   0.942   1.975
 4405TIP3    H234851   2.010   0.792   1.991
 4406TIP3   OH234852   4.234   3.504   1.698
 4406TIP3    H134853   4.229   3.478   1.790
 4406TIP3    H234854   4.282   3.432   1.656
 4407TIP3   OH234855   2.304   5.985   7.265
 4407TIP3    H134856   2.218   6.003   7.302
 4407TIP3    H234857   2.361   6.050   7.304
 4408TIP3   OH234858   5.386   5.987   0.933
 4408TIP3    H134859   5.321   6.045   0.973
 4408TIP3    H234860   5.375   5.999   0.839
 4409TIP3   OH234861   6.309   4.999   0.486
 4409TIP3    H134862   6.387   5.055   0.483
 4409TIP3    H234863   6.331   4.925   0.428
 4410TIP3   OH234864   5.309   3.763   8.428
 4410TIP3    H134865   5.390   3.713   8.414
 4410TIP3    H234866   5.339   3.849   8.456
 4411TIP3   OH234867   1.944   1.116   1.794
 4411TIP3    H134868   1.928   1.117   1.888
 4411TIP3    H234869   2.035   1.085   1.786
 4412TIP3   OH234870   3.509   0.511   8.512
 4412TIP3    H134871   3.436   0.451   8.526
 4412TIP3    H234872   3.474   0.598   8.534
 4413TIP3   OH234873   4.114   0.798   7.282
 4413TIP3    H134874   4.044   0.831   7.339
 4413TIP3    H234875   4.069   0.742   7.219
 4414TIP3   OH234876   5.966   4.988   8.300
 4414TIP3    H134877   5.917   4.912   8.330
 4414TIP3    H234878   5.907   5.033   8.240
 4415TIP3   OH234879   1.405   4.369   8.490
 4415TIP3    H134880   1.435   4.425   8.418
 4415TIP3    H234881   1.377   4.288   8.446
 4416TIP3   OH234882   1.139   0.177   8.650
 4416TIP3    H134883   1.060   0.129   8.676
 4416TIP3    H234884   1.190   0.184   8.731
 4417TIP3   OH234885   3.996   4.735   1.738
 4417TIP3    H134886   3.924   4.783   1.780
 4417TIP3    H234887   4.069   4.744   1.799
 4418TIP3   OH234888   6.654   0.866   7.033
 4418TIP3    H134889   6.672   0.905   7.118
 4418TIP3    H234890   6.600   0.930   6.988
 4419TIP3   OH234891   1.786   5.737   0.650
 4419TIP3    H134892   1.735   5.744   0.730
 4419TIP3    H234893   1.857   5.801   0.661
 4420TIP3   OH234894   3.404   2.535   8.662
 4420TIP3    H134895   3.410   2.543   8.566
 4420TIP3    H234896   3.484   2.578   8.693
 4421TIP3   OH234897   1.907   4.606   0.725
 4421TIP3    H134898   1.828   4.574   0.681
 4421TIP3    H234899   1.976   4.600   0.660
 4422TIP3   OH234900   3.035   5.202   0.189
 4422TIP3    H134901   3.012   5.176   0.278
 4422TIP3    H234902   3.106   5.144   0.164
 4423TIP3   OH234903   6.612   1.620   1.038
 4423TIP3    H134904   6.555   1.614   0.962
 4423TIP3    H234905   6.646   1.709   1.037
 4424TIP3   OH234906   4.391   4.857   8.102
 4424TIP3    H134907   4.373   4.859   8.008
 4424TIP3    H234908   4.317   4.902   8.142
 4425TIP3   OH234909   0.944   2.111   8.170
 4425TIP3    H134910   0.850   2.114   8.183
 4425TIP3    H234911   0.972   2.030   8.214
 4426TIP3   OH234912   1.110   0.710   8.058
 4426TIP3    H134913   1.054   0.705   7.980
 4426TIP3    H234914   1.199   0.702   8.024
 4427TIP3   OH234915   4.443   5.250   0.378
 4427TIP3    H134916   4.357   5.222   0.410
 4427TIP3    H234917   4.505   5.193   0.423
 4428TIP3   OH234918   4.163   0.788   1.576
 4428TIP3    H134919   4.174   0.719   1.641
 4428TIP3    H234920   4.240   0.844   1.588
 4429TIP3   OH234921   0.161   3.304   1.325
 4429TIP3    H134922   0.114   3.244   1.382
 4429TIP3    H234923   0.178   3.381   1.380
 4430TIP3   OH234924   2.820   2.906   1.914
 4430TIP3    H134925   2.828   2.832   1.854
 4430TIP3    H234926   2.803   2.866   1.999
 4431TIP3   OH234927   0.638   5.288   1.681
 4431TIP3    H134928   0.697   5.253   1.747
 4431TIP3    H234929   0.675   5.373   1.658
 4432TIP3   OH234930   4.585   4.335   0.512
 4432TIP3    H134931   4.574   4.336   0.607
 4432TIP3    H234932   4.534   4.259   0.483
 4433TIP3   OH234933   3.742   1.242   7.033
 4433TIP3    H134934   3.753   1.274   6.943
 4433TIP3    H234935   3.648   1.251   7.051
 4434TIP3   OH234936   1.642   3.241   1.925
 4434TIP3    H134937   1.729   3.219   1.958
 4434TIP3    H234938   1.651   3.238   1.830
 4435TIP3   OH234939   3.695   2.726   8.506
 4435TIP3    H134940   3.612   2.770   8.524
 4435TIP3    H234941   3.762   2.792   8.520
 4436TIP3   OH234942   1.727   4.252   8.486
 4436TIP3    H134943   1.667   4.287   8.420
 4436TIP3    H234944   1.814   4.277   8.455
 4437TIP3   OH234945   2.231   5.018   0.851
 4437TIP3    H134946   2.299   5.064   0.801
 4437TIP3    H234947   2.215   4.938   0.801
 4438TIP3   OH234948   6.523   3.400   2.010
 4438TIP3    H134949   6.540   3.385   2.103
 4438TIP3    H234950   6.547   3.491   1.996
 4439TIP3   OH234951   2.415   4.077   8.518
 4439TIP3    H134952   2.409   4.008   8.585
 4439TIP3    H234953   2.386   4.034   8.437
 4440TIP3   OH234954   4.351   3.554   8.675
 4440TIP3    H134955   4.392   3.634   8.641
 4440TIP3    H234956   4.417   3.487   8.666
 4441TIP3   OH234957   1.603   6.679   8.011
 4441TIP3    H134958   1.689   6.668   8.052
 4441TIP3    H234959   1.622   6.697   7.919
 4442TIP3   OH234960   1.766   2.257   8.507
 4442TIP3    H134961   1.674   2.283   8.508
 4442TIP3    H234962   1.815   2.338   8.519
 4443TIP3   OH234963   1.258   1.224   8.323
 4443TIP3    H134964   1.284   1.315   8.339
 4443TIP3    H234965   1.172   1.217   8.365
 4444TIP3   OH234966   4.928   3.005   7.110
 4444TIP3    H134967   4.913   3.070   7.042
 4444TIP3    H234968   4.854   2.944   7.102
 4445TIP3   OH234969   3.874   1.750   6.267
 4445TIP3    H134970   3.818   1.806   6.213
 4445TIP3    H234971   3.813   1.689   6.309
 4446TIP3   OH234972   3.281   2.490   6.347
 4446TIP3    H134973   3.187   2.506   6.358
 4446TIP3    H234974   3.323   2.555   6.404
 4447TIP3   OH234975   4.840   6.102   8.744
 4447TIP3    H134976   4.773   6.168   8.762
 4447TIP3    H234977   4.922   6.143   8.770
 4448TIP3   OH234978   4.605   5.621   0.072
 4448TIP3    H134979   4.649   5.608   0.156
 4448TIP3    H234980   4.643   5.554   0.015
 4449TIP3   OH234981   0.591   0.513   1.925
 4449TIP3    H134982   0.623   0.427   1.897
 4449TIP3    H234983   0.566   0.500   2.017
 4450TIP3   OH234984   2.169   5.676   6.579
 4450TIP3    H134985   2.199   5.629   6.656
 4450TIP3    H234986   2.241   5.668   6.516
 4451TIP3   OH234987   6.049   5.084   0.449
 4451TIP3    H134988   5.994   5.010   0.472
 4451TIP3    H234989   6.139   5.053   0.464
 4452TIP3   OH234990   3.937   2.551   0.993
 4452TIP3    H134991   3.940   2.513   0.905
 4452TIP3    H234992   3.984   2.488   1.048
 4453TIP3   OH234993   3.950   1.442   6.560
 4453TIP3    H134994   3.988   1.366   6.605
 4453TIP3    H234995   3.882   1.405   6.504
 4454TIP3   OH234996   5.988   5.823   0.102
 4454TIP3    H134997   6.055   5.765   0.066
 4454TIP3    H234998   5.910   5.805   0.049
 4455TIP3   OH234999   0.766   5.561   1.581
 4455TIP3    H135000   0.822   5.589   1.654
 4455TIP3    H235001   0.705   5.634   1.569
 4456TIP3   OH235002   5.890   2.173   6.845
 4456TIP3    H135003   5.969   2.204   6.800
 4456TIP3    H235004   5.818   2.211   6.794
 4457TIP3   OH235005   6.655   2.085   7.862
 4457TIP3    H135006   6.726   2.023   7.846
 4457TIP3    H235007   6.599   2.078   7.785
 4458TIP3   OH235008   5.584   6.363   8.264
 4458TIP3    H135009   5.554   6.416   8.190
 4458TIP3    H235010   5.625   6.287   8.223
 4459TIP3   OH235011   1.060   5.653   8.784
 4459TIP3    H135012   1.080   5.717   8.715
 4459TIP3    H235013   1.140   5.601   8.791
 4460TIP3   OH235014   4.486   1.196   8.588
 4460TIP3    H135015   4.426   1.126   8.562
 4460TIP3    H235016   4.495   1.186   8.682
 4461TIP3   OH235017   5.633   2.058   0.258
 4461TIP3    H135018   5.700   2.066   0.190
 4461TIP3    H235019   5.634   1.966   0.282
 4462TIP3   OH235020   2.592   1.084   8.339
 4462TIP3    H135021   2.499   1.084   8.362
 4462TIP3    H235022   2.618   1.176   8.345
 4463TIP3   OH235023   0.712   0.636   8.463
 4463TIP3    H135024   0.715   0.559   8.520
 4463TIP3    H235025   0.771   0.615   8.391
 4464TIP3   OH235026   0.445   4.574   1.364
 4464TIP3    H135027   0.493   4.556   1.283
 4464TIP3    H235028   0.501   4.634   1.413
 4465TIP3   OH235029   0.722   2.455   7.981
 4465TIP3    H135030   0.734   2.473   7.887
 4465TIP3    H235031   0.647   2.396   7.985
 4466TIP3   OH235032   0.500   3.870   7.449
 4466TIP3    H135033   0.427   3.923   7.480
 4466TIP3    H235034   0.564   3.935   7.419
 4467TIP3   OH235035   3.261   3.272   1.841
 4467TIP3    H135036   3.283   3.223   1.920
 4467TIP3    H235037   3.205   3.343   1.872
 4468TIP3   OH235038   2.787   4.081   0.167
 4468TIP3    H135039   2.746   4.111   0.086
 4468TIP3    H235040   2.840   4.006   0.140
 4469TIP3   OH235041   1.077   0.333   8.165
 4469TIP3    H135042   1.108   0.252   8.204
 4469TIP3    H235043   0.983   0.319   8.151
 4470TIP3   OH235044   0.293   1.624   8.327
 4470TIP3    H135045   0.302   1.610   8.233
 4470TIP3    H235046   0.325   1.543   8.366
 4471TIP3   OH235047   3.321   3.387   0.149
 4471TIP3    H135048   3.367   3.450   0.204
 4471TIP3    H235049   3.229   3.400   0.169
 4472TIP3   OH235050   1.501   5.092   1.538
 4472TIP3    H135051   1.577   5.130   1.494
 4472TIP3    H235052   1.465   5.163   1.591
 4473TIP3   OH235053   0.298   5.413   1.714
 4473TIP3    H135054   0.289   5.490   1.658
 4473TIP3    H235055   0.213   5.403   1.757
 4474TIP3   OH235056   2.285   6.081   0.860
 4474TIP3    H135057   2.344   6.145   0.901
 4474TIP3    H235058   2.310   6.082   0.768
 4475TIP3   OH235059   4.374   3.152   0.015
 4475TIP3    H135060   4.323   3.076   0.044
 4475TIP3    H235061   4.440   3.164   0.083
 4476TIP3   OH235062   0.741   4.329   0.059
 4476TIP3    H135063   0.823   4.290   0.090
 4476TIP3    H235064   0.732   4.410   0.109
 4477TIP3   OH235065   4.561   1.186   7.466
 4477TIP3    H135066   4.495   1.226   7.409
 4477TIP3    H235067   4.642   1.233   7.447
 4478TIP3   OH235068   5.609   0.619   6.583
 4478TIP3    H135069   5.698   0.592   6.564
 4478TIP3    H235070   5.618   0.685   6.652
 4479TIP3   OH235071   5.079   6.237   8.854
 4479TIP3    H135072   5.041   6.320   8.884
 4479TIP3    H235073   5.163   6.231   8.900
 4480TIP3   OH235074   2.459   0.879   8.004
 4480TIP3    H135075   2.408   0.824   8.063
 4480TIP3    H235076   2.497   0.818   7.941
 4481TIP3   OH235077   5.610   1.167   8.827
 4481TIP3    H135078   5.595   1.160   8.921
 4481TIP3    H235079   5.688   1.114   8.811
 4482TIP3   OH235080   1.355   0.608   6.218
 4482TIP3    H135081   1.399   0.523   6.220
 4482TIP3    H235082   1.402   0.661   6.282
 4483TIP3   OH235083   5.041   6.611   1.245
 4483TIP3    H135084   5.018   6.544   1.310
 4483TIP3    H235085   5.071   6.685   1.297
 4484TIP3   OH235086   5.000   1.620   1.156
 4484TIP3    H135087   5.053   1.695   1.184
 4484TIP3    H235088   4.962   1.587   1.237
 4485TIP3   OH235089   4.102   3.830   1.976
 4485TIP3    H135090   4.169   3.805   1.912
 4485TIP3    H235091   4.021   3.791   1.942
 4486TIP3   OH235092   3.174   6.656   2.096
 4486TIP3    H135093   3.238   6.588   2.119
 4486TIP3    H235094   3.157   6.702   2.178
 4487TIP3   OH235095   1.653   1.079   1.524
 4487TIP3    H135096   1.666   0.986   1.542
 4487TIP3    H235097   1.560   1.087   1.504
 4488TIP3   OH235098   5.356   0.185   1.933
 4488TIP3    H135099   5.309   0.262   1.966
 4488TIP3    H235100   5.442   0.220   1.907
 4489TIP3   OH235101   4.188   3.570   7.905
 4489TIP3    H135102   4.249   3.524   7.848
 4489TIP3    H235103   4.244   3.624   7.961
 4490TIP3   OH235104   6.195   6.295   0.728
 4490TIP3    H135105   6.182   6.222   0.667
 4490TIP3    H235106   6.107   6.324   0.751
 4491TIP3   OH235107   4.846   0.721   7.178
 4491TIP3    H135108   4.871   0.645   7.124
 4491TIP3    H235109   4.761   0.697   7.214
 4492TIP3   OH235110   0.210   6.486   1.446
 4492TIP3    H135111   0.276   6.482   1.515
 4492TIP3    H235112   0.219   6.573   1.408
 4493TIP3   OH235113   3.272   4.400   1.943
 4493TIP3    H135114   3.195   4.382   1.998
 4493TIP3    H235115   3.336   4.335   1.970
 4494TIP3   OH235116   5.754   4.621   7.954
 4494TIP3    H135117   5.704   4.591   7.877
 4494TIP3    H235118   5.845   4.601   7.932
 4495TIP3   OH235119   3.393   6.057   1.340
 4495TIP3    H135120   3.444   5.989   1.384
 4495TIP3    H235121   3.302   6.032   1.356
 4496TIP3   OH235122   6.146   3.209   1.569
 4496TIP3    H135123   6.172   3.301   1.575
 4496TIP3    H235124   6.109   3.189   1.654
 4497TIP3   OH235125   1.975   4.041   7.646
 4497TIP3    H135126   1.908   4.005   7.588
 4497TIP3    H235127   1.953   4.133   7.655
 4498TIP3   OH235128   4.764   1.957   1.137
 4498TIP3    H135129   4.733   1.986   1.223
 4498TIP3    H235130   4.753   2.033   1.080
 4499TIP3   OH235131   6.554   0.754   0.223
 4499TIP3    H135132   6.592   0.668   0.209
 4499TIP3    H235133   6.534   0.787   0.135
 4500TIP3   OH235134   6.452   5.587   1.210
 4500TIP3    H135135   6.491   5.514   1.161
 4500TIP3    H235136   6.523   5.621   1.264
 4501TIP3   OH235137   6.720   4.045   8.921
 4501TIP3    H135138   6.691   4.114   8.861
 4501TIP3    H235139   6.806   4.020   8.888
 4502TIP3   OH235140   1.741   0.255   1.986
 4502TIP3    H135141   1.746   0.160   1.976
 4502TIP3    H235142   1.809   0.276   2.050
 4503TIP3   OH235143   5.278   1.317   0.383
 4503TIP3    H135144   5.279   1.410   0.408
 4503TIP3    H235145   5.202   1.309   0.325
 4504TIP3   OH235146   2.772   6.498   1.532
 4504TIP3    H135147   2.769   6.402   1.537
 4504TIP3    H235148   2.832   6.524   1.602
 4505TIP3   OH235149   3.459   0.424   6.808
 4505TIP3    H135150   3.483   0.505   6.763
 4505TIP3    H235151   3.501   0.355   6.757
 4506TIP3   OH235152   4.458   4.118   0.567
 4506TIP3    H135153   4.372   4.151   0.593
 4506TIP3    H235154   4.475   4.045   0.625
 4507TIP3   OH235155   2.191   2.197   0.798
 4507TIP3    H135156   2.181   2.244   0.715
 4507TIP3    H235157   2.275   2.152   0.790
 4508TIP3   OH235158   4.380   5.048   0.564
 4508TIP3    H135159   4.298   5.054   0.515
 4508TIP3    H235160   4.353   5.024   0.653
 4509TIP3   OH235161   0.365   6.060   7.751
 4509TIP3    H135162   0.414   6.085   7.829
 4509TIP3    H235163   0.372   6.137   7.693
 4510TIP3   OH235164   0.668   0.002   8.952
 4510TIP3    H135165   0.709  -0.070   8.904
 4510TIP3    H235166   0.658  -0.031   9.041
 4511TIP3   OH235167   0.138   0.362   8.919
 4511TIP3    H135168   0.224   0.386   8.886
 4511TIP3    H235169   0.150   0.354   9.014
 4512TIP3   OH235170   2.500   5.748   7.905
 4512TIP3    H135171   2.414   5.746   7.861
 4512TIP3    H235172   2.560   5.711   7.841
 4513TIP3   OH235173   1.602   0.831   8.254
 4513TIP3    H135174   1.670   0.828   8.322
 4513TIP3    H235175   1.535   0.770   8.285
 4514TIP3   OH235176   5.639   5.526   8.711
 4514TIP3    H135177   5.734   5.522   8.724
 4514TIP3    H235178   5.605   5.449   8.756
 4515TIP3   OH235179   3.359   2.296   8.244
 4515TIP3    H135180   3.443   2.253   8.262
 4515TIP3    H235181   3.358   2.307   8.149
 4516TIP3   OH235182   0.688   2.342   7.007
 4516TIP3    H135183   0.648   2.416   6.962
 4516TIP3    H235184   0.775   2.334   6.968
 4517TIP3   OH235185   6.693   0.823   7.619
 4517TIP3    H135186   6.734   0.787   7.540
 4517TIP3    H235187   6.758   0.885   7.653
 4518TIP3   OH235188   4.502   1.311   1.084
 4518TIP3    H135189   4.556   1.240   1.050
 4518TIP3    H235190   4.552   1.347   1.157
 4519TIP3   OH235191   2.249   2.283   0.503
 4519TIP3    H135192   2.293   2.199   0.496
 4519TIP3    H235193   2.263   2.326   0.418
 4520TIP3   OH235194   1.562   1.308   8.900
 4520TIP3    H135195   1.482   1.355   8.922
 4520TIP3    H235196   1.535   1.244   8.835
 4521TIP3   OH235197   3.408   3.921   7.846
 4521TIP3    H135198   3.329   3.925   7.900
 4521TIP3    H235199   3.378   3.934   7.757
 4522TIP3   OH235200   1.689   4.616   8.120
 4522TIP3    H135201   1.721   4.606   8.030
 4522TIP3    H235202   1.744   4.686   8.157
 4523TIP3   OH235203   4.644   3.034   7.234
 4523TIP3    H135204   4.684   2.987   7.161
 4523TIP3    H235205   4.550   3.023   7.222
 4524TIP3   OH235206   2.781   2.646   7.933
 4524TIP3    H135207   2.826   2.567   7.964
 4524TIP3    H235208   2.692   2.616   7.911
 4525TIP3   OH235209   5.955   0.669   7.975
 4525TIP3    H135210   5.901   0.722   8.034
 4525TIP3    H235211   6.045   0.691   7.999
 4526TIP3   OH235212   0.381   6.076   0.084
 4526TIP3    H135213   0.384   5.990   0.126
 4526TIP3    H235214   0.295   6.080   0.043
 4527TIP3   OH235215   6.165   0.765   0.543
 4527TIP3    H135216   6.231   0.819   0.587
 4527TIP3    H235217   6.209   0.682   0.526
 4528TIP3   OH235218   0.202   1.288   7.456
 4528TIP3    H135219   0.150   1.307   7.534
 4528TIP3    H235220   0.243   1.204   7.474
 4529TIP3   OH235221   2.857   5.424   7.043
 4529TIP3    H135222   2.894   5.442   6.957
 4529TIP3    H235223   2.916   5.469   7.104
 4530TIP3   OH235224   0.066   4.865   8.741
 4530TIP3    H135225   0.034   4.948   8.705
 4530TIP3    H235226   0.125   4.891   8.812
 4531TIP3   OH235227   5.578   4.613   1.062
 4531TIP3    H135228   5.635   4.565   1.123
 4531TIP3    H235229   5.619   4.600   0.977
 4532TIP3   OH235230   0.307   1.292   1.518
 4532TIP3    H135231   0.249   1.286   1.442
 4532TIP3    H235232   0.248   1.298   1.593
 4533TIP3   OH235233   1.194   3.661   7.578
 4533TIP3    H135234   1.249   3.737   7.597
 4533TIP3    H235235   1.248   3.604   7.524
 4534TIP3   OH235236   2.905   5.672   8.019
 4534TIP3    H135237   2.956   5.604   8.062
 4534TIP3    H235238   2.848   5.625   7.959
 4535TIP3   OH235239   3.891   5.349   8.017
 4535TIP3    H135240   3.824   5.390   8.072
 4535TIP3    H235241   3.856   5.355   7.928
 4536TIP3   OH235242   3.480   1.893   6.994
 4536TIP3    H135243   3.517   1.927   7.075
 4536TIP3    H235244   3.508   1.802   6.991
 4537TIP3   OH235245   2.027   1.306   1.591
 4537TIP3    H135246   2.017   1.229   1.648
 4537TIP3    H235247   1.938   1.337   1.576
 4538TIP3   OH235248   0.794   1.141   0.502
 4538TIP3    H135249   0.733   1.089   0.553
 4538TIP3    H235250   0.750   1.225   0.489
 4539TIP3   OH235251   1.155   6.240   0.741
 4539TIP3    H135252   1.101   6.290   0.802
 4539TIP3    H235253   1.135   6.149   0.761
 4540TIP3   OH235254   3.013   0.404   8.067
 4540TIP3    H135255   3.022   0.481   8.011
 4540TIP3    H235256   2.965   0.436   8.143
 4541TIP3   OH235257   3.629   3.812   1.382
 4541TIP3    H135258   3.697   3.801   1.449
 4541TIP3    H235259   3.587   3.727   1.376
 4542TIP3   OH235260   5.252   1.682   8.555
 4542TIP3    H135261   5.197   1.752   8.521
 4542TIP3    H235262   5.209   1.601   8.526
 4543TIP3   OH235263   4.613   0.225   2.087
 4543TIP3    H135264   4.657   0.140   2.091
 4543TIP3    H235265   4.660   0.279   2.151
 4544TIP3   OH235266   1.075   3.961   7.696
 4544TIP3    H135267   1.055   3.970   7.603
 4544TIP3    H235268   1.113   3.874   7.705
 4545TIP3   OH235269   2.925   1.950   7.903
 4545TIP3    H135270   2.835   1.966   7.934
 4545TIP3    H235271   2.981   1.981   7.974
 4546TIP3   OH235272   3.526   4.439   7.003
 4546TIP3    H135273   3.581   4.465   6.929
 4546TIP3    H235274   3.460   4.507   7.009
 4547TIP3   OH235275   2.093   3.414   0.892
 4547TIP3    H135276   2.099   3.508   0.908
 4547TIP3    H235277   2.090   3.406   0.796
 4548TIP3   OH235278   5.790   5.101   8.132
 4548TIP3    H135279   5.701   5.068   8.143
 4548TIP3    H235280   5.807   5.093   8.038
 4549TIP3   OH235281   0.390   3.007   1.375
 4549TIP3    H135282   0.394   2.991   1.469
 4549TIP3    H235283   0.339   2.933   1.341
 4550TIP3   OH235284   0.213   4.036   1.192
 4550TIP3    H135285   0.221   4.089   1.113
 4550TIP3    H235286   0.125   3.999   1.187
 4551TIP3   OH235287   4.629   3.886   0.389
 4551TIP3    H135288   4.594   3.923   0.470
 4551TIP3    H235289   4.718   3.857   0.413
 4552TIP3   OH235290   6.351   6.512   0.648
 4552TIP3    H135291   6.318   6.511   0.558
 4552TIP3    H235292   6.296   6.449   0.695
 4553TIP3   OH235293   6.084   0.389   8.252
 4553TIP3    H135294   6.163   0.422   8.295
 4553TIP3    H235295   6.077   0.298   8.281
 4554TIP3   OH235296   3.998   2.881   7.021
 4554TIP3    H135297   4.007   2.861   6.928
 4554TIP3    H235298   4.088   2.881   7.054
 4555TIP3   OH235299   1.109   3.454   8.004
 4555TIP3    H135300   1.164   3.376   8.004
 4555TIP3    H235301   1.094   3.473   8.096
 4556TIP3   OH235302   2.532   5.278   8.717
 4556TIP3    H135303   2.546   5.286   8.623
 4556TIP3    H235304   2.573   5.195   8.741
 4557TIP3   OH235305   1.082   1.536   7.850
 4557TIP3    H135306   1.095   1.518   7.757
 4557TIP3    H235307   0.987   1.532   7.862
 4558TIP3   OH235308   4.336   3.821   0.926
 4558TIP3    H135309   4.276   3.771   0.870
 4558TIP3    H235310   4.338   3.908   0.887
 4559TIP3   OH235311   2.977   2.853   8.644
 4559TIP3    H135312   2.994   2.773   8.595
 4559TIP3    H235313   2.985   2.827   8.736
 4560TIP3   OH235314   6.123   0.048   0.366
 4560TIP3    H135315   6.187   0.052   0.295
 4560TIP3    H235316   6.074  -0.033   0.350
 4561TIP3   OH235317   5.376   0.337   0.917
 4561TIP3    H135318   5.373   0.272   0.847
 4561TIP3    H235319   5.448   0.395   0.894
 4562TIP3   OH235320   2.988   6.372   7.759
 4562TIP3    H135321   3.006   6.401   7.669
 4562TIP3    H235322   2.984   6.277   7.753
 4563TIP3   OH235323   4.261   2.308   8.900
 4563TIP3    H135324   4.188   2.285   8.844
 4563TIP3    H235325   4.226   2.375   8.959
 4564TIP3   OH235326   6.196   4.377   0.778
 4564TIP3    H135327   6.108   4.402   0.751
 4564TIP3    H235328   6.251   4.452   0.755
 4565TIP3   OH235329   4.511   4.055   2.088
 4565TIP3    H135330   4.553   4.004   2.158
 4565TIP3    H235331   4.432   4.090   2.128
 4566TIP3   OH235332   0.259   4.797   1.435
 4566TIP3    H135333   0.291   4.875   1.390
 4566TIP3    H235334   0.319   4.786   1.509
 4567TIP3   OH235335   5.027   4.047   7.357
 4567TIP3    H135336   5.087   3.977   7.380
 4567TIP3    H235337   4.943   4.020   7.393
 4568TIP3   OH235338   5.627   5.279   7.286
 4568TIP3    H135339   5.680   5.213   7.240
 4568TIP3    H235340   5.564   5.227   7.336
 4569TIP3   OH235341   5.344   1.987   8.020
 4569TIP3    H135342   5.347   1.935   8.100
 4569TIP3    H235343   5.386   1.931   7.954
 4570TIP3   OH235344   3.918   4.949   1.422
 4570TIP3    H135345   3.939   5.041   1.406
 4570TIP3    H235346   3.822   4.945   1.418
 4571TIP3   OH235347   3.640   5.228   1.639
 4571TIP3    H135348   3.641   5.257   1.730
 4571TIP3    H235349   3.630   5.309   1.588
 4572TIP3   OH235350   2.973   3.189   7.590
 4572TIP3    H135351   2.991   3.267   7.643
 4572TIP3    H235352   3.035   3.194   7.517
 4573TIP3   OH235353   5.032   1.898   6.456
 4573TIP3    H135354   4.973   1.834   6.496
 4573TIP3    H235355   4.979   1.977   6.445
 4574TIP3   OH235356   6.170   4.512   1.419
 4574TIP3    H135357   6.147   4.452   1.489
 4574TIP3    H235358   6.087   4.552   1.393
 4575TIP3   OH235359   1.839   1.531   2.013
 4575TIP3    H135360   1.928   1.546   1.980
 4575TIP3    H235361   1.847   1.537   2.108
 4576TIP3   OH235362   0.492   1.369   0.144
 4576TIP3    H135363   0.461   1.288   0.185
 4576TIP3    H235364   0.550   1.340   0.073
 4577TIP3   OH235365   5.772   5.149   1.696
 4577TIP3    H135366   5.840   5.193   1.645
 4577TIP3    H235367   5.697   5.146   1.636
 4578TIP3   OH235368   6.385   4.820   7.711
 4578TIP3    H135369   6.354   4.894   7.659
 4578TIP3    H235370   6.410   4.754   7.647
 4579TIP3   OH235371   6.477   4.035   8.145
 4579TIP3    H135372   6.432   3.955   8.171
 4579TIP3    H235373   6.496   4.080   8.227
 4580TIP3   OH235374   6.584   4.687   6.566
 4580TIP3    H135375   6.611   4.626   6.634
 4580TIP3    H235376   6.647   4.674   6.495
 4581TIP3   OH235377   3.597   1.896   8.983
 4581TIP3    H135378   3.680   1.877   9.026
 4581TIP3    H235379   3.566   1.976   9.025
 4582TIP3   OH235380   2.799   4.543   0.957
 4582TIP3    H135381   2.788   4.637   0.964
 4582TIP3    H235382   2.805   4.513   1.048
 4583TIP3   OH235383   5.528   1.966   0.899
 4583TIP3    H135384   5.475   1.963   0.819
 4583TIP3    H235385   5.494   1.894   0.952
 4584TIP3   OH235386   5.099   1.345   0.784
 4584TIP3    H135387   5.045   1.382   0.715
 4584TIP3    H235388   5.179   1.318   0.739
 4585TIP3   OH235389   5.476   2.396   8.739
 4585TIP3    H135390   5.551   2.455   8.733
 4585TIP3    H235391   5.512   2.309   8.726
 4586TIP3   OH235392   5.516   0.066   7.711
 4586TIP3    H135393   5.534  -0.017   7.753
 4586TIP3    H235394   5.508   0.129   7.783
 4587TIP3   OH235395   6.502   3.260   1.411
 4587TIP3    H135396   6.581   3.206   1.421
 4587TIP3    H235397   6.525   3.323   1.343
 4588TIP3   OH235398   4.558   0.758   1.521
 4588TIP3    H135399   4.516   0.838   1.554
 4588TIP3    H235400   4.641   0.754   1.568
 4589TIP3   OH235401   3.570   2.307   1.895
 4589TIP3    H135402   3.572   2.213   1.912
 4589TIP3    H235403   3.533   2.345   1.974
 4590TIP3   OH235404   3.275   5.316   1.389
 4590TIP3    H135405   3.279   5.269   1.306
 4590TIP3    H235406   3.184   5.308   1.418
 4591TIP3   OH235407   0.275   3.464   0.785
 4591TIP3    H135408   0.256   3.372   0.803
 4591TIP3    H235409   0.245   3.477   0.694
 4592TIP3   OH235410   0.594   3.082   7.338
 4592TIP3    H135411   0.644   3.008   7.373
 4592TIP3    H235412   0.506   3.072   7.375
 4593TIP3   OH235413   2.954   6.710   7.669
 4593TIP3    H135414   3.039   6.740   7.702
 4593TIP3    H235415   2.952   6.616   7.688
 4594TIP3   OH235416   3.223   4.230   7.632
 4594TIP3    H135417   3.290   4.297   7.620
 4594TIP3    H235418   3.252   4.157   7.579
 4595TIP3   OH235419   6.583   5.927   6.709
 4595TIP3    H135420   6.622   5.839   6.709
 4595TIP3    H235421   6.506   5.919   6.764
 4596TIP3   OH235422   4.100   2.218   7.137
 4596TIP3    H135423   4.110   2.248   7.047
 4596TIP3    H235424   4.047   2.285   7.179
 4597TIP3   OH235425   3.374   6.450   2.094
 4597TIP3    H135426   3.406   6.409   2.174
 4597TIP3    H235427   3.450   6.496   2.058
 4598TIP3   OH235428   5.213   5.059   1.378
 4598TIP3    H135429   5.164   5.111   1.314
 4598TIP3    H235430   5.227   5.119   1.451
 4599TIP3   OH235431   6.026   4.967   6.769
 4599TIP3    H135432   5.988   4.993   6.685
 4599TIP3    H235433   5.961   4.910   6.809
 4600TIP3   OH235434   0.085   1.824   8.276
 4600TIP3    H135435   0.119   1.741   8.309
 4600TIP3    H235436   0.123   1.832   8.188
 4601TIP3   OH235437   6.481   2.113   7.624
 4601TIP3    H135438   6.427   2.191   7.634
 4601TIP3    H235439   6.426   2.052   7.574
 4602TIP3   OH235440   3.454   0.304   7.068
 4602TIP3    H135441   3.447   0.366   6.995
 4602TIP3    H235442   3.365   0.295   7.101
 4603TIP3   OH235443   2.996   4.758   8.631
 4603TIP3    H135444   3.072   4.732   8.579
 4603TIP3    H235445   3.034   4.803   8.707
 4604TIP3   OH235446   4.204   0.364   6.094
 4604TIP3    H135447   4.238   0.362   6.184
 4604TIP3    H235448   4.116   0.401   6.103
 4605TIP3   OH235449   0.193   0.460   6.828
 4605TIP3    H135450   0.187   0.483   6.736
 4605TIP3    H235451   0.165   0.368   6.832
 4606TIP3   OH235452   5.441   4.978   1.225
 4606TIP3    H135453   5.372   4.990   1.290
 4606TIP3    H235454   5.443   5.061   1.177
 4607TIP3   OH235455   1.331   4.847   0.950
 4607TIP3    H135456   1.351   4.889   0.867
 4607TIP3    H235457   1.384   4.767   0.950
 4608TIP3   OH235458   4.760   4.531   7.745
 4608TIP3    H135459   4.734   4.464   7.681
 4608TIP3    H235460   4.854   4.518   7.756
 4609TIP3   OH235461   1.953   1.462   0.536
 4609TIP3    H135462   1.909   1.482   0.453
 4609TIP3    H235463   1.961   1.547   0.580
 4610TIP3   OH235464   0.913   5.835   7.178
 4610TIP3    H135465   0.969   5.862   7.104
 4610TIP3    H235466   0.911   5.912   7.235
 4611TIP3   OH235467   4.665   1.014   8.322
 4611TIP3    H135468   4.647   1.103   8.351
 4611TIP3    H235469   4.586   0.986   8.277
 4612TIP3   OH235470   5.130   4.905   8.823
 4612TIP3    H135471   5.077   4.931   8.747
 4612TIP3    H235472   5.218   4.935   8.802
 4613TIP3   OH235473   4.286   1.444   0.991
 4613TIP3    H135474   4.369   1.404   1.015
 4613TIP3    H235475   4.220   1.389   1.035
 4614TIP3   OH235476   5.944   1.695   8.489
 4614TIP3    H135477   5.855   1.722   8.467
 4614TIP3    H235478   6.000   1.757   8.442
 4615TIP3   OH235479   5.809   3.099   2.451
 4615TIP3    H135480   5.889   3.066   2.410
 4615TIP3    H235481   5.764   3.021   2.482
 4616TIP3   OH235482   3.836   4.271   0.059
 4616TIP3    H135483   3.836   4.280  -0.036
 4616TIP3    H235484   3.790   4.189   0.076
 4617TIP3   OH235485   1.673   2.005   1.109
 4617TIP3    H135486   1.631   2.085   1.141
 4617TIP3    H235487   1.618   1.934   1.142
 4618TIP3   OH235488   4.857   2.897   7.960
 4618TIP3    H135489   4.806   2.967   7.920
 4618TIP3    H235490   4.839   2.905   8.054
 4619TIP3   OH235491   6.124   1.759   7.628
 4619TIP3    H135492   6.073   1.715   7.560
 4619TIP3    H235493   6.178   1.690   7.666
 4620TIP3   OH235494   1.998   3.788   0.772
 4620TIP3    H135495   2.051   3.787   0.692
 4620TIP3    H235496   1.974   3.880   0.783
 4621TIP3   OH235497   4.653   1.605   7.312
 4621TIP3    H135498   4.582   1.665   7.293
 4621TIP3    H235499   4.732   1.653   7.289
 4622TIP3   OH235500   6.608   5.615   7.100
 4622TIP3    H135501   6.634   5.560   7.026
 4622TIP3    H235502   6.604   5.704   7.064
 4623TIP3   OH235503   1.022   2.144   0.695
 4623TIP3    H135504   1.029   2.210   0.626
 4623TIP3    H235505   0.966   2.076   0.657
 4624TIP3   OH235506   4.441   5.811   6.911
 4624TIP3    H135507   4.463   5.750   6.841
 4624TIP3    H235508   4.488   5.891   6.889
 4625TIP3   OH235509   3.253   3.767   7.465
 4625TIP3    H135510   3.223   3.677   7.475
 4625TIP3    H235511   3.311   3.764   7.388
 4626TIP3   OH235512   0.082   4.382   6.661
 4626TIP3    H135513   0.093   4.395   6.567
 4626TIP3    H235514   0.159   4.330   6.687
 4627TIP3   OH235515   3.056   3.222   6.484
 4627TIP3    H135516   3.070   3.209   6.578
 4627TIP3    H235517   3.124   3.284   6.458
 4628TIP3   OH235518   6.136   1.221   2.247
 4628TIP3    H135519   6.228   1.241   2.231
 4628TIP3    H235520   6.098   1.303   2.277
 4629TIP3   OH235521   5.384   0.365   8.628
 4629TIP3    H135522   5.467   0.364   8.580
 4629TIP3    H235523   5.410   0.373   8.720
 4630TIP3   OH235524   5.674   2.686   0.897
 4630TIP3    H135525   5.637   2.622   0.837
 4630TIP3    H235526   5.767   2.689   0.875
 4631TIP3   OH235527   0.846   2.496   0.720
 4631TIP3    H135528   0.897   2.418   0.703
 4631TIP3    H235529   0.827   2.493   0.814
 4632TIP3   OH235530   0.105   4.675   7.252
 4632TIP3    H135531   0.139   4.683   7.341
 4632TIP3    H235532   0.013   4.702   7.259
 4633TIP3   OH235533   5.527   4.297   2.362
 4633TIP3    H135534   5.496   4.365   2.422
 4633TIP3    H235535   5.608   4.331   2.327
 4634TIP3   OH235536   0.426   0.756   0.882
 4634TIP3    H135537   0.405   0.663   0.886
 4634TIP3    H235538   0.453   0.771   0.791
 4635TIP3   OH235539   2.884   1.945   0.488
 4635TIP3    H135540   2.908   1.860   0.525
 4635TIP3    H235541   2.946   2.007   0.527
 4636TIP3   OH235542   5.142   0.325   7.603
 4636TIP3    H135543   5.144   0.259   7.673
 4636TIP3    H235544   5.156   0.408   7.649
 4637TIP3   OH235545   6.653   0.607   6.963
 4637TIP3    H135546   6.640   0.698   6.991
 4637TIP3    H235547   6.705   0.614   6.884
 4638TIP3   OH235548   3.573   2.168   0.403
 4638TIP3    H135549   3.559   2.208   0.489
 4638TIP3    H235550   3.521   2.087   0.406
 4639TIP3   OH235551   2.252   3.086   1.203
 4639TIP3    H135552   2.191   3.140   1.253
 4639TIP3    H235553   2.307   3.150   1.157
 4640TIP3   OH235554   5.408   6.538   0.212
 4640TIP3    H135555   5.356   6.487   0.273
 4640TIP3    H235556   5.409   6.486   0.132
 4641TIP3   OH235557   2.278   0.374   6.569
 4641TIP3    H135558   2.324   0.416   6.496
 4641TIP3    H235559   2.279   0.439   6.639
 4642TIP3   OH235560   6.235   5.988   0.582
 4642TIP3    H135561   6.234   5.913   0.641
 4642TIP3    H235562   6.146   5.991   0.546
 4643TIP3   OH235563   4.733   1.248   0.747
 4643TIP3    H135564   4.704   1.338   0.738
 4643TIP3    H235565   4.716   1.225   0.838
 4644TIP3   OH235566   5.305   5.937   7.076
 4644TIP3    H135567   5.393   5.935   7.040
 4644TIP3    H235568   5.255   5.992   7.016
 4645TIP3   OH235569   4.151   2.701   8.807
 4645TIP3    H135570   4.138   2.652   8.888
 4645TIP3    H235571   4.183   2.636   8.744
 4646TIP3   OH235572   0.286   5.155   1.774
 4646TIP3    H135573   0.332   5.218   1.720
 4646TIP3    H235574   0.207   5.200   1.803
 4647TIP3   OH235575   0.907   1.461   8.699
 4647TIP3    H135576   0.815   1.443   8.678
 4647TIP3    H235577   0.924   1.546   8.660
 4648TIP3   OH235578   5.673   0.611   1.408
 4648TIP3    H135579   5.668   0.594   1.314
 4648TIP3    H235580   5.608   0.679   1.424
 4649TIP3   OH235581   0.804   4.015   8.829
 4649TIP3    H135582   0.809   4.098   8.782
 4649TIP3    H235583   0.885   4.012   8.881
 4650TIP3   OH235584   1.871   5.928   7.731
 4650TIP3    H135585   1.805   5.983   7.689
 4650TIP3    H235586   1.890   5.972   7.813
 4651TIP3   OH235587   5.643   4.713   1.389
 4651TIP3    H135588   5.639   4.662   1.470
 4651TIP3    H235589   5.629   4.650   1.319
 4652TIP3   OH235590   6.424   2.821   0.673
 4652TIP3    H135591   6.404   2.767   0.749
 4652TIP3    H235592   6.376   2.902   0.687
 4653TIP3   OH235593   4.245   1.373   2.287
 4653TIP3    H135594   4.214   1.301   2.233
 4653TIP3    H235595   4.170   1.431   2.297
 4654TIP3   OH235596   3.381   3.319   8.564
 4654TIP3    H135597   3.469   3.353   8.580
 4654TIP3    H235598   3.323   3.384   8.604
 4655TIP3   OH235599   2.881   5.820   1.141
 4655TIP3    H135600   2.823   5.858   1.208
 4655TIP3    H235601   2.863   5.870   1.062
 4656TIP3   OH235602   0.186   5.756   6.627
 4656TIP3    H135603   0.220   5.704   6.700
 4656TIP3    H235604   0.102   5.715   6.607
 4657TIP3   OH235605   1.764   3.176   8.691
 4657TIP3    H135606   1.779   3.110   8.623
 4657TIP3    H235607   1.670   3.170   8.709
 4658TIP3   OH235608   5.509   5.377   8.129
 4658TIP3    H135609   5.512   5.431   8.208
 4658TIP3    H235610   5.579   5.313   8.140
 4659TIP3   OH235611   2.736   2.429   1.303
 4659TIP3    H135612   2.788   2.349   1.310
 4659TIP3    H235613   2.779   2.491   1.361
 4660TIP3   OH235614   5.635   5.409   6.899
 4660TIP3    H135615   5.673   5.495   6.918
 4660TIP3    H235616   5.570   5.427   6.831
 4661TIP3   OH235617   3.525   4.552   0.775
 4661TIP3    H135618   3.582   4.504   0.834
 4661TIP3    H235619   3.510   4.636   0.819
 4662TIP3   OH235620   5.398   2.385   7.816
 4662TIP3    H135621   5.348   2.334   7.753
 4662TIP3    H235622   5.335   2.408   7.885
 4663TIP3   OH235623   2.028   5.377   0.088
 4663TIP3    H135624   2.020   5.284   0.109
 4663TIP3    H235625   2.117   5.400   0.112
 4664TIP3   OH235626   4.919   2.108   1.353
 4664TIP3    H135627   5.002   2.147   1.380
 4664TIP3    H235628   4.942   2.017   1.330
 4665TIP3   OH235629   1.282   1.755   8.789
 4665TIP3    H135630   1.227   1.833   8.776
 4665TIP3    H235631   1.328   1.745   8.706
 4666TIP3   OH235632   1.070   5.629   8.314
 4666TIP3    H135633   1.017   5.562   8.356
 4666TIP3    H235634   1.153   5.628   8.363
 4667TIP3   OH235635   5.523   2.639   0.340
 4667TIP3    H135636   5.491   2.713   0.391
 4667TIP3    H235637   5.477   2.563   0.376
 4668TIP3   OH235638   1.674   5.035   6.715
 4668TIP3    H135639   1.724   5.000   6.641
 4668TIP3    H235640   1.614   5.098   6.676
 4669TIP3   OH235641   1.701   3.675   0.262
 4669TIP3    H135642   1.658   3.747   0.308
 4669TIP3    H235643   1.676   3.686   0.171
 4670TIP3   OH235644   6.304   2.171   1.225
 4670TIP3    H135645   6.251   2.215   1.158
 4670TIP3    H235646   6.302   2.230   1.300
 4671TIP3   OH235647   1.597   0.863   8.875
 4671TIP3    H135648   1.683   0.877   8.914
 4671TIP3    H235649   1.541   0.838   8.948
 4672TIP3   OH235650   5.066   1.544   7.244
 4672TIP3    H135651   4.994   1.489   7.214
 4672TIP3    H235652   5.144   1.491   7.229
 4673TIP3   OH235653   3.493   5.164   0.992
 4673TIP3    H135654   3.444   5.084   1.009
 4673TIP3    H235655   3.495   5.171   0.896
 4674TIP3   OH235656   3.520   2.661   0.639
 4674TIP3    H135657   3.503   2.636   0.729
 4674TIP3    H235658   3.615   2.673   0.635
 4675TIP3   OH235659   5.173   2.642   0.739
 4675TIP3    H135660   5.150   2.726   0.699
 4675TIP3    H235661   5.169   2.658   0.834
 4676TIP3   OH235662   3.446   5.282   6.963
 4676TIP3    H135663   3.352   5.304   6.963
 4676TIP3    H235664   3.472   5.290   7.054
 4677TIP3   OH235665   0.788   2.955   6.626
 4677TIP3    H135666   0.714   2.998   6.670
 4677TIP3    H235667   0.794   2.869   6.668
 4678TIP3   OH235668   5.964   6.511   1.326
 4678TIP3    H135669   6.057   6.497   1.340
 4678TIP3    H235670   5.959   6.568   1.249
 4679TIP3   OH235671   1.449   3.524   2.470
 4679TIP3    H135672   1.510   3.468   2.422
 4679TIP3    H235673   1.505   3.585   2.519
 4680TIP3   OH235674   6.741   4.453   7.038
 4680TIP3    H135675   6.662   4.402   7.055
 4680TIP3    H235676   6.738   4.472   6.944
 4681TIP3   OH235677   5.457   2.405   7.242
 4681TIP3    H135678   5.545   2.369   7.245
 4681TIP3    H235679   5.433   2.404   7.150
 4682TIP3   OH235680   2.348   4.702   2.302
 4682TIP3    H135681   2.276   4.679   2.361
 4682TIP3    H235682   2.315   4.679   2.214
 4683TIP3   OH235683   1.211   2.288   6.851
 4683TIP3    H135684   1.227   2.372   6.808
 4683TIP3    H235685   1.208   2.224   6.780
 4684TIP3   OH235686   6.548   4.936   8.640
 4684TIP3    H135687   6.575   4.922   8.730
 4684TIP3    H235688   6.472   4.880   8.628
 4685TIP3   OH235689   5.157   6.238   8.567
 4685TIP3    H135690   5.095   6.248   8.640
 4685TIP3    H235691   5.242   6.260   8.605
 4686TIP3   OH235692   6.007   5.782   0.399
 4686TIP3    H135693   5.934   5.812   0.454
 4686TIP3    H235694   5.968   5.772   0.312
 4687TIP3   OH235695   4.546   3.421   0.716
 4687TIP3    H135696   4.619   3.360   0.709
 4687TIP3    H235697   4.569   3.478   0.790
 4688TIP3   OH235698   2.745   1.554   0.422
 4688TIP3    H135699   2.770   1.467   0.451
 4688TIP3    H235700   2.824   1.590   0.382
 4689TIP3   OH235701   4.193   4.862   7.589
 4689TIP3    H135702   4.231   4.908   7.514
 4689TIP3    H235703   4.121   4.918   7.618
 4690TIP3   OH235704   5.317   1.107   1.048
 4690TIP3    H135705   5.282   1.018   1.050
 4690TIP3    H235706   5.244   1.163   1.074
 4691TIP3   OH235707   4.213   6.001   6.669
 4691TIP3    H135708   4.184   5.985   6.759
 4691TIP3    H235709   4.308   5.995   6.674
 4692TIP3   OH235710   4.053   6.535   0.359
 4692TIP3    H135711   4.141   6.496   0.354
 4692TIP3    H235712   4.068   6.621   0.399
 4693TIP3   OH235713   5.215   1.563   0.529
 4693TIP3    H135714   5.159   1.580   0.453
 4693TIP3    H235715   5.159   1.580   0.604
 4694TIP3   OH235716   0.338   0.418   0.976
 4694TIP3    H135717   0.388   0.340   0.951
 4694TIP3    H235718   0.367   0.437   1.065
 4695TIP3   OH235719   5.607   4.503   0.385
 4695TIP3    H135720   5.523   4.459   0.399
 4695TIP3    H235721   5.664   4.471   0.455
 4696TIP3   OH235722   2.082   4.434   0.984
 4696TIP3    H135723   2.003   4.469   0.943
 4696TIP3    H235724   2.154   4.480   0.940
 4697TIP3   OH235725   0.371   6.563   1.682
 4697TIP3    H135726   0.340   6.645   1.642
 4697TIP3    H235727   0.354   6.574   1.775
 4698TIP3   OH235728   2.178   0.890   0.413
 4698TIP3    H135729   2.224   0.907   0.495
 4698TIP3    H235730   2.166   0.795   0.411
 4699TIP3   OH235731   4.533   3.340   8.230
 4699TIP3    H135732   4.544   3.293   8.147
 4699TIP3    H235733   4.438   3.347   8.241
 4700TIP3   OH235734   5.934   2.704   0.841
 4700TIP3    H135735   5.980   2.676   0.920
 4700TIP3    H235736   5.967   2.646   0.773
 4701TIP3   OH235737   3.755   3.489   1.391
 4701TIP3    H135738   3.731   3.536   1.470
 4701TIP3    H235739   3.692   3.417   1.385
 4702TIP3   OH235740   0.180   6.668   8.264
 4702TIP3    H135741   0.200   6.657   8.357
 4702TIP3    H235742   0.134   6.588   8.240
 4703TIP3   OH235743   1.370   2.577   1.678
 4703TIP3    H135744   1.418   2.496   1.659
 4703TIP3    H235745   1.438   2.644   1.686
 4704TIP3   OH235746   5.862   4.063   0.201
 4704TIP3    H135747   5.793   4.027   0.146
 4704TIP3    H235748   5.832   4.049   0.291
 4705TIP3   OH235749   6.693   5.601   8.676
 4705TIP3    H135750   6.623   5.551   8.717
 4705TIP3    H235751   6.677   5.591   8.582
 4706TIP3   OH235752   4.765   2.180   1.589
 4706TIP3    H135753   4.798   2.091   1.599
 4706TIP3    H235754   4.753   2.190   1.494
 4707TIP3   OH235755   6.383   4.825   7.127
 4707TIP3    H135756   6.323   4.750   7.126
 4707TIP3    H235757   6.337   4.893   7.079
 4708TIP3   OH235758   1.868   6.772   0.227
 4708TIP3    H135759   1.843   6.702   0.287
 4708TIP3    H235760   1.826   6.749   0.144
 4709TIP3   OH235761   1.809   5.066   1.633
 4709TIP3    H135762   1.791   5.047   1.725
 4709TIP3    H235763   1.759   5.145   1.615
 4710TIP3   OH235764   6.099   3.630   0.309
 4710TIP3    H135765   6.171   3.630   0.246
 4710TIP3    H235766   6.137   3.594   0.389
 4711TIP3   OH235767   1.416   3.802   1.860
 4711TIP3    H135768   1.356   3.866   1.897
 4711TIP3    H235769   1.360   3.739   1.815
 4712TIP3   OH235770   2.766   2.269   0.669
 4712TIP3    H135771   2.677   2.302   0.675
 4712TIP3    H235772   2.763   2.183   0.712
 4713TIP3   OH235773   2.912   3.386   0.256
 4713TIP3    H135774   2.906   3.445   0.182
 4713TIP3    H235775   2.933   3.442   0.331
 4714TIP3   OH235776   6.200   6.200   1.441
 4714TIP3    H135777   6.255   6.272   1.472
 4714TIP3    H235778   6.115   6.215   1.481
 4715TIP3   OH235779   3.294   3.782   0.620
 4715TIP3    H135780   3.200   3.789   0.633
 4715TIP3    H235781   3.324   3.723   0.689
 4716TIP3   OH235782   0.995   4.755   8.235
 4716TIP3    H135783   1.066   4.720   8.290
 4716TIP3    H235784   0.916   4.711   8.266
 4717TIP3   OH235785   4.242   1.988   7.205
 4717TIP3    H135786   4.183   2.058   7.178
 4717TIP3    H235787   4.314   1.992   7.142
 4718TIP3   OH235788   5.964   4.076   1.430
 4718TIP3    H135789   6.059   4.077   1.443
 4718TIP3    H235790   5.949   4.003   1.370
 4719TIP3   OH235791   3.097   1.471   7.327
 4719TIP3    H135792   3.131   1.542   7.273
 4719TIP3    H235793   3.038   1.514   7.389
 4720TIP3   OH235794   4.245   2.593   8.358
 4720TIP3    H135795   4.340   2.601   8.349
 4720TIP3    H235796   4.215   2.562   8.272
 4721TIP3   OH235797   6.245   2.934   8.262
 4721TIP3    H135798   6.163   2.952   8.310
 4721TIP3    H235799   6.286   3.019   8.252
 4722TIP3   OH235800   2.854   2.667   1.372
 4722TIP3    H135801   2.921   2.735   1.365
 4722TIP3    H235802   2.775   2.714   1.399
 4723TIP3   OH235803   4.416   1.276   8.842
 4723TIP3    H135804   4.376   1.337   8.780
 4723TIP3    H235805   4.402   1.315   8.928
 4724TIP3   OH235806   5.738   3.180   8.785
 4724TIP3    H135807   5.669   3.140   8.837
 4724TIP3    H235808   5.697   3.258   8.747
 4725TIP3   OH235809   4.582   0.420   1.343
 4725TIP3    H135810   4.531   0.467   1.409
 4725TIP3    H235811   4.672   0.449   1.357
 4726TIP3   OH235812   2.525   1.326   8.098
 4726TIP3    H135813   2.482   1.384   8.035
 4726TIP3    H235814   2.452   1.283   8.144
 4727TIP3   OH235815   3.202   5.445   6.981
 4727TIP3    H135816   3.191   5.540   6.982
 4727TIP3    H235817   3.133   5.414   6.923
 4728TIP3   OH235818   0.748   1.419   0.522
 4728TIP3    H135819   0.708   1.462   0.599
 4728TIP3    H235820   0.781   1.492   0.469
 4729TIP3   OH235821   4.327   2.774   1.762
 4729TIP3    H135822   4.383   2.794   1.687
 4729TIP3    H235823   4.339   2.848   1.822
 4730TIP3   OH235824   4.625   4.728   8.188
 4730TIP3    H135825   4.679   4.799   8.154
 4730TIP3    H235826   4.538   4.766   8.197
 4731TIP3   OH235827   2.516   0.550   0.913
 4731TIP3    H135828   2.487   0.460   0.928
 4731TIP3    H235829   2.539   0.583   1.000
 4732TIP3   OH235830   1.605   4.615   1.090
 4732TIP3    H135831   1.690   4.571   1.083
 4732TIP3    H235832   1.567   4.608   1.003
 4733TIP3   OH235833   1.389   2.124   7.659
 4733TIP3    H135834   1.380   2.060   7.588
 4733TIP3    H235835   1.469   2.097   7.705
 4734TIP3   OH235836   1.955   3.503   0.250
 4734TIP3    H135837   1.928   3.559   0.178
 4734TIP3    H235838   1.893   3.523   0.320
 4735TIP3   OH235839   2.762   1.046   0.416
 4735TIP3    H135840   2.693   1.112   0.412
 4735TIP3    H235841   2.761   1.015   0.507
 4736TIP3   OH235842   4.791   4.286   8.494
 4736TIP3    H135843   4.740   4.266   8.572
 4736TIP3    H235844   4.729   4.281   8.422
 4737TIP3   OH235845   3.113   4.382   8.965
 4737TIP3    H135846   3.077   4.303   8.924
 4737TIP3    H235847   3.063   4.392   9.046
 4738TIP3   OH235848   2.703   0.930   6.505
 4738TIP3    H135849   2.735   0.887   6.425
 4738TIP3    H235850   2.738   1.019   6.501
 4739TIP3   OH235851   4.821   3.153   0.214
 4739TIP3    H135852   4.886   3.200   0.162
 4739TIP3    H235853   4.872   3.106   0.280
 4740TIP3   OH235854   3.200   1.889   8.009
 4740TIP3    H135855   3.151   1.896   7.927
 4740TIP3    H235856   3.291   1.903   7.984
 4741TIP3   OH235857   0.163   6.106   7.432
 4741TIP3    H135858   0.203   6.046   7.495
 4741TIP3    H235859   0.200   6.191   7.454
 4742TIP3   OH235860   6.167   5.882   8.626
 4742TIP3    H135861   6.183   5.914   8.714
 4742TIP3    H235862   6.253   5.886   8.583
 4743TIP3   OH235863   5.764   5.821   7.593
 4743TIP3    H135864   5.669   5.826   7.610
 4743TIP3    H235865   5.802   5.804   7.679
 4744TIP3   OH235866   6.219   3.406   8.869
 4744TIP3    H135867   6.133   3.369   8.891
 4744TIP3    H235868   6.201   3.469   8.799
 4745TIP3   OH235869   3.617   0.015   7.754
 4745TIP3    H135870   3.564  -0.037   7.694
 4745TIP3    H235871   3.684  -0.045   7.785
 4746TIP3   OH235872   0.793   2.927   8.874
 4746TIP3    H135873   0.821   2.854   8.820
 4746TIP3    H235874   0.774   2.888   8.959
 4747TIP3   OH235875   3.761   6.044   8.100
 4747TIP3    H135876   3.837   5.991   8.123
 4747TIP3    H235877   3.686   5.994   8.132
 4748TIP3   OH235878   1.199   2.393   6.487
 4748TIP3    H135879   1.181   2.301   6.501
 4748TIP3    H235880   1.119   2.438   6.514
 4749TIP3   OH235881   0.349   6.437   0.031
 4749TIP3    H135882   0.406   6.369  -0.004
 4749TIP3    H235883   0.357   6.509  -0.032
 4750TIP3   OH235884   4.488   0.448   1.080
 4750TIP3    H135885   4.514   0.462   1.171
 4750TIP3    H235886   4.518   0.526   1.034
 4751TIP3   OH235887   6.085   1.913   7.930
 4751TIP3    H135888   6.013   1.911   7.866
 4751TIP3    H235889   6.066   1.989   7.984
 4752TIP3   OH235890   3.650   0.953   1.185
 4752TIP3    H135891   3.563   0.929   1.153
 4752TIP3    H235892   3.692   0.869   1.206
 4753TIP3   OH235893   5.819   3.187   7.555
 4753TIP3    H135894   5.880   3.225   7.491
 4753TIP3    H235895   5.764   3.128   7.503
 4754TIP3   OH235896   1.280   1.143   0.060
 4754TIP3    H135897   1.336   1.129  -0.017
 4754TIP3    H235898   1.216   1.208   0.031
 4755TIP3   OH235899   4.121   0.018   6.938
 4755TIP3    H135900   4.070   0.077   6.882
 4755TIP3    H235901   4.059  -0.049   6.966
 4756TIP3   OH235902   0.643   5.765   0.324
 4756TIP3    H135903   0.690   5.709   0.262
 4756TIP3    H235904   0.706   5.834   0.345
 4757TIP3   OH235905   5.433   4.723   7.959
 4757TIP3    H135906   5.504   4.727   8.023
 4757TIP3    H235907   5.433   4.633   7.927
 4758TIP3   OH235908   0.936   1.924   8.431
 4758TIP3    H135909   0.967   2.009   8.463
 4758TIP3    H235910   0.843   1.923   8.452
 4759TIP3   OH235911   0.490   4.422   1.912
 4759TIP3    H135912   0.406   4.379   1.895
 4759TIP3    H235913   0.513   4.465   1.830
 4760TIP3   OH235914   6.473   4.976   8.126
 4760TIP3    H135915   6.386   4.964   8.163
 4760TIP3    H235916   6.511   5.047   8.177
 4761TIP3   OH235917   4.524   1.456   0.493
 4761TIP3    H135918   4.577   1.445   0.415
 4761TIP3    H235919   4.476   1.374   0.501
 4762TIP3   OH235920   4.007   1.742   0.667
 4762TIP3    H135921   3.960   1.770   0.746
 4762TIP3    H235922   3.989   1.649   0.660
 4763TIP3   OH235923   2.552   5.176   2.390
 4763TIP3    H135924   2.500   5.171   2.470
 4763TIP3    H235925   2.530   5.096   2.343
 4764TIP3   OH235926   5.254   5.347   8.019
 4764TIP3    H135927   5.222   5.257   8.013
 4764TIP3    H235928   5.335   5.341   8.069
 4765TIP3   OH235929   1.121   2.862   7.896
 4765TIP3    H135930   1.084   2.775   7.881
 4765TIP3    H235931   1.117   2.905   7.810
 4766TIP3   OH235932   0.906   4.797   1.460
 4766TIP3    H135933   1.000   4.802   1.444
 4766TIP3    H235934   0.898   4.742   1.538
 4767TIP3   OH235935   3.500   0.125   8.374
 4767TIP3    H135936   3.577   0.100   8.425
 4767TIP3    H235937   3.429   0.130   8.439
 4768TIP3   OH235938   5.282   5.706   0.090
 4768TIP3    H135939   5.267   5.618   0.054
 4768TIP3    H235940   5.221   5.762   0.042
 4769TIP3   OH235941   6.104   2.945   6.801
 4769TIP3    H135942   6.009   2.944   6.786
 4769TIP3    H235943   6.134   2.862   6.764
 4770TIP3   OH235944   3.759   3.527   2.035
 4770TIP3    H135945   3.713   3.588   2.094
 4770TIP3    H235946   3.790   3.458   2.093
 4771TIP3   OH235947   4.887   6.434   7.533
 4771TIP3    H135948   4.799   6.466   7.515
 4771TIP3    H235949   4.942   6.475   7.467
 4772TIP3   OH235950   6.634   1.864   8.189
 4772TIP3    H135951   6.725   1.855   8.215
 4772TIP3    H235952   6.619   1.958   8.184
 4773TIP3   OH235953   1.449   3.297   2.141
 4773TIP3    H135954   1.487   3.313   2.055
 4773TIP3    H235955   1.503   3.349   2.200
 4774TIP3   OH235956   1.287   5.020   8.936
 4774TIP3    H135957   1.201   5.050   8.967
 4774TIP3    H235958   1.271   4.931   8.903
 4775TIP3   OH235959   5.176   4.510   8.781
 4775TIP3    H135960   5.265   4.511   8.745
 4775TIP3    H235961   5.127   4.571   8.726
 4776TIP3   OH235962   2.668   4.259   6.425
 4776TIP3    H135963   2.704   4.214   6.349
 4776TIP3    H235964   2.613   4.328   6.387
 4777TIP3   OH235965   4.841   5.529   1.938
 4777TIP3    H135966   4.752   5.550   1.910
 4777TIP3    H235967   4.833   5.510   2.031
 4778TIP3   OH235968   3.222   4.472   8.670
 4778TIP3    H135969   3.212   4.543   8.733
 4778TIP3    H235970   3.211   4.514   8.585
 4779TIP3   OH235971   4.607   1.712   1.042
 4779TIP3    H135972   4.564   1.680   1.122
 4779TIP3    H235973   4.676   1.770   1.074
 4780TIP3   OH235974   4.630   2.254   0.613
 4780TIP3    H135975   4.599   2.333   0.569
 4780TIP3    H235976   4.582   2.252   0.696
 4781TIP3   OH235977   0.364   4.805   7.247
 4781TIP3    H135978   0.398   4.716   7.261
 4781TIP3    H235979   0.270   4.792   7.232
 4782TIP3   OH235980   1.451   0.803   0.643
 4782TIP3    H135981   1.473   0.772   0.555
 4782TIP3    H235982   1.426   0.894   0.632
 4783TIP3   OH235983   1.848   5.667   1.604
 4783TIP3    H135984   1.901   5.704   1.674
 4783TIP3    H235985   1.790   5.605   1.648
 4784TIP3   OH235986   1.061   0.085   6.928
 4784TIP3    H135987   1.117   0.016   6.963
 4784TIP3    H235988   1.038   0.056   6.840
 4785TIP3   OH235989   0.806   5.604   8.740
 4785TIP3    H135990   0.900   5.619   8.755
 4785TIP3    H235991   0.765   5.689   8.755
 4786TIP3   OH235992   5.181   5.576   1.576
 4786TIP3    H135993   5.171   5.590   1.670
 4786TIP3    H235994   5.239   5.500   1.569
 4787TIP3   OH235995   2.241   0.864   7.662
 4787TIP3    H135996   2.189   0.853   7.742
 4787TIP3    H235997   2.250   0.776   7.627
 4788TIP3   OH235998   6.303   2.605   7.809
 4788TIP3    H135999   6.370   2.667   7.784
 4788TIP3    H236000   6.276   2.632   7.896
 4789TIP3   OH236001   3.566   0.091   1.779
 4789TIP3    H136002   3.541   0.132   1.862
 4789TIP3    H236003   3.527   0.003   1.783
 4790TIP3   OH236004   4.903   4.423   8.076
 4790TIP3    H136005   4.839   4.461   8.135
 4790TIP3    H236006   4.878   4.331   8.069
 4791TIP3   OH236007   4.766   6.127   8.471
 4791TIP3    H136008   4.781   6.107   8.563
 4791TIP3    H236009   4.814   6.209   8.456
 4792TIP3   OH236010   6.351   2.035   8.124
 4792TIP3    H136011   6.351   2.126   8.093
 4792TIP3    H236012   6.359   1.983   8.044
 4793TIP3   OH236013   3.842   1.859   0.134
 4793TIP3    H136014   3.894   1.779   0.124
 4793TIP3    H236015   3.879   1.902   0.211
 4794TIP3   OH236016   2.765   2.403   8.375
 4794TIP3    H136017   2.850   2.362   8.390
 4794TIP3    H236018   2.721   2.344   8.313
 4795TIP3   OH236019   3.851   0.513   1.066
 4795TIP3    H136020   3.870   0.424   1.095
 4795TIP3    H236021   3.936   0.549   1.041
 4796TIP3   OH236022   3.701   1.698   8.277
 4796TIP3    H136023   3.693   1.792   8.266
 4796TIP3    H236024   3.622   1.662   8.235
 4797TIP3   OH236025   3.561   4.697   0.311
 4797TIP3    H136026   3.486   4.638   0.303
 4797TIP3    H236027   3.618   4.675   0.238
 4798TIP3   OH236028   5.481   5.074   8.454
 4798TIP3    H136029   5.571   5.099   8.473
 4798TIP3    H236030   5.477   5.068   8.359
 4799TIP3   OH236031   2.013   0.363   1.758
 4799TIP3    H136032   1.918   0.372   1.754
 4799TIP3    H236033   2.046   0.451   1.738
 4800TIP3   OH236034   6.640   2.924   0.062
 4800TIP3    H136035   6.656   2.890   0.150
 4800TIP3    H236036   6.683   3.010   0.062
 4801TIP3   OH236037   3.674   1.674   1.215
 4801TIP3    H136038   3.612   1.733   1.172
 4801TIP3    H236039   3.760   1.701   1.182
 4802TIP3   OH236040   5.466   1.662   0.904
 4802TIP3    H136041   5.515   1.614   0.971
 4802TIP3    H236042   5.377   1.628   0.910
 4803TIP3   OH236043   3.817   4.146   1.038
 4803TIP3    H136044   3.911   4.148   1.058
 4803TIP3    H236045   3.791   4.056   1.056
 4804TIP3   OH236046   2.853   6.357   8.154
 4804TIP3    H136047   2.816   6.282   8.106
 4804TIP3    H236048   2.932   6.380   8.104
 4805TIP3   OH236049   5.196   4.436   2.053
 4805TIP3    H136050   5.257   4.474   2.115
 4805TIP3    H236051   5.110   4.468   2.080
 4806TIP3   OH236052   2.579   0.562   1.183
 4806TIP3    H136053   2.584   0.656   1.196
 4806TIP3    H236054   2.670   0.532   1.185
 4807TIP3   OH236055   2.763   2.327   7.554
 4807TIP3    H136056   2.695   2.268   7.521
 4807TIP3    H236057   2.822   2.339   7.479
 4808TIP3   OH236058   5.620   6.199   0.433
 4808TIP3    H136059   5.704   6.162   0.406
 4808TIP3    H236060   5.637   6.235   0.519
 4809TIP3   OH236061   5.900   0.249   0.780
 4809TIP3    H136062   5.862   0.162   0.773
 4809TIP3    H236063   5.961   0.254   0.707
 4810TIP3   OH236064   2.159   2.684   0.692
 4810TIP3    H136065   2.157   2.672   0.597
 4810TIP3    H236066   2.235   2.633   0.721
 4811TIP3   OH236067   2.661   1.180   1.130
 4811TIP3    H136068   2.633   1.093   1.158
 4811TIP3    H236069   2.699   1.219   1.209
 4812TIP3   OH236070   4.673   4.935   2.156
 4812TIP3    H136071   4.753   4.884   2.140
 4812TIP3    H236072   4.705   5.023   2.174
 4813TIP3   OH236073   3.627   4.546   7.460
 4813TIP3    H136074   3.692   4.612   7.483
 4813TIP3    H236075   3.680   4.468   7.438
 4814TIP3   OH236076   5.900   1.801   1.005
 4814TIP3    H136077   5.854   1.737   0.950
 4814TIP3    H236078   5.985   1.761   1.022
 4815TIP3   OH236079   6.070   1.766   0.478
 4815TIP3    H136080   6.112   1.788   0.561
 4815TIP3    H236081   6.137   1.781   0.412
 4816TIP3   OH236082   6.687   6.509   7.508
 4816TIP3    H136083   6.616   6.504   7.572
 4816TIP3    H236084   6.647   6.551   7.432
 4817TIP3   OH236085   0.333   0.192   7.098
 4817TIP3    H136086   0.339   0.187   7.003
 4817TIP3    H236087   0.408   0.141   7.130
 4818TIP3   OH236088   2.188   5.751   1.588
 4818TIP3    H136089   2.220   5.812   1.655
 4818TIP3    H236090   2.206   5.795   1.505
 4819TIP3   OH236091   6.020   1.163   0.397
 4819TIP3    H136092   6.078   1.198   0.330
 4819TIP3    H236093   6.002   1.237   0.455
 4820TIP3   OH236094   6.594   3.891   7.898
 4820TIP3    H136095   6.539   3.907   7.821
 4820TIP3    H236096   6.599   3.976   7.942
 4821TIP3   OH236097   1.287   0.393   0.447
 4821TIP3    H136098   1.213   0.406   0.506
 4821TIP3    H236099   1.288   0.471   0.392
 4822TIP3   OH236100   4.410   0.335   6.648
 4822TIP3    H136101   4.454   0.372   6.724
 4822TIP3    H236102   4.317   0.348   6.666
 4823TIP3   OH236103   3.082   0.132   7.162
 4823TIP3    H136104   2.996   0.158   7.194
 4823TIP3    H236105   3.086   0.166   7.073
 4824TIP3   OH236106   6.153   5.213   8.222
 4824TIP3    H136107   6.123   5.132   8.263
 4824TIP3    H236108   6.092   5.279   8.253
 4825TIP3   OH236109   0.990   5.711   0.476
 4825TIP3    H136110   0.958   5.795   0.441
 4825TIP3    H236111   0.977   5.649   0.405
 4826TIP3   OH236112   1.252   4.722   0.615
 4826TIP3    H136113   1.289   4.765   0.692
 4826TIP3    H236114   1.309   4.646   0.600
 4827TIP3   OH236115   6.199   4.117   7.374
 4827TIP3    H136116   6.110   4.139   7.345
 4827TIP3    H236117   6.188   4.035   7.422
 4828TIP3   OH236118   6.179   3.442   7.308
 4828TIP3    H136119   6.134   3.525   7.295
 4828TIP3    H236120   6.108   3.378   7.317
 4829TIP3   OH236121   6.612   4.764   7.248
 4829TIP3    H136122   6.531   4.798   7.209
 4829TIP3    H236123   6.600   4.774   7.342
 4830TIP3   OH236124   3.621   1.217   8.657
 4830TIP3    H136125   3.669   1.285   8.704
 4830TIP3    H236126   3.624   1.141   8.715
 4831TIP3   OH236127   1.252   6.538   7.153
 4831TIP3    H136128   1.313   6.538   7.227
 4831TIP3    H236129   1.274   6.616   7.103
 4832TIP3   OH236130   3.118   1.505   7.640
 4832TIP3    H136131   3.108   1.562   7.564
 4832TIP3    H236132   3.028   1.477   7.660
 4833TIP3   OH236133   6.140   6.700   8.189
 4833TIP3    H136134   6.117   6.772   8.130
 4833TIP3    H236135   6.163   6.742   8.271
 4834TIP3   OH236136   3.906   2.661   8.349
 4834TIP3    H136137   3.981   2.681   8.405
 4834TIP3    H236138   3.833   2.653   8.409
 4835TIP3   OH236139   2.650   0.803   7.108
 4835TIP3    H136140   2.683   0.755   7.184
 4835TIP3    H236141   2.654   0.740   7.036
 4836TIP3   OH236142   5.663   0.096   0.930
 4836TIP3    H136143   5.721   0.048   0.870
 4836TIP3    H236144   5.601   0.030   0.960
 4837TIP3   OH236145   1.064   1.987   2.165
 4837TIP3    H136146   1.066   1.974   2.260
 4837TIP3    H236147   1.015   2.069   2.154
 4838TIP3   OH236148   4.364   5.591   0.289
 4838TIP3    H136149   4.322   5.590   0.203
 4838TIP3    H236150   4.458   5.595   0.270
 4839TIP3   OH236151   4.943   5.563   7.535
 4839TIP3    H136152   4.943   5.470   7.513
 4839TIP3    H236153   4.929   5.565   7.629
 4840TIP3   OH236154   3.445   2.897   7.104
 4840TIP3    H136155   3.371   2.930   7.052
 4840TIP3    H236156   3.492   2.976   7.130
 4841TIP3   OH236157   3.581   5.923   1.683
 4841TIP3    H136158   3.596   5.857   1.751
 4841TIP3    H236159   3.486   5.930   1.677
 4842TIP3   OH236160   3.923   2.881   7.504
 4842TIP3    H136161   3.926   2.919   7.592
 4842TIP3    H236162   3.856   2.813   7.510
 4843TIP3   OH236163   5.401   6.403   8.017
 4843TIP3    H136164   5.350   6.439   7.945
 4843TIP3    H236165   5.350   6.329   8.049
 4844TIP3   OH236166   1.097   2.074   8.975
 4844TIP3    H136167   1.040   2.140   8.935
 4844TIP3    H236168   1.185   2.095   8.943
 4845TIP3   OH236169   1.286   0.962   0.276
 4845TIP3    H136170   1.270   1.029   0.209
 4845TIP3    H236171   1.216   0.898   0.262
 4846TIP3   OH236172   6.615   3.832   0.917
 4846TIP3    H136173   6.559   3.762   0.949
 4846TIP3    H236174   6.661   3.795   0.842
 4847TIP3   OH236175   1.598   0.154   0.241
 4847TIP3    H136176   1.660   0.089   0.272
 4847TIP3    H236177   1.513   0.121   0.268
 4848TIP3   OH236178   6.444   6.341   2.343
 4848TIP3    H136179   6.463   6.418   2.289
 4848TIP3    H236180   6.524   6.289   2.338
 4849TIP3   OH236181   5.484   0.499   0.227
 4849TIP3    H136182   5.501   0.405   0.229
 4849TIP3    H236183   5.568   0.538   0.202
 4850TIP3   OH236184   6.291   0.720   1.031
 4850TIP3    H136185   6.231   0.761   1.094
 4850TIP3    H236186   6.238   0.654   0.987
 4851TIP3   OH236187   6.212   1.194   7.402
 4851TIP3    H136188   6.259   1.200   7.485
 4851TIP3    H236189   6.230   1.278   7.358
 4852TIP3   OH236190   5.950   0.927   7.834
 4852TIP3    H136191   5.862   0.956   7.854
 4852TIP3    H236192   5.943   0.831   7.830
 4853TIP3   OH236193   1.790   2.797   7.709
 4853TIP3    H136194   1.816   2.888   7.700
 4853TIP3    H236195   1.870   2.747   7.693
 4854TIP3   OH236196   5.855   2.417   8.496
 4854TIP3    H136197   5.837   2.509   8.515
 4854TIP3    H236198   5.950   2.410   8.500
 4855TIP3   OH236199   1.970   2.818   0.103
 4855TIP3    H136200   1.884   2.860   0.113
 4855TIP3    H236201   2.022   2.854   0.175
 4856TIP3   OH236202   2.929   3.530   8.153
 4856TIP3    H136203   2.942   3.550   8.245
 4856TIP3    H236204   3.001   3.575   8.108
 4857TIP3   OH236205   0.810   1.156   1.535
 4857TIP3    H136206   0.846   1.178   1.621
 4857TIP3    H236207   0.720   1.188   1.539
 4858TIP3   OH236208   6.513   1.623   7.278
 4858TIP3    H136209   6.577   1.553   7.274
 4858TIP3    H236210   6.524   1.670   7.195
 4859TIP3   OH236211   5.030   6.123   1.722
 4859TIP3    H136212   5.023   6.200   1.778
 4859TIP3    H236213   4.967   6.061   1.758
 4860TIP3   OH236214   6.444   0.879   7.902
 4860TIP3    H136215   6.506   0.943   7.937
 4860TIP3    H236216   6.448   0.891   7.808
 4861TIP3   OH236217   0.653   6.662   7.803
 4861TIP3    H136218   0.740   6.696   7.826
 4861TIP3    H236219   0.603   6.739   7.777
 4862TIP3   OH236220   1.037   6.331   8.271
 4862TIP3    H136221   0.949   6.294   8.280
 4862TIP3    H236222   1.082   6.271   8.211
 4863TIP3   OH236223   1.168   4.777   2.135
 4863TIP3    H136224   1.184   4.711   2.068
 4863TIP3    H236225   1.104   4.836   2.095
 4864TIP3   OH236226   1.326   6.163   0.407
 4864TIP3    H136227   1.344   6.247   0.449
 4864TIP3    H236228   1.249   6.180   0.353
 4865TIP3   OH236229   6.751   3.293   7.618
 4865TIP3    H136230   6.709   3.345   7.686
 4865TIP3    H236231   6.845   3.305   7.633
 4866TIP3   OH236232   6.747   1.069   0.634
 4866TIP3    H136233   6.664   1.071   0.586
 4866TIP3    H236234   6.785   0.984   0.614
 4867TIP3   OH236235   3.163   2.096   0.864
 4867TIP3    H136236   3.237   2.064   0.915
 4867TIP3    H236237   3.191   2.183   0.834
 4868TIP3   OH236238   6.623   4.402   1.159
 4868TIP3    H136239   6.540   4.431   1.197
 4868TIP3    H236240   6.608   4.404   1.065
 4869TIP3   OH236241   3.923   6.166   0.050
 4869TIP3    H136242   3.950   6.195   0.138
 4869TIP3    H236243   3.908   6.072   0.059
 4870TIP3   OH236244   6.501   1.317   7.759
 4870TIP3    H136245   6.545   1.402   7.773
 4870TIP3    H236246   6.565   1.265   7.710
 4871TIP3   OH236247   3.472   4.901   6.994
 4871TIP3    H136248   3.555   4.926   7.035
 4871TIP3    H236249   3.493   4.820   6.948
 4872TIP3   OH236250   0.104   4.805   2.674
 4872TIP3    H136251   0.134   4.895   2.675
 4872TIP3    H236252   0.020   4.807   2.720
 4873TIP3   OH236253   3.701   0.703   8.378
 4873TIP3    H136254   3.761   0.635   8.350
 4873TIP3    H236255   3.707   0.702   8.474
 4874TIP3   OH236256   5.817   5.482   8.027
 4874TIP3    H136257   5.788   5.525   7.946
 4874TIP3    H236258   5.883   5.419   7.998
 4875TIP3   OH236259   6.400   2.815   7.169
 4875TIP3    H136260   6.411   2.910   7.164
 4875TIP3    H236261   6.397   2.786   7.078
 4876TIP3   OH236262   2.381   0.947   1.391
 4876TIP3    H136263   2.351   0.857   1.406
 4876TIP3    H236264   2.301   0.997   1.377
 4877TIP3   OH236265   1.980   3.916   6.843
 4877TIP3    H136266   2.055   3.888   6.896
 4877TIP3    H236267   2.006   4.001   6.808
 4878TIP3   OH236268   6.398   3.942   1.069
 4878TIP3    H136269   6.323   3.976   1.021
 4878TIP3    H236270   6.465   3.928   1.002
 4879TIP3   OH236271   5.799   2.911   8.682
 4879TIP3    H136272   5.805   3.004   8.659
 4879TIP3    H236273   5.792   2.866   8.597
 4880TIP3   OH236274   1.302   4.702   0.167
 4880TIP3    H136275   1.274   4.724   0.079
 4880TIP3    H236276   1.368   4.768   0.189
 4881TIP3   OH236277   5.642   3.809   7.497
 4881TIP3    H136278   5.559   3.828   7.453
 4881TIP3    H236279   5.672   3.894   7.529
 4882TIP3   OH236280   4.239   5.196   7.745
 4882TIP3    H136281   4.185   5.271   7.722
 4882TIP3    H236282   4.294   5.226   7.817
 4883TIP3   OH236283   0.254   3.871   0.487
 4883TIP3    H136284   0.229   3.907   0.402
 4883TIP3    H236285   0.278   3.780   0.469
 4884TIP3   OH236286   0.609   1.261   1.406
 4884TIP3    H136287   0.673   1.322   1.370
 4884TIP3    H236288   0.531   1.314   1.420
 4885TIP3   OH236289   4.282   4.810   0.823
 4885TIP3    H136290   4.335   4.820   0.744
 4885TIP3    H236291   4.269   4.716   0.832
 4886TIP3   OH236292   6.394   5.191   8.747
 4886TIP3    H136293   6.348   5.128   8.801
 4886TIP3    H236294   6.484   5.158   8.744
 4887TIP3   OH236295   6.207   6.191   7.856
 4887TIP3    H136296   6.241   6.272   7.892
 4887TIP3    H236297   6.121   6.181   7.896
 4888TIP3   OH236298   3.536   0.357   0.992
 4888TIP3    H136299   3.601   0.339   1.060
 4888TIP3    H236300   3.465   0.295   1.010
 4889TIP3   OH236301   4.088   0.673   1.283
 4889TIP3    H136302   4.104   0.585   1.318
 4889TIP3    H236303   4.065   0.658   1.191
 4890TIP3   OH236304   4.428   0.105   6.914
 4890TIP3    H136305   4.334   0.086   6.917
 4890TIP3    H236306   4.470   0.020   6.924
 4891TIP3   OH236307   3.334   2.537   8.396
 4891TIP3    H136308   3.382   2.458   8.371
 4891TIP3    H236309   3.327   2.587   8.315
 4892TIP3   OH236310   2.881   1.452   7.808
 4892TIP3    H136311   2.881   1.548   7.803
 4892TIP3    H236312   2.809   1.426   7.750
 4893TIP3   OH236313   0.083   0.322   1.562
 4893TIP3    H136314   0.036   0.361   1.488
 4893TIP3    H236315   0.054   0.231   1.563
 4894TIP3   OH236316   6.487   2.145   0.009
 4894TIP3    H136317   6.423   2.074   0.009
 4894TIP3    H236318   6.535   2.134   0.091
 4895TIP3   OH236319   0.792   6.465   1.280
 4895TIP3    H136320   0.710   6.418   1.295
 4895TIP3    H236321   0.769   6.535   1.218
 4896TIP3   OH236322   5.246   0.559   1.000
 4896TIP3    H136323   5.191   0.524   1.070
 4896TIP3    H236324   5.278   0.482   0.953
 4897TIP3   OH236325   6.363   2.637   0.913
 4897TIP3    H136326   6.344   2.564   0.855
 4897TIP3    H236327   6.280   2.686   0.918
 4898TIP3   OH236328   3.273   6.032   8.945
 4898TIP3    H136329   3.259   6.010   9.038
 4898TIP3    H236330   3.250   5.952   8.898
 4899TIP3   OH236331   2.686   1.086   8.044
 4899TIP3    H136332   2.612   1.026   8.043
 4899TIP3    H236333   2.647   1.172   8.061
 4900TIP3   OH236334   5.419   1.131   6.963
 4900TIP3    H136335   5.397   1.088   6.880
 4900TIP3    H236336   5.401   1.224   6.947
 4901TIP3   OH236337   0.053   3.960   8.570
 4901TIP3    H136338   0.065   4.025   8.639
 4901TIP3    H236339   0.142   3.938   8.542
 4902TIP3   OH236340   2.723   4.149   7.813
 4902TIP3    H136341   2.655   4.146   7.745
 4902TIP3    H236342   2.709   4.232   7.858
 4903TIP3   OH236343   6.132   5.714   8.270
 4903TIP3    H136344   6.194   5.641   8.269
 4903TIP3    H236345   6.176   5.785   8.224
 4904TIP3   OH236346   3.245   2.788   8.543
 4904TIP3    H136347   3.243   2.800   8.448
 4904TIP3    H236348   3.199   2.706   8.558
 4905TIP3   OH236349   1.493   2.439   1.065
 4905TIP3    H136350   1.471   2.450   0.973
 4905TIP3    H236351   1.416   2.395   1.102
 4906TIP3   OH236352   6.224   2.306   1.005
 4906TIP3    H136353   6.139   2.270   0.983
 4906TIP3    H236354   6.287   2.246   0.966
 4907TIP3   OH236355   1.202   4.191   6.428
 4907TIP3    H136356   1.209   4.232   6.513
 4907TIP3    H236357   1.164   4.258   6.371
 4908TIP3   OH236358   1.192   2.281   7.547
 4908TIP3    H136359   1.170   2.352   7.608
 4908TIP3    H236360   1.271   2.242   7.584
 4909TIP3   OH236361   2.152   5.108   8.901
 4909TIP3    H136362   2.060   5.135   8.892
 4909TIP3    H236363   2.168   5.051   8.826
 4910TIP3   OH236364   5.671   2.426   1.041
 4910TIP3    H136365   5.669   2.521   1.031
 4910TIP3    H236366   5.605   2.394   0.979
 4911TIP3   OH236367   6.177   1.243   8.713
 4911TIP3    H136368   6.099   1.192   8.690
 4911TIP3    H236369   6.143   1.318   8.761
 4912TIP3   OH236370   6.422   5.710   0.594
 4912TIP3    H136371   6.421   5.715   0.499
 4912TIP3    H236372   6.344   5.759   0.622
 4913TIP3   OH236373   4.662   5.878   0.593
 4913TIP3    H136374   4.742   5.909   0.552
 4913TIP3    H236375   4.655   5.930   0.673
 4914TIP3   OH236376   2.785   0.968   7.383
 4914TIP3    H136377   2.858   1.023   7.408
 4914TIP3    H236378   2.825   0.883   7.361
 4915TIP3   OH236379   4.686   2.288   8.713
 4915TIP3    H136380   4.638   2.352   8.765
 4915TIP3    H236381   4.680   2.321   8.623
 4916TIP3   OH236382   1.385   4.813   7.104
 4916TIP3    H136383   1.321   4.760   7.058
 4916TIP3    H236384   1.430   4.861   7.035
 4917TIP3   OH236385   3.305   6.285   8.303
 4917TIP3    H136386   3.302   6.225   8.228
 4917TIP3    H236387   3.398   6.303   8.315
 4918TIP3   OH236388   3.060   1.698   2.241
 4918TIP3    H136389   3.007   1.759   2.190
 4918TIP3    H236390   3.042   1.612   2.202
 4919TIP3   OH236391   4.666   4.214   6.770
 4919TIP3    H136392   4.716   4.219   6.688
 4919TIP3    H236393   4.579   4.184   6.744
 4920TIP3   OH236394   3.489   2.029   8.529
 4920TIP3    H136395   3.460   1.975   8.455
 4920TIP3    H236396   3.558   1.977   8.571
 4921TIP3   OH236397   2.562   5.831   1.980
 4921TIP3    H136398   2.529   5.773   1.911
 4921TIP3    H236399   2.650   5.855   1.951
 4922TIP3   OH236400   5.646   5.986   7.310
 4922TIP3    H136401   5.730   5.998   7.353
 4922TIP3    H236402   5.616   5.900   7.339
 4923TIP3   OH236403   4.780   1.028   1.640
 4923TIP3    H136404   4.695   1.043   1.681
 4923TIP3    H236405   4.829   1.110   1.655
 4924TIP3   OH236406   4.568   1.317   7.952
 4924TIP3    H136407   4.650   1.288   7.991
 4924TIP3    H236408   4.555   1.260   7.876
 4925TIP3   OH236409   2.334   4.705   8.274
 4925TIP3    H136410   2.376   4.788   8.253
 4925TIP3    H236411   2.392   4.638   8.238
 4926TIP3   OH236412   4.579   6.465   1.808
 4926TIP3    H136413   4.579   6.448   1.714
 4926TIP3    H236414   4.487   6.459   1.833
 4927TIP3   OH236415   0.539   3.574   2.460
 4927TIP3    H136416   0.539   3.513   2.534
 4927TIP3    H236417   0.496   3.526   2.389
 4928TIP3   OH236418   3.887   1.060   8.338
 4928TIP3    H136419   3.883   1.016   8.253
 4928TIP3    H236420   3.972   1.104   8.338
 4929TIP3   OH236421   2.624   6.180   1.816
 4929TIP3    H136422   2.654   6.094   1.787
 4929TIP3    H236423   2.697   6.239   1.797
 4930TIP3   OH236424   0.194   6.759   0.146
 4930TIP3    H136425   0.108   6.775   0.185
 4930TIP3    H236426   0.232   6.846   0.135
 4931TIP3   OH236427   5.492   1.694   6.401
 4931TIP3    H136428   5.405   1.733   6.402
 4931TIP3    H236429   5.499   1.647   6.484
 4932TIP3   OH236430   3.492   5.975   1.992
 4932TIP3    H136431   3.401   5.957   1.970
 4932TIP3    H236432   3.542   5.905   1.950
 4933TIP3   OH236433   3.980   4.088   0.752
 4933TIP3    H136434   3.934   4.005   0.745
 4933TIP3    H236435   4.057   4.068   0.805
 4934TIP3   OH236436   0.674   3.791   8.117
 4934TIP3    H136437   0.637   3.704   8.130
 4934TIP3    H236438   0.747   3.778   8.055
 4935TIP3   OH236439   2.857   6.180   0.165
 4935TIP3    H136440   2.928   6.216   0.113
 4935TIP3    H236441   2.855   6.233   0.245
 4936TIP3   OH236442   1.260   1.165   7.249
 4936TIP3    H136443   1.301   1.134   7.168
 4936TIP3    H236444   1.236   1.256   7.231
 4937TIP3   OH236445   3.604   3.743   5.897
 4937TIP3    H136446   3.652   3.738   5.979
 4937TIP3    H236447   3.564   3.656   5.887
 4938TIP3   OH236448   1.241   2.085   8.034
 4938TIP3    H136449   1.312   2.149   8.034
 4938TIP3    H236450   1.162   2.137   8.050
 4939TIP3   OH236451   3.119   5.375   0.691
 4939TIP3    H136452   3.059   5.432   0.644
 4939TIP3    H236453   3.066   5.301   0.719
 4940TIP3   OH236454   2.621   5.537   1.150
 4940TIP3    H136455   2.578   5.462   1.109
 4940TIP3    H236456   2.708   5.539   1.110
 4941TIP3   OH236457   4.784   2.594   6.854
 4941TIP3    H136458   4.829   2.641   6.784
 4941TIP3    H236459   4.847   2.530   6.886
 4942TIP3   OH236460   5.945   5.361   1.551
 4942TIP3    H136461   5.980   5.415   1.480
 4942TIP3    H236462   6.015   5.358   1.616
 4943TIP3   OH236463   3.155   1.209   6.649
 4943TIP3    H136464   3.223   1.193   6.714
 4943TIP3    H236465   3.128   1.299   6.663
 4944TIP3   OH236466   6.103   4.958   0.183
 4944TIP3    H136467   6.049   4.884   0.210
 4944TIP3    H236468   6.063   5.034   0.225
 4945TIP3   OH236469   4.817   5.719   6.492
 4945TIP3    H136470   4.796   5.660   6.565
 4945TIP3    H236471   4.733   5.756   6.466
 4946TIP3   OH236472   6.389   5.993   7.792
 4946TIP3    H136473   6.323   6.061   7.779
 4946TIP3    H236474   6.388   5.943   7.711
 4947TIP3   OH236475   5.652   6.661   6.884
 4947TIP3    H136476   5.660   6.608   6.805
 4947TIP3    H236477   5.720   6.728   6.875
 4948TIP3   OH236478   2.598   5.280   7.098
 4948TIP3    H136479   2.650   5.232   7.034
 4948TIP3    H236480   2.657   5.349   7.130
 4949TIP3   OH236481   0.945   2.265   8.839
 4949TIP3    H136482   1.029   2.311   8.837
 4949TIP3    H236483   0.884   2.329   8.875
 4950TIP3   OH236484   6.653   1.791   7.642
 4950TIP3    H136485   6.580   1.733   7.623
 4950TIP3    H236486   6.612   1.875   7.665
 4951TIP3   OH236487   6.274   3.907   8.306
 4951TIP3    H136488   6.194   3.875   8.264
 4951TIP3    H236489   6.321   3.827   8.333
 4952TIP3   OH236490   0.267   6.412   0.639
 4952TIP3    H136491   0.281   6.475   0.568
 4952TIP3    H236492   0.213   6.344   0.599
 4953TIP3   OH236493   4.831   1.775   7.796
 4953TIP3    H136494   4.867   1.739   7.715
 4953TIP3    H236495   4.736   1.761   7.789
 4954TIP3   OH236496   2.778   3.944   8.162
 4954TIP3    H136497   2.846   3.917   8.224
 4954TIP3    H236498   2.700   3.955   8.215
 4955TIP3   OH236499   5.904   2.621   7.554
 4955TIP3    H136500   5.992   2.620   7.517
 4955TIP3    H236501   5.864   2.540   7.521
 4956TIP3   OH236502   1.964   6.490   2.083
 4956TIP3    H136503   1.961   6.401   2.048
 4956TIP3    H236504   2.050   6.497   2.123
 4957TIP3   OH236505   1.577   3.764   6.798
 4957TIP3    H136506   1.487   3.785   6.824
 4957TIP3    H236507   1.568   3.724   6.711
 4958TIP3   OH236508   6.633   2.497   8.048
 4958TIP3    H136509   6.640   2.591   8.029
 4958TIP3    H236510   6.542   2.485   8.075
 4959TIP3   OH236511   4.852   1.619   0.930
 4959TIP3    H136512   4.766   1.643   0.965
 4959TIP3    H236513   4.898   1.579   1.004
 4960TIP3   OH236514   0.884   2.729   7.939
 4960TIP3    H136515   0.836   2.809   7.918
 4960TIP3    H236516   0.868   2.714   8.032
 4961TIP3   OH236517   1.610   3.986   7.617
 4961TIP3    H136518   1.610   4.047   7.691
 4961TIP3    H236519   1.702   3.972   7.597
 4962TIP3   OH236520   4.397   2.843   7.590
 4962TIP3    H136521   4.483   2.878   7.565
 4962TIP3    H236522   4.334   2.907   7.555
 4963TIP3   OH236523   5.789   1.607   7.377
 4963TIP3    H136524   5.799   1.699   7.402
 4963TIP3    H236525   5.845   1.597   7.300
 4964TIP3   OH236526   3.773   3.570   8.916
 4964TIP3    H136527   3.773   3.624   8.995
 4964TIP3    H236528   3.734   3.626   8.848
 4965TIP3   OH236529   4.431   6.196   8.039
 4965TIP3    H136530   4.463   6.259   8.104
 4965TIP3    H236531   4.502   6.188   7.976
 4966TIP3   OH236532   6.075   3.943   7.127
 4966TIP3    H136533   6.006   3.946   7.194
 4966TIP3    H236534   6.037   3.890   7.057
 4967TIP3   OH236535   2.287   1.344   7.447
 4967TIP3    H136536   2.251   1.348   7.536
 4967TIP3    H236537   2.318   1.255   7.438
 4968TIP3   OH236538   1.595   2.463   8.334
 4968TIP3    H136539   1.599   2.507   8.249
 4968TIP3    H236540   1.678   2.486   8.377
 4969TIP3   OH236541   4.681   5.375   8.868
 4969TIP3    H136542   4.624   5.438   8.823
 4969TIP3    H236543   4.654   5.290   8.834
 4970TIP3   OH236544   0.721   4.671   0.289
 4970TIP3    H136545   0.726   4.722   0.370
 4970TIP3    H236546   0.701   4.582   0.319
 4971TIP3   OH236547   5.640   4.220   1.853
 4971TIP3    H136548   5.673   4.184   1.771
 4971TIP3    H236549   5.562   4.269   1.829
 4972TIP3   OH236550   5.619   2.843   1.198
 4972TIP3    H136551   5.544   2.843   1.138
 4972TIP3    H236552   5.696   2.851   1.140
 4973TIP3   OH236553   2.500   3.569   8.778
 4973TIP3    H136554   2.496   3.507   8.850
 4973TIP3    H236555   2.457   3.524   8.705
 4974TIP3   OH236556   0.347   5.836   7.590
 4974TIP3    H136557   0.379   5.900   7.653
 4974TIP3    H236558   0.307   5.767   7.643
 4975TIP3   OH236559   5.102   2.997   7.706
 4975TIP3    H136560   5.102   2.902   7.716
 4975TIP3    H236561   5.011   3.019   7.686
 4976TIP3   OH236562   0.779   2.905   0.413
 4976TIP3    H136563   0.752   2.986   0.457
 4976TIP3    H236564   0.798   2.845   0.485
 4977TIP3   OH236565   4.035   3.551   8.773
 4977TIP3    H136566   3.949   3.534   8.812
 4977TIP3    H236567   4.053   3.643   8.794
 4978TIP3   OH236568   3.184   5.762   7.954
 4978TIP3    H136569   3.095   5.730   7.970
 4978TIP3    H236570   3.176   5.818   7.877
 4979TIP3   OH236571   6.440   5.522   0.212
 4979TIP3    H136572   6.417   5.528   0.119
 4979TIP3    H236573   6.394   5.595   0.253
 4980TIP3   OH236574   5.331   0.072   0.650
 4980TIP3    H136575   5.331   0.067   0.746
 4980TIP3    H236576   5.389   0.145   0.630
 4981TIP3   OH236577   1.137   6.534   8.773
 4981TIP3    H136578   1.171   6.467   8.713
 4981TIP3    H236579   1.198   6.532   8.847
 4982TIP3   OH236580   4.059   5.824   1.728
 4982TIP3    H136581   4.012   5.811   1.811
 4982TIP3    H236582   4.012   5.769   1.665
 4983TIP3   OH236583   2.587   3.436   1.234
 4983TIP3    H136584   2.504   3.461   1.193
 4983TIP3    H236585   2.627   3.376   1.171
 4984TIP3   OH236586   6.767   5.865   6.398
 4984TIP3    H136587   6.794   5.780   6.362
 4984TIP3    H236588   6.705   5.842   6.467
 4985TIP3   OH236589   0.748   2.396   8.579
 4985TIP3    H136590   0.731   2.457   8.650
 4985TIP3    H236591   0.806   2.444   8.520
 4986TIP3   OH236592   5.443   2.683   2.421
 4986TIP3    H136593   5.502   2.635   2.479
 4986TIP3    H236594   5.376   2.719   2.478
 4987TIP3   OH236595   6.411   3.691   1.273
 4987TIP3    H136596   6.481   3.724   1.217
 4987TIP3    H236597   6.355   3.641   1.214
 4988TIP3   OH236598   6.287   4.965   8.529
 4988TIP3    H136599   6.289   5.060   8.526
 4988TIP3    H236600   6.277   4.943   8.621
 4989TIP3   OH236601   5.716   6.588   0.533
 4989TIP3    H136602   5.808   6.578   0.508
 4989TIP3    H236603   5.677   6.638   0.462
 4990TIP3   OH236604   6.378   4.454   7.929
 4990TIP3    H136605   6.295   4.412   7.908
 4990TIP3    H236606   6.393   4.515   7.856
 4991TIP3   OH236607   2.140   4.457   2.322
 4991TIP3    H136608   2.116   4.534   2.373
 4991TIP3    H236609   2.205   4.411   2.376
 4992TIP3   OH236610   6.140   5.550   8.541
 4992TIP3    H136611   6.148   5.617   8.473
 4992TIP3    H236612   6.052   5.561   8.576
 4993TIP3   OH236613   1.915   6.104   7.984
 4993TIP3    H136614   1.909   6.024   8.036
 4993TIP3    H236615   2.008   6.116   7.968
 4994TIP3   OH236616   0.517   6.303   1.660
 4994TIP3    H136617   0.533   6.295   1.754
 4994TIP3    H236618   0.466   6.384   1.651
 4995TIP3   OH236619   0.152   4.432   8.911
 4995TIP3    H136620   0.229   4.410   8.963
 4995TIP3    H236621   0.184   4.492   8.843
 4996TIP3   OH236622   2.605   2.832   8.465
 4996TIP3    H136623   2.679   2.799   8.414
 4996TIP3    H236624   2.639   2.910   8.509
 4997TIP3   OH236625   0.963   5.127   8.581
 4997TIP3    H136626   0.998   5.065   8.645
 4997TIP3    H236627   0.899   5.179   8.630
 4998TIP3   OH236628   5.169   4.748   2.115
 4998TIP3    H136629   5.219   4.827   2.092
 4998TIP3    H236630   5.236   4.682   2.134
 4999TIP3   OH236631   5.620   5.060   8.888
 4999TIP3    H136632   5.617   4.995   8.958
 4999TIP3    H236633   5.670   5.018   8.818
 5000TIP3   OH236634   4.839   4.214   7.059
 5000TIP3    H136635   4.781   4.242   6.989
 5000TIP3    H236636   4.787   4.227   7.139
 5001TIP3   OH236637   3.907   3.980   6.989
 5001TIP3    H136638   3.906   3.997   6.895
 5001TIP3    H236639   3.820   3.947   7.009
 5002TIP3   OH236640   6.696   5.989   0.706
 5002TIP3    H136641   6.662   5.988   0.617
 5002TIP3    H236642   6.618   6.000   0.761
 5003TIP3   OH236643   3.095   5.890   7.304
 5003TIP3    H136644   3.115   5.810   7.352
 5003TIP3    H236645   3.180   5.926   7.281
 5004TIP3   OH236646   3.466   4.785   8.555
 5004TIP3    H136647   3.542   4.753   8.604
 5004TIP3    H236648   3.443   4.868   8.597
 5005TIP3   OH236649   3.533   5.361   6.041
 5005TIP3    H136650   3.614   5.370   5.990
 5005TIP3    H236651   3.536   5.272   6.075
 5006TIP3   OH236652   4.668   5.050   7.249
 5006TIP3    H136653   4.672   5.111   7.323
 5006TIP3    H236654   4.626   4.972   7.284
 5007TIP3   OH236655   1.032   5.281   0.964
 5007TIP3    H136656   1.113   5.252   1.005
 5007TIP3    H236657   0.973   5.300   1.037
 5008TIP3   OH236658   6.107   5.790   7.416
 5008TIP3    H136659   6.065   5.854   7.473
 5008TIP3    H236660   6.176   5.839   7.372
 5009TIP3   OH236661   5.163   3.917   1.847
 5009TIP3    H136662   5.078   3.941   1.812
 5009TIP3    H236663   5.151   3.916   1.942
 5010TIP3   OH236664   4.306   3.284   0.665
 5010TIP3    H136665   4.391   3.327   0.675
 5010TIP3    H236666   4.276   3.310   0.578
 5011TIP3   OH236667   0.836   3.436   7.943
 5011TIP3    H136668   0.831   3.529   7.920
 5011TIP3    H236669   0.922   3.427   7.985
 5012TIP3   OH236670   4.870   4.994   7.028
 5012TIP3    H136671   4.818   5.043   7.092
 5012TIP3    H236672   4.837   4.905   7.033
 5013TIP3   OH236673   0.368   2.894   1.107
 5013TIP3    H136674   0.324   2.976   1.130
 5013TIP3    H236675   0.324   2.827   1.159
 5014TIP3   OH236676   3.722   5.071   0.092
 5014TIP3    H136677   3.692   5.013   0.022
 5014TIP3    H236678   3.654   5.137   0.099
 5015TIP3   OH236679   0.740   4.563   7.839
 5015TIP3    H136680   0.668   4.500   7.844
 5015TIP3    H236681   0.804   4.532   7.902
 5016TIP3   OH236682   4.056   1.253   7.390
 5016TIP3    H136683   4.092   1.203   7.317
 5016TIP3    H236684   3.975   1.290   7.356
 5017TIP3   OH236685   4.825   5.980   8.987
 5017TIP3    H136686   4.817   6.043   8.915
 5017TIP3    H236687   4.749   5.923   8.977
 5018TIP3   OH236688   4.153   2.545   1.739
 5018TIP3    H136689   4.192   2.631   1.754
 5018TIP3    H236690   4.059   2.563   1.734
 5019TIP3   OH236691   1.738   4.666   6.618
 5019TIP3    H136692   1.753   4.606   6.546
 5019TIP3    H236693   1.798   4.739   6.601
 5020TIP3   OH236694   4.544   3.663   1.619
 5020TIP3    H136695   4.462   3.662   1.571
 5020TIP3    H236696   4.566   3.571   1.632
 5021TIP3   OH236697   2.067   6.275   7.372
 5021TIP3    H136698   2.016   6.281   7.453
 5021TIP3    H236699   2.067   6.181   7.351
 5022TIP3   OH236700   3.428   3.613   1.311
 5022TIP3    H136701   3.443   3.534   1.259
 5022TIP3    H236702   3.399   3.581   1.397
 5023TIP3   OH236703   3.190   5.815   8.764
 5023TIP3    H136704   3.098   5.831   8.743
 5023TIP3    H236705   3.225   5.768   8.689
 5024TIP3   OH236706   2.654   0.002   6.675
 5024TIP3    H136707   2.667   0.094   6.652
 5024TIP3    H236708   2.594  -0.031   6.608
 5025TIP3   OH236709   0.467   0.171   1.594
 5025TIP3    H136710   0.425   0.234   1.535
 5025TIP3    H236711   0.415   0.091   1.585
 5026TIP3   OH236712   2.443   2.100   0.777
 5026TIP3    H136713   2.496   2.139   0.846
 5026TIP3    H236714   2.450   2.005   0.792
 5027TIP3   OH236715   1.764   1.796   8.354
 5027TIP3    H136716   1.840   1.827   8.404
 5027TIP3    H236717   1.693   1.854   8.381
 5028TIP3   OH236718   6.157   4.304   7.883
 5028TIP3    H136719   6.173   4.210   7.874
 5028TIP3    H236720   6.089   4.311   7.950
 5029TIP3   OH236721   2.485   6.243   0.935
 5029TIP3    H136722   2.524   6.166   0.895
 5029TIP3    H236723   2.483   6.308   0.864
 5030TIP3   OH236724   3.688   1.570   7.579
 5030TIP3    H136725   3.738   1.646   7.551
 5030TIP3    H236726   3.754   1.505   7.602
 5031TIP3   OH236727   1.181   4.444   0.151
 5031TIP3    H136728   1.211   4.525   0.109
 5031TIP3    H236729   1.254   4.383   0.141
 5032TIP3   OH236730   0.042   2.801   0.715
 5032TIP3    H136731   0.042   2.746   0.794
 5032TIP3    H236732  -0.033   2.770   0.665
 5033TIP3   OH236733   4.261   3.057   7.483
 5033TIP3    H136734   4.221   3.068   7.569
 5033TIP3    H236735   4.277   3.146   7.452
 5034TIP3   OH236736   2.170   1.663   7.298
 5034TIP3    H136737   2.091   1.714   7.279
 5034TIP3    H236738   2.241   1.727   7.299
 5035TIP3   OH236739   2.437   6.194   7.422
 5035TIP3    H136740   2.529   6.199   7.450
 5035TIP3    H236741   2.388   6.227   7.497
 5036TIP3   OH236742   3.300   2.272   7.433
 5036TIP3    H136743   3.338   2.288   7.347
 5036TIP3    H236744   3.273   2.359   7.464
 5037TIP3   OH236745   0.349   0.596   7.684
 5037TIP3    H136746   0.278   0.538   7.656
 5037TIP3    H236747   0.311   0.648   7.755
 5038TIP3   OH236748   0.979   3.282   6.271
 5038TIP3    H136749   0.913   3.347   6.297
 5038TIP3    H236750   0.938   3.198   6.291
 5039TIP3   OH236751   1.227   3.288   7.548
 5039TIP3    H136752   1.139   3.265   7.519
 5039TIP3    H236753   1.259   3.350   7.482
 5040TIP3   OH236754   5.386   2.154   1.102
 5040TIP3    H136755   5.409   2.065   1.075
 5040TIP3    H236756   5.397   2.154   1.197
 5041TIP3   OH236757   2.051   6.253   8.715
 5041TIP3    H136758   1.963   6.250   8.678
 5041TIP3    H236759   2.087   6.166   8.700
 5042TIP3   OH236760   5.018   6.482   8.907
 5042TIP3    H136761   5.080   6.554   8.911
 5042TIP3    H236762   4.947   6.514   8.851
 5043TIP3   OH236763   5.996   6.088   6.984
 5043TIP3    H136764   5.953   6.005   6.965
 5043TIP3    H236765   5.951   6.152   6.929
 5044TIP3   OH236766   1.134   1.976   8.701
 5044TIP3    H136767   1.088   2.034   8.640
 5044TIP3    H236768   1.077   1.973   8.779
 5045TIP3   OH236769   3.061   0.801   6.448
 5045TIP3    H136770   3.010   0.795   6.529
 5045TIP3    H236771   3.054   0.714   6.409
 5046TIP3   OH236772   0.052   0.908   0.950
 5046TIP3    H136773   0.006   0.824   0.951
 5046TIP3    H236774   0.011   0.958   1.020
 5047TIP3   OH236775   6.211   2.078   8.371
 5047TIP3    H136776   6.255   2.155   8.407
 5047TIP3    H236777   6.243   2.073   8.280
 5048TIP3   OH236778   3.915   1.151   8.715
 5048TIP3    H136779   3.899   1.077   8.657
 5048TIP3    H236780   3.942   1.222   8.657
 5049TIP3   OH236781   3.150   0.141   0.401
 5049TIP3    H136782   3.159   0.087   0.322
 5049TIP3    H236783   3.229   0.196   0.401
 5050TIP3   OH236784   2.103   3.280   2.175
 5050TIP3    H136785   2.018   3.321   2.161
 5050TIP3    H236786   2.121   3.234   2.093
 5051TIP3   OH236787   4.664   1.497   1.549
 5051TIP3    H136788   4.647   1.445   1.627
 5051TIP3    H236789   4.648   1.588   1.576
 5052TIP3   OH236790   3.267   0.156   7.388
 5052TIP3    H136791   3.295   0.247   7.383
 5052TIP3    H236792   3.230   0.138   7.301
 5053TIP3   OH236793   4.262   0.577   6.412
 5053TIP3    H136794   4.266   0.493   6.366
 5053TIP3    H236795   4.169   0.599   6.415
 5054TIP3   OH236796   4.362   4.859   0.263
 5054TIP3    H136797   4.377   4.769   0.292
 5054TIP3    H236798   4.449   4.891   0.239
 5055TIP3   OH236799   4.815   2.925   1.386
 5055TIP3    H136800   4.824   2.973   1.468
 5055TIP3    H236801   4.776   2.841   1.412
 5056TIP3   OH236802   6.459   0.954   7.593
 5056TIP3    H136803   6.526   0.887   7.606
 5056TIP3    H236804   6.427   0.939   7.504
 5057TIP3   OH236805   3.948   1.489   1.367
 5057TIP3    H136806   3.902   1.418   1.412
 5057TIP3    H236807   3.883   1.529   1.310
 5058TIP3   OH236808   1.663   2.900   1.574
 5058TIP3    H136809   1.632   2.989   1.558
 5058TIP3    H236810   1.698   2.902   1.663
 5059TIP3   OH236811   0.865   3.944   7.236
 5059TIP3    H136812   0.807   4.015   7.263
 5059TIP3    H236813   0.841   3.928   7.144
 5060TIP3   OH236814   5.182   0.824   7.116
 5060TIP3    H136815   5.229   0.907   7.126
 5060TIP3    H236816   5.250   0.761   7.091
 5061TIP3   OH236817   6.410   5.856   1.972
 5061TIP3    H136818   6.382   5.799   1.901
 5061TIP3    H236819   6.491   5.896   1.940
 5062TIP3   OH236820   5.910   5.158   1.264
 5062TIP3    H136821   5.866   5.202   1.337
 5062TIP3    H236822   5.839   5.134   1.204
 5063TIP3   OH236823   5.252   2.281   2.471
 5063TIP3    H136824   5.248   2.328   2.553
 5063TIP3    H236825   5.249   2.188   2.496
 5064TIP3   OH236826   3.142   0.743   8.407
 5064TIP3    H136827   3.067   0.700   8.449
 5064TIP3    H236828   3.137   0.834   8.436
 5065TIP3   OH236829   2.751   2.273   8.666
 5065TIP3    H136830   2.740   2.368   8.660
 5065TIP3    H236831   2.763   2.256   8.760
 5066TIP3   OH236832   2.878   5.125   8.968
 5066TIP3    H136833   2.789   5.151   8.941
 5066TIP3    H236834   2.875   5.123   9.063
 5067TIP3   OH236835   0.938   6.016   6.265
 5067TIP3    H136836   0.972   5.927   6.272
 5067TIP3    H236837   0.901   6.021   6.177
 5068TIP3   OH236838   4.734   4.237   8.826
 5068TIP3    H136839   4.709   4.260   8.916
 5068TIP3    H236840   4.777   4.152   8.834
 5069TIP3   OH236841   0.053   0.549   1.731
 5069TIP3    H136842   0.148   0.559   1.730
 5069TIP3    H236843   0.035   0.480   1.668
 5070TIP3   OH236844   4.095   1.275   1.090
 5070TIP3    H136845   4.037   1.265   1.166
 5070TIP3    H236846   4.039   1.261   1.014
 5071TIP3   OH236847   4.533   2.933   1.038
 5071TIP3    H136848   4.628   2.938   1.038
 5071TIP3    H236849   4.513   2.843   1.065
 5072TIP3   OH236850   1.695   1.104   0.891
 5072TIP3    H136851   1.718   1.032   0.832
 5072TIP3    H236852   1.603   1.123   0.870
 5073TIP3   OH236853   4.164   0.179   8.723
 5073TIP3    H136854   4.146   0.177   8.629
 5073TIP3    H236855   4.256   0.203   8.729
 5074TIP3   OH236856   0.915   3.456   8.787
 5074TIP3    H136857   0.944   3.476   8.876
 5074TIP3    H236858   0.903   3.542   8.746
 5075TIP3   OH236859   4.105   3.129   0.166
 5075TIP3    H136860   4.039   3.158   0.230
 5075TIP3    H236861   4.186   3.128   0.216
 5076TIP3   OH236862   5.953   1.023   2.403
 5076TIP3    H136863   6.020   1.078   2.444
 5076TIP3    H236864   5.975   1.025   2.309
 5077TIP3   OH236865   2.174   6.400   0.020
 5077TIP3    H136866   2.181   6.495   0.029
 5077TIP3    H236867   2.170   6.386  -0.075
 5078TIP3   OH236868   3.943   6.120   1.732
 5078TIP3    H136869   3.868   6.169   1.766
 5078TIP3    H236870   3.962   6.056   1.801
 5079TIP3   OH236871   2.211   4.349   8.778
 5079TIP3    H136872   2.190   4.442   8.776
 5079TIP3    H236873   2.152   4.309   8.714
 5080TIP3   OH236874   4.449   4.437   2.257
 5080TIP3    H136875   4.487   4.388   2.330
 5080TIP3    H236876   4.356   4.416   2.259
 5081TIP3   OH236877   0.004   2.728   0.984
 5081TIP3    H136878   0.081   2.693   1.030
 5081TIP3    H236879  -0.070   2.702   1.038
 5082TIP3   OH236880   0.752   6.219   1.043
 5082TIP3    H136881   0.699   6.148   1.077
 5082TIP3    H236882   0.701   6.298   1.058
 5083TIP3   OH236883   5.626   1.920   1.452
 5083TIP3    H136884   5.645   1.836   1.411
 5083TIP3    H236885   5.710   1.949   1.487
 5084TIP3   OH236886   6.697   0.077   0.161
 5084TIP3    H136887   6.670  -0.004   0.205
 5084TIP3    H236888   6.706   0.141   0.232
 5085TIP3   OH236889   2.012   5.086   7.920
 5085TIP3    H136890   1.997   5.092   7.825
 5085TIP3    H236891   2.093   5.035   7.928
 5086TIP3   OH236892   0.657   4.991   8.062
 5086TIP3    H136893   0.698   4.997   8.148
 5086TIP3    H236894   0.657   5.080   8.028
 5087TIP3   OH236895   3.273   6.226   8.589
 5087TIP3    H136896   3.355   6.180   8.573
 5087TIP3    H236897   3.239   6.248   8.502
 5088TIP3   OH236898   5.120   1.306   1.142
 5088TIP3    H136899   5.029   1.289   1.115
 5088TIP3    H236900   5.156   1.358   1.070
 5089TIP3   OH236901   4.382   1.196   0.472
 5089TIP3    H136902   4.308   1.256   0.478
 5089TIP3    H236903   4.365   1.145   0.393
 5090TIP3   OH236904   6.003   5.896   1.169
 5090TIP3    H136905   6.066   5.836   1.209
 5090TIP3    H236906   6.038   5.912   1.081
 5091TIP3   OH236907   1.416   1.518   7.583
 5091TIP3    H136908   1.408   1.530   7.488
 5091TIP3    H236909   1.421   1.423   7.595
 5092TIP3   OH236910   2.081   2.061   8.692
 5092TIP3    H136911   2.144   2.112   8.742
 5092TIP3    H236912   2.130   2.026   8.618
 5093TIP3   OH236913   0.447   1.092   8.497
 5093TIP3    H136914   0.525   1.146   8.508
 5093TIP3    H236915   0.481   1.006   8.469
 5094TIP3   OH236916   2.912   5.768   0.778
 5094TIP3    H136917   3.005   5.793   0.781
 5094TIP3    H236918   2.866   5.846   0.809
 5095TIP3   OH236919   5.571   5.543   8.408
 5095TIP3    H136920   5.648   5.504   8.366
 5095TIP3    H236921   5.588   5.535   8.502
 5096TIP3   OH236922   4.140   5.355   0.449
 5096TIP3    H136923   4.151   5.433   0.395
 5096TIP3    H236924   4.153   5.282   0.389
 5097TIP3   OH236925   6.780   4.365   2.667
 5097TIP3    H136926   6.847   4.432   2.651
 5097TIP3    H236927   6.748   4.341   2.580
 5098TIP3   OH236928   5.414   4.354   1.733
 5098TIP3    H136929   5.320   4.334   1.739
 5098TIP3    H236930   5.433   4.348   1.639
 5099TIP3   OH236931   5.834   6.550   8.430
 5099TIP3    H136932   5.898   6.507   8.373
 5099TIP3    H236933   5.753   6.552   8.379
 5100TIP3   OH236934   2.775   6.664   6.120
 5100TIP3    H136935   2.855   6.622   6.090
 5100TIP3    H236936   2.705   6.612   6.080
 5101TIP3   OH236937   2.557   6.338   1.177
 5101TIP3    H136938   2.480   6.354   1.231
 5101TIP3    H236939   2.523   6.323   1.089
 5102TIP3   OH236940   0.599   3.521   8.131
 5102TIP3    H136941   0.503   3.524   8.131
 5102TIP3    H236942   0.622   3.509   8.039
 5103TIP3   OH236943   5.037   2.186   8.958
 5103TIP3    H136944   5.115   2.214   9.006
 5103TIP3    H236945   4.973   2.256   8.974
 5104TIP3   OH236946   5.141   2.809   1.790
 5104TIP3    H136947   5.097   2.748   1.730
 5104TIP3    H236948   5.077   2.823   1.861
 5105TIP3   OH236949   5.894   6.772   7.735
 5105TIP3    H136950   5.947   6.756   7.657
 5105TIP3    H236951   5.912   6.862   7.760
 5106TIP3   OH236952   0.394   2.291   1.184
 5106TIP3    H136953   0.369   2.301   1.093
 5106TIP3    H236954   0.366   2.372   1.226
 5107TIP3   OH236955   0.235   5.965   8.857
 5107TIP3    H136956   0.200   6.011   8.780
 5107TIP3    H236957   0.291   5.896   8.820
 5108TIP3   OH236958   3.734   3.703   6.690
 5108TIP3    H136959   3.809   3.651   6.718
 5108TIP3    H236960   3.771   3.768   6.630
 5109TIP3   OH236961   1.140   0.759   0.462
 5109TIP3    H136962   1.194   0.819   0.513
 5109TIP3    H236963   1.079   0.815   0.415
 5110TIP3   OH236964   2.901   3.191   1.573
 5110TIP3    H136965   2.857   3.269   1.538
 5110TIP3    H236966   2.994   3.206   1.555
 5111TIP3   OH236967   0.743   6.008   0.564
 5111TIP3    H136968   0.681   5.985   0.494
 5111TIP3    H236969   0.695   6.072   0.617
 5112TIP3   OH236970   3.835   4.057   1.584
 5112TIP3    H136971   3.835   3.974   1.632
 5112TIP3    H236972   3.789   4.118   1.641
 5113TIP3   OH236973   0.199   0.604   2.303
 5113TIP3    H136974   0.152   0.589   2.384
 5113TIP3    H236975   0.256   0.528   2.292
 5114TIP3   OH236976   5.959   2.775   1.847
 5114TIP3    H136977   5.940   2.828   1.770
 5114TIP3    H236978   5.992   2.692   1.810
 5115TIP3   OH236979   4.433   5.296   1.495
 5115TIP3    H136980   4.503   5.361   1.492
 5115TIP3    H236981   4.467   5.227   1.553
 5116TIP3   OH236982   1.299   3.737   0.968
 5116TIP3    H136983   1.333   3.825   0.979
 5116TIP3    H236984   1.255   3.718   1.051
 5117TIP3   OH236985   1.257   2.586   2.118
 5117TIP3    H136986   1.223   2.511   2.166
 5117TIP3    H236987   1.288   2.646   2.186
 5118TIP3   OH236988   1.612   0.265   8.312
 5118TIP3    H136989   1.664   0.240   8.236
 5118TIP3    H236990   1.566   0.345   8.284
 5119TIP3   OH236991   5.812   4.113   1.643
 5119TIP3    H136992   5.886   4.132   1.585
 5119TIP3    H236993   5.814   4.018   1.653
 5120TIP3   OH236994   4.408   2.010   2.030
 5120TIP3    H136995   4.356   2.017   2.111
 5120TIP3    H236996   4.493   2.047   2.053
 5121TIP3   OH236997   1.837   2.555   8.442
 5121TIP3    H136998   1.873   2.524   8.359
 5121TIP3    H236999   1.899   2.621   8.472
 5122TIP3   OH237000   6.549   0.731   8.934
 5122TIP3    H137001   6.544   0.727   8.838
 5122TIP3    H237002   6.633   0.690   8.955
 5123TIP3   OH237003   4.361   4.805   1.306
 5123TIP3    H137004   4.431   4.770   1.361
 5123TIP3    H237005   4.284   4.806   1.363
 5124TIP3   OH237006   1.519   6.140   7.373
 5124TIP3    H137007   1.463   6.064   7.354
 5124TIP3    H237008   1.608   6.107   7.364
 5125TIP3   OH237009   3.328   0.970   2.592
 5125TIP3    H137010   3.301   1.008   2.675
 5125TIP3    H237011   3.249   0.928   2.557
 5126TIP3   OH237012   4.014   6.319   2.196
 5126TIP3    H137013   3.946   6.375   2.232
 5126TIP3    H237014   4.080   6.380   2.163
 5127TIP3   OH237015   1.105   2.446   8.158
 5127TIP3    H137016   1.048   2.434   8.234
 5127TIP3    H237017   1.180   2.494   8.192
 5128TIP3   OH237018   1.744   2.873   8.237
 5128TIP3    H137019   1.705   2.868   8.149
 5128TIP3    H237020   1.831   2.835   8.226
 5129TIP3   OH237021   0.536   1.946   0.912
 5129TIP3    H137022   0.514   1.853   0.923
 5129TIP3    H237023   0.584   1.950   0.830
 5130TIP3   OH237024   1.102   2.965   7.408
 5130TIP3    H137025   1.093   2.875   7.436
 5130TIP3    H237026   1.128   2.959   7.316
 5131TIP3   OH237027   0.371   5.121   2.347
 5131TIP3    H137028   0.337   5.085   2.429
 5131TIP3    H237029   0.295   5.163   2.306
 5132TIP3   OH237030   6.352   6.380   8.031
 5132TIP3    H137031   6.282   6.398   8.093
 5132TIP3    H237032   6.386   6.466   8.007
 5133TIP3   OH237033   3.304   1.455   1.710
 5133TIP3    H137034   3.394   1.428   1.727
 5133TIP3    H237035   3.259   1.441   1.793
 5134TIP3   OH237036   2.222   3.037   8.673
 5134TIP3    H137037   2.306   3.082   8.666
 5134TIP3    H237038   2.223   2.998   8.761
 5135TIP3   OH237039   6.746   3.658   6.782
 5135TIP3    H137040   6.671   3.683   6.729
 5135TIP3    H237041   6.791   3.591   6.731
 5136TIP3   OH237042   6.658   5.835   8.323
 5136TIP3    H137043   6.704   5.919   8.323
 5136TIP3    H237044   6.629   5.824   8.233
 5137TIP3   OH237045   2.940   5.994   0.480
 5137TIP3    H137046   2.978   5.980   0.567
 5137TIP3    H237047   2.919   6.088   0.478
 5138TIP3   OH237048   4.005   5.526   8.333
 5138TIP3    H137049   3.933   5.588   8.323
 5138TIP3    H237050   4.062   5.543   8.258
 5139TIP3   OH237051   5.433   0.459   1.275
 5139TIP3    H137052   5.388   0.542   1.263
 5139TIP3    H237053   5.515   0.468   1.228
 5140TIP3   OH237054   0.765   4.017   1.202
 5140TIP3    H137055   0.671   4.016   1.187
 5140TIP3    H237056   0.797   4.095   1.156
 5141TIP3   OH237057   2.170   3.156   2.429
 5141TIP3    H137058   2.170   3.190   2.340
 5141TIP3    H237059   2.177   3.234   2.485
 5142TIP3   OH237060   6.460   0.248   6.981
 5142TIP3    H137061   6.367   0.227   6.973
 5142TIP3    H237062   6.488   0.268   6.892
 5143TIP3   OH237063   3.991   2.279   2.347
 5143TIP3    H137064   4.013   2.189   2.371
 5143TIP3    H237065   3.927   2.270   2.277
 5144TIP3   OH237066   5.045   6.652   7.743
 5144TIP3    H137067   4.978   6.686   7.801
 5144TIP3    H237068   5.112   6.720   7.741
 5145TIP3   OH237069   2.546   6.180   8.584
 5145TIP3    H137070   2.599   6.227   8.519
 5145TIP3    H237071   2.467   6.154   8.536
 5146TIP3   OH237072   1.106   3.885   7.093
 5146TIP3    H137073   1.128   3.948   7.025
 5146TIP3    H237074   1.036   3.927   7.143
 5147TIP3   OH237075   4.884   1.612   1.389
 5147TIP3    H137076   4.932   1.687   1.425
 5147TIP3    H237077   4.800   1.614   1.435
 5148TIP3   OH237078   5.027   5.286   0.434
 5148TIP3    H137079   5.015   5.378   0.457
 5148TIP3    H237080   4.971   5.238   0.495
 5149TIP3   OH237081   3.049   2.051   0.101
 5149TIP3    H137082   2.992   1.974   0.101
 5149TIP3    H237083   3.138   2.015   0.092
 5150TIP3   OH237084   6.723   4.711   8.929
 5150TIP3    H137085   6.797   4.670   8.974
 5150TIP3    H237086   6.749   4.711   8.836
 5151TIP3   OH237087   0.863   1.837   8.950
 5151TIP3    H137088   0.913   1.759   8.927
 5151TIP3    H237089   0.929   1.906   8.960
 5152TIP3   OH237090   2.960   2.487   8.853
 5152TIP3    H137091   3.034   2.527   8.808
 5152TIP3    H237092   2.997   2.453   8.934
 5153TIP3   OH237093   2.600   4.347   7.956
 5153TIP3    H137094   2.587   4.404   8.031
 5153TIP3    H237095   2.577   4.259   7.988
 5154TIP3   OH237096   4.164   5.932   2.240
 5154TIP3    H137097   4.113   6.011   2.260
 5154TIP3    H237098   4.098   5.862   2.236
 5155TIP3   OH237099   2.270   2.426   0.279
 5155TIP3    H137100   2.241   2.488   0.212
 5155TIP3    H237101   2.348   2.385   0.243
 5156TIP3   OH237102   3.526   4.297   2.026
 5156TIP3    H137103   3.551   4.231   2.090
 5156TIP3    H237104   3.602   4.356   2.021
 5157TIP3   OH237105   1.918   4.769   0.947
 5157TIP3    H137106   1.926   4.727   0.862
 5157TIP3    H237107   1.868   4.849   0.931
 5158TIP3   OH237108   4.608   1.898   6.691
 5158TIP3    H137109   4.672   1.872   6.625
 5158TIP3    H237110   4.546   1.954   6.645
 5159TIP3   OH237111   6.245   6.679   7.697
 5159TIP3    H137112   6.193   6.615   7.745
 5159TIP3    H237113   6.238   6.759   7.749
 5160TIP3   OH237114   4.418   3.430   1.045
 5160TIP3    H137115   4.478   3.491   1.004
 5160TIP3    H237116   4.468   3.349   1.054
 5161TIP3   OH237117   1.264   4.805   1.789
 5161TIP3    H137118   1.352   4.781   1.817
 5161TIP3    H237119   1.276   4.887   1.741
 5162TIP3   OH237120   3.712   3.606   7.282
 5162TIP3    H137121   3.719   3.593   7.187
 5162TIP3    H237122   3.721   3.519   7.320
 5163TIP3   OH237123   5.267   2.524   0.484
 5163TIP3    H137124   5.215   2.599   0.456
 5163TIP3    H237125   5.247   2.514   0.577
 5164TIP3   OH237126   0.765   3.357   6.433
 5164TIP3    H137127   0.744   3.450   6.440
 5164TIP3    H237128   0.711   3.315   6.500
 5165TIP3   OH237129   1.628   2.023   7.839
 5165TIP3    H137130   1.613   2.033   7.933
 5165TIP3    H237131   1.722   2.038   7.827
 5166TIP3   OH237132   3.134   2.851   7.706
 5166TIP3    H137133   3.067   2.877   7.769
 5166TIP3    H237134   3.088   2.794   7.644
 5167TIP3   OH237135   5.043   6.205   0.500
 5167TIP3    H137136   5.068   6.253   0.579
 5167TIP3    H237137   5.009   6.273   0.441
 5168TIP3   OH237138   1.908   5.980   0.547
 5168TIP3    H137139   1.876   5.988   0.457
 5168TIP3    H237140   2.003   5.990   0.540
 5169TIP3   OH237141   2.345   0.379   7.504
 5169TIP3    H137142   2.400   0.443   7.458
 5169TIP3    H237143   2.402   0.344   7.573
 5170TIP3   OH237144   2.068   0.435   7.830
 5170TIP3    H137145   2.029   0.484   7.758
 5170TIP3    H237146   2.162   0.452   7.824
 5171TIP3   OH237147   5.554   0.477   7.643
 5171TIP3    H137148   5.636   0.432   7.665
 5171TIP3    H237149   5.487   0.409   7.649
 5172TIP3   OH237150   6.365   6.383   6.782
 5172TIP3    H137151   6.381   6.470   6.744
 5172TIP3    H237152   6.438   6.330   6.751
 5173TIP3   OH237153   1.865   0.978   8.410
 5173TIP3    H137154   1.890   0.914   8.477
 5173TIP3    H237155   1.924   0.960   8.336
 5174TIP3   OH237156   5.653   6.318   1.420
 5174TIP3    H137157   5.676   6.403   1.459
 5174TIP3    H237158   5.635   6.262   1.495
 5175TIP3   OH237159   2.102   6.114   1.357
 5175TIP3    H137160   2.078   6.207   1.360
 5175TIP3    H237161   2.059   6.081   1.277
 5176TIP3   OH237162   2.828   3.936   0.419
 5176TIP3    H137163   2.754   3.901   0.469
 5176TIP3    H237164   2.788   3.984   0.347
 5177TIP3   OH237165   4.419   4.936   2.801
 5177TIP3    H137166   4.415   5.032   2.807
 5177TIP3    H237167   4.401   4.906   2.891
 5178TIP3   OH237168   3.752   5.204   0.889
 5178TIP3    H137169   3.678   5.204   0.949
 5178TIP3    H237170   3.782   5.113   0.887
 5179TIP3   OH237171   5.127   3.226   7.006
 5179TIP3    H137172   5.199   3.188   6.956
 5179TIP3    H237173   5.048   3.204   6.957
 5180TIP3   OH237174   4.432   0.077   6.571
 5180TIP3    H137175   4.447   0.169   6.590
 5180TIP3    H237176   4.364   0.077   6.504
 5181TIP3   OH237177   1.781   0.103   0.590
 5181TIP3    H137178   1.870   0.140   0.591
 5181TIP3    H237179   1.724   0.180   0.585
 5182TIP3   OH237180   0.156   2.964   6.493
 5182TIP3    H137181   0.128   2.992   6.580
 5182TIP3    H237182   0.251   2.958   6.499
 5183TIP3   OH237183   0.631   5.805   1.670
 5183TIP3    H137184   0.715   5.829   1.632
 5183TIP3    H237185   0.641   5.823   1.764
 5184TIP3   OH237186   0.054   3.114   8.868
 5184TIP3    H137187   0.017   3.122   8.956
 5184TIP3    H237188  -0.021   3.096   8.812
 5185TIP3   OH237189   4.165   5.974   1.529
 5185TIP3    H137190   4.134   5.920   1.602
 5185TIP3    H237191   4.135   6.063   1.551
 5186TIP3   OH237192   3.039   4.373   1.527
 5186TIP3    H137193   2.992   4.290   1.518
 5186TIP3    H237194   3.081   4.386   1.442
 5187TIP3   OH237195   1.434   2.429   0.350
 5187TIP3    H137196   1.363   2.487   0.378
 5187TIP3    H237197   1.414   2.408   0.259
 5188TIP3   OH237198   2.364   5.149   1.725
 5188TIP3    H137199   2.294   5.100   1.683
 5188TIP3    H237200   2.416   5.084   1.771
 5189TIP3   OH237201   5.420   1.313   6.346
 5189TIP3    H137202   5.388   1.240   6.400
 5189TIP3    H237203   5.350   1.328   6.283
 5190TIP3   OH237204   3.292   2.551   1.209
 5190TIP3    H137205   3.386   2.565   1.222
 5190TIP3    H237206   3.253   2.637   1.223
 5191TIP3   OH237207   1.740   0.255   8.057
 5191TIP3    H137208   1.702   0.236   7.971
 5191TIP3    H237209   1.804   0.185   8.071
 5192TIP3   OH237210   4.379   6.364   0.245
 5192TIP3    H137211   4.443   6.408   0.302
 5192TIP3    H237212   4.329   6.308   0.305
 5193TIP3   OH237213   4.753   0.332   1.579
 5193TIP3    H137214   4.791   0.405   1.529
 5193TIP3    H237215   4.692   0.374   1.639
 5194TIP3   OH237216   6.146   1.532   8.239
 5194TIP3    H137217   6.161   1.534   8.144
 5194TIP3    H237218   6.077   1.597   8.253
 5195TIP3   OH237219   4.116   5.413   1.761
 5195TIP3    H137220   4.059   5.336   1.761
 5195TIP3    H237221   4.194   5.384   1.808
 5196TIP3   OH237222   3.982   2.397   0.754
 5196TIP3    H137223   3.991   2.387   0.659
 5196TIP3    H237224   4.046   2.336   0.791
 5197TIP3   OH237225   2.680   1.327   2.604
 5197TIP3    H137226   2.766   1.343   2.566
 5197TIP3    H237227   2.636   1.269   2.541
 5198TIP3   OH237228   4.049   2.019   2.401
 5198TIP3    H137229   4.101   1.942   2.425
 5198TIP3    H237230   3.964   1.984   2.376
 5199TIP3   OH237231   6.785   5.800   8.856
 5199TIP3    H137232   6.846   5.820   8.786
 5199TIP3    H237233   6.754   5.711   8.837
 5200TIP3   OH237234   0.182   0.700   8.730
 5200TIP3    H137235   0.130   0.781   8.725
 5200TIP3    H237236   0.188   0.681   8.823
 5201TIP3   OH237237   2.253   5.431   7.685
 5201TIP3    H137238   2.274   5.525   7.682
 5201TIP3    H237239   2.189   5.418   7.615
 5202TIP3   OH237240   5.158   0.977   0.628
 5202TIP3    H137241   5.100   0.964   0.703
 5202TIP3    H237242   5.105   0.953   0.552
 5203TIP3   OH237243   3.314   2.260   7.960
 5203TIP3    H137244   3.350   2.289   7.876
 5203TIP3    H237245   3.237   2.208   7.937
 5204TIP3   OH237246   6.545   4.159   0.750
 5204TIP3    H137247   6.613   4.150   0.683
 5204TIP3    H237248   6.467   4.122   0.710
 5205TIP3   OH237249   4.434   4.127   8.718
 5205TIP3    H137250   4.382   4.048   8.702
 5205TIP3    H237251   4.516   4.094   8.754
 5206TIP3   OH237252   3.526   1.396   6.710
 5206TIP3    H137253   3.483   1.439   6.637
 5206TIP3    H237254   3.612   1.370   6.676
 5207TIP3   OH237255   3.867   2.371   7.691
 5207TIP3    H137256   3.869   2.320   7.610
 5207TIP3    H237257   3.779   2.358   7.725
 5208TIP3   OH237258   4.103   5.563   7.250
 5208TIP3    H137259   4.090   5.474   7.282
 5208TIP3    H237260   4.015   5.592   7.226
 5209TIP3   OH237261   5.123   3.696   0.148
 5209TIP3    H137262   5.115   3.775   0.096
 5209TIP3    H237263   5.037   3.655   0.144
 5210TIP3   OH237264   6.504   0.100   0.821
 5210TIP3    H137265   6.455   0.073   0.743
 5210TIP3    H237266   6.438   0.110   0.889
 5211TIP3   OH237267   2.529   4.946   1.456
 5211TIP3    H137268   2.444   4.910   1.481
 5211TIP3    H237269   2.508   5.033   1.421
 5212TIP3   OH237270   6.662   1.917   7.305
 5212TIP3    H137271   6.661   1.998   7.253
 5212TIP3    H237272   6.571   1.888   7.304
 5213TIP3   OH237273   5.980   2.996   8.897
 5213TIP3    H137274   6.060   3.019   8.849
 5213TIP3    H237275   5.922   2.958   8.831
 5214TIP3   OH237276   5.513   6.104   7.611
 5214TIP3    H137277   5.458   6.106   7.689
 5214TIP3    H237278   5.474   6.036   7.556
 5215TIP3   OH237279   1.023   4.021   6.247
 5215TIP3    H137280   0.941   4.023   6.295
 5215TIP3    H237281   1.073   4.095   6.282
 5216TIP3   OH237282   6.098   0.647   7.596
 5216TIP3    H137283   6.119   0.712   7.529
 5216TIP3    H237284   6.170   0.652   7.658
 5217TIP3   OH237285   3.329   5.348   1.110
 5217TIP3    H137286   3.342   5.255   1.088
 5217TIP3    H237287   3.417   5.385   1.109
 5218TIP3   OH237288   1.482   6.350   8.444
 5218TIP3    H137289   1.397   6.374   8.407
 5218TIP3    H237290   1.545   6.400   8.392
 5219TIP3   OH237291   1.328   5.101   1.047
 5219TIP3    H137292   1.345   5.009   1.031
 5219TIP3    H237293   1.331   5.142   0.961
 5220TIP3   OH237294   4.121   0.407   0.564
 5220TIP3    H137295   4.076   0.485   0.597
 5220TIP3    H237296   4.147   0.430   0.475
 5221TIP3   OH237297   1.442   5.790   7.064
 5221TIP3    H137298   1.375   5.722   7.071
 5221TIP3    H237299   1.410   5.848   6.995
 5222TIP3   OH237300   3.876   4.031   7.573
 5222TIP3    H137301   3.822   3.993   7.504
 5222TIP3    H237302   3.819   4.036   7.649
 5223TIP3   OH237303   6.117   1.927   1.241
 5223TIP3    H137304   6.157   1.989   1.302
 5223TIP3    H237305   6.154   1.950   1.156
 5224TIP3   OH237306   2.431   4.169   1.321
 5224TIP3    H137307   2.411   4.208   1.236
 5224TIP3    H237308   2.354   4.117   1.343
 5225TIP3   OH237309   2.491   3.488   0.402
 5225TIP3    H137310   2.468   3.519   0.490
 5225TIP3    H237311   2.569   3.537   0.378
 5226TIP3   OH237312   0.861   6.559   0.908
 5226TIP3    H137313   0.770   6.533   0.919
 5226TIP3    H237314   0.876   6.555   0.813
 5227TIP3   OH237315   5.472   5.214   1.065
 5227TIP3    H137316   5.393   5.238   1.017
 5227TIP3    H237317   5.526   5.167   1.001
 5228TIP3   OH237318   5.705   3.049   7.336
 5228TIP3    H137319   5.716   3.136   7.300
 5228TIP3    H237320   5.612   3.029   7.325
 5229TIP3   OH237321   2.542   1.024   8.739
 5229TIP3    H137322   2.529   0.968   8.816
 5229TIP3    H237323   2.473   0.998   8.679
 5230TIP3   OH237324   4.878   3.451   1.185
 5230TIP3    H137325   4.936   3.382   1.217
 5230TIP3    H237326   4.930   3.531   1.189
 5231TIP3   OH237327   1.914   3.366   7.627
 5231TIP3    H137328   1.971   3.402   7.695
 5231TIP3    H237329   1.948   3.402   7.545
 5232TIP3   OH237330   1.625   3.306   0.459
 5232TIP3    H137331   1.713   3.337   0.439
 5232TIP3    H237332   1.637   3.216   0.491
 5233TIP3   OH237333   0.281   0.307   7.384
 5233TIP3    H137334   0.300   0.269   7.298
 5233TIP3    H237335   0.341   0.380   7.393
 5234TIP3   OH237336   4.342   4.973   2.115
 5234TIP3    H137337   4.387   5.027   2.181
 5234TIP3    H237338   4.323   4.891   2.160
 5235TIP3   OH237339   5.419   1.646   6.792
 5235TIP3    H137340   5.506   1.676   6.818
 5235TIP3    H237341   5.432   1.603   6.708
 5236TIP3   OH237342   6.631   2.653   0.603
 5236TIP3    H137343   6.605   2.576   0.552
 5236TIP3    H237344   6.551   2.679   0.649
 5237TIP3   OH237345   2.706   3.090   1.708
 5237TIP3    H137346   2.745   3.005   1.729
 5237TIP3    H237347   2.772   3.136   1.658
 5238TIP3   OH237348   3.086   5.090   7.780
 5238TIP3    H137349   3.100   5.110   7.688
 5238TIP3    H237350   3.158   5.030   7.803
 5239TIP3   OH237351   4.886   5.751   1.658
 5239TIP3    H137352   4.957   5.749   1.594
 5239TIP3    H237353   4.845   5.836   1.645
 5240TIP3   OH237354   4.500   0.713   0.347
 5240TIP3    H137355   4.546   0.785   0.303
 5240TIP3    H237356   4.480   0.747   0.434
 5241TIP3   OH237357   5.994   5.073   8.953
 5241TIP3    H137358   5.957   5.004   8.898
 5241TIP3    H237359   6.049   5.026   9.016
 5242TIP3   OH237360   2.325   6.677   6.810
 5242TIP3    H137361   2.283   6.759   6.784
 5242TIP3    H237362   2.373   6.699   6.890
 5243TIP3   OH237363   1.116   6.748   1.469
 5243TIP3    H137364   1.076   6.666   1.441
 5243TIP3    H237365   1.058   6.816   1.432
 5244TIP3   OH237366   3.479   0.456   2.217
 5244TIP3    H137367   3.400   0.409   2.187
 5244TIP3    H237368   3.507   0.507   2.141
 5245TIP3   OH237369   1.732   0.243   7.471
 5245TIP3    H137370   1.641   0.226   7.494
 5245TIP3    H237371   1.766   0.158   7.442
 5246TIP3   OH237372   0.507   0.434   1.432
 5246TIP3    H137373   0.448   0.491   1.383
 5246TIP3    H237374   0.533   0.487   1.508
 5247TIP3   OH237375   3.358   4.567   2.216
 5247TIP3    H137376   3.295   4.495   2.224
 5247TIP3    H237377   3.430   4.530   2.164
 5248TIP3   OH237378   1.985   3.428   8.220
 5248TIP3    H137379   1.966   3.335   8.214
 5248TIP3    H237380   2.080   3.434   8.221
 5249TIP3   OH237381   3.931   2.339   8.450
 5249TIP3    H137382   3.869   2.285   8.500
 5249TIP3    H237383   3.919   2.427   8.485
 5250TIP3   OH237384   2.149   1.619   0.370
 5250TIP3    H137385   2.193   1.704   0.359
 5250TIP3    H237386   2.094   1.631   0.447
 5251TIP3   OH237387   3.106   4.832   8.221
 5251TIP3    H137388   3.073   4.800   8.137
 5251TIP3    H237389   3.042   4.899   8.247
 5252TIP3   OH237390   1.581   0.601   0.773
 5252TIP3    H137391   1.511   0.658   0.739
 5252TIP3    H237392   1.542   0.558   0.849
 5253TIP3   OH237393   4.909   2.004   7.121
 5253TIP3    H137394   4.851   2.051   7.061
 5253TIP3    H237395   4.947   1.934   7.067
 5254TIP3   OH237396   6.613   5.077   0.850
 5254TIP3    H137397   6.548   5.099   0.917
 5254TIP3    H237398   6.665   5.156   0.840
 5255TIP3   OH237399   0.635   1.484   8.460
 5255TIP3    H137400   0.613   1.403   8.506
 5255TIP3    H237401   0.566   1.495   8.395
 5256TIP3   OH237402   5.603   5.965   0.616
 5256TIP3    H137403   5.658   5.887   0.612
 5256TIP3    H237404   5.652   6.031   0.567
 5257TIP3   OH237405   2.103   1.496   8.457
 5257TIP3    H137406   2.104   1.404   8.486
 5257TIP3    H237407   2.066   1.544   8.532
 5258TIP3   OH237408   1.313   0.164   0.781
 5258TIP3    H137409   1.328   0.135   0.871
 5258TIP3    H237410   1.249   0.235   0.788
 5259TIP3   OH237411   6.006   3.386   1.327
 5259TIP3    H137412   6.102   3.381   1.326
 5259TIP3    H237413   5.978   3.296   1.347
 5260TIP3   OH237414   4.549   2.600   7.639
 5260TIP3    H137415   4.535   2.622   7.731
 5260TIP3    H237416   4.514   2.675   7.591
 5261TIP3   OH237417   6.327   5.578   7.053
 5261TIP3    H137418   6.395   5.585   7.120
 5261TIP3    H237419   6.334   5.658   7.002
 5262TIP3   OH237420   4.813   2.673   7.698
 5262TIP3    H137421   4.758   2.685   7.621
 5262TIP3    H237422   4.758   2.699   7.772
 5263TIP3   OH237423   1.922   6.704   6.258
 5263TIP3    H137424   1.870   6.730   6.182
 5263TIP3    H237425   1.946   6.613   6.241
 5264TIP3   OH237426   5.494   2.966   7.659
 5264TIP3    H137427   5.579   2.946   7.699
 5264TIP3    H237428   5.510   2.959   7.565
 5265TIP3   OH237429   6.037   3.622   8.123
 5265TIP3    H137430   5.949   3.599   8.094
 5265TIP3    H237431   6.034   3.613   8.219
 5266TIP3   OH237432   5.534   0.549   8.843
 5266TIP3    H137433   5.580   0.601   8.908
 5266TIP3    H237434   5.450   0.529   8.884
 5267TIP3   OH237435   3.622   2.101   1.235
 5267TIP3    H137436   3.559   2.166   1.265
 5267TIP3    H237437   3.571   2.021   1.224
 5268TIP3   OH237438   1.513   2.009   8.779
 5268TIP3    H137439   1.456   2.027   8.854
 5268TIP3    H237440   1.526   2.095   8.739
 5269TIP3   OH237441   2.579   2.571   0.221
 5269TIP3    H137442   2.589   2.478   0.202
 5269TIP3    H237443   2.587   2.614   0.136
 5270TIP3   OH237444   6.477   2.373   1.882
 5270TIP3    H137445   6.411   2.326   1.831
 5270TIP3    H237446   6.427   2.429   1.941
 5271TIP3   OH237447   6.142   0.814   1.268
 5271TIP3    H137448   6.189   0.814   1.351
 5271TIP3    H237449   6.076   0.746   1.277
 5272TIP3   OH237450   1.645   0.043   1.267
 5272TIP3    H137451   1.552   0.065   1.262
 5272TIP3    H237452   1.647  -0.037   1.321
 5273TIP3   OH237453   1.067   1.748   1.226
 5273TIP3    H137454   0.995   1.685   1.223
 5273TIP3    H237455   1.024   1.833   1.222
 5274TIP3   OH237456   2.734   6.585   8.290
 5274TIP3    H137457   2.777   6.514   8.242
 5274TIP3    H237458   2.643   6.581   8.263
 5275TIP3   OH237459   0.812   0.958   8.022
 5275TIP3    H137460   0.894   0.908   8.015
 5275TIP3    H237461   0.837   1.036   8.072
 5276TIP3   OH237462   4.589   3.027   0.179
 5276TIP3    H137463   4.594   2.984   0.094
 5276TIP3    H237464   4.674   3.070   0.190
 5277TIP3   OH237465   2.362   4.096   8.865
 5277TIP3    H137466   2.312   4.102   8.947
 5277TIP3    H237467   2.363   4.185   8.831
 5278TIP3   OH237468   0.923   1.275   1.749
 5278TIP3    H137469   0.900   1.217   1.822
 5278TIP3    H237470   0.914   1.363   1.785
 5279TIP3   OH237471   3.978   6.724   8.451
 5279TIP3    H137472   3.914   6.781   8.408
 5279TIP3    H237473   3.951   6.723   8.542
 5280TIP3   OH237474   6.174   0.388   1.959
 5280TIP3    H137475   6.152   0.476   1.988
 5280TIP3    H237476   6.217   0.400   1.874
 5281TIP3   OH237477   0.633   4.848   0.070
 5281TIP3    H137478   0.657   4.800   0.150
 5281TIP3    H237479   0.672   4.935   0.082
 5282TIP3   OH237480   0.950   0.263   7.095
 5282TIP3    H137481   0.973   0.184   7.046
 5282TIP3    H237482   1.009   0.262   7.171
 5283TIP3   OH237483   4.623   2.593   0.088
 5283TIP3    H137484   4.653   2.537   0.159
 5283TIP3    H237485   4.528   2.601   0.101
 5284TIP3   OH237486   5.919   3.136   7.116
 5284TIP3    H137487   6.015   3.134   7.110
 5284TIP3    H237488   5.890   3.074   7.049
 5285TIP3   OH237489   4.146   3.451   0.135
 5285TIP3    H137490   4.084   3.393   0.091
 5285TIP3    H237491   4.218   3.462   0.072
 5286TIP3   OH237492   6.174   2.129   7.033
 5286TIP3    H137493   6.200   2.038   7.049
 5286TIP3    H237494   6.247   2.166   6.984
 5287TIP3   OH237495   0.780   0.376   8.025
 5287TIP3    H137496   0.729   0.301   7.994
 5287TIP3    H237497   0.757   0.385   8.117
 5288TIP3   OH237498   4.493   3.114   0.825
 5288TIP3    H137499   4.474   3.085   0.914
 5288TIP3    H237500   4.416   3.165   0.800
 5289TIP3   OH237501   6.197   0.351   7.662
 5289TIP3    H137502   6.208   0.356   7.567
 5289TIP3    H237503   6.256   0.418   7.697
 5290TIP3   OH237504   6.269   3.589   6.819
 5290TIP3    H137505   6.269   3.498   6.789
 5290TIP3    H237506   6.193   3.594   6.878
 5291TIP3   OH237507   4.910   4.814   2.117
 5291TIP3    H137508   4.998   4.797   2.152
 5291TIP3    H237509   4.922   4.818   2.022
 5292TIP3   OH237510   3.408   4.113   8.592
 5292TIP3    H137511   3.379   4.023   8.606
 5292TIP3    H237512   3.343   4.166   8.638
 5293TIP3   OH237513   3.686   1.885   6.131
 5293TIP3    H137514   3.652   1.975   6.128
 5293TIP3    H237515   3.657   1.847   6.048
 5294TIP3   OH237516   4.161   5.443   1.279
 5294TIP3    H137517   4.208   5.365   1.251
 5294TIP3    H237518   4.185   5.455   1.371
 5295TIP3   OH237519   0.851   0.078   1.812
 5295TIP3    H137520   0.854   0.035   1.726
 5295TIP3    H237521   0.942   0.095   1.833
 5296TIP3   OH237522   0.555   3.925   1.484
 5296TIP3    H137523   0.555   3.952   1.392
 5296TIP3    H237524   0.463   3.931   1.510
 5297TIP3   OH237525   5.215   1.050   0.151
 5297TIP3    H137526   5.152   0.983   0.125
 5297TIP3    H237527   5.166   1.132   0.144
 5298TIP3   OH237528   1.004   3.270   8.569
 5298TIP3    H137529   1.099   3.278   8.556
 5298TIP3    H237530   0.988   3.309   8.655
 5299TIP3   OH237531   0.566   3.047   7.686
 5299TIP3    H137532   0.651   3.003   7.685
 5299TIP3    H237533   0.581   3.130   7.642
 5300TIP3   OH237534   0.457   3.572   1.296
 5300TIP3    H137535   0.472   3.617   1.380
 5300TIP3    H237536   0.473   3.639   1.230
 5301TIP3   OH237537   0.261   3.909   1.555
 5301TIP3    H137538   0.181   3.896   1.504
 5301TIP3    H237539   0.254   3.846   1.627
 5302TIP3   OH237540   4.492   1.963   6.997
 5302TIP3    H137541   4.497   1.901   6.924
 5302TIP3    H237542   4.485   2.049   6.955
 5303TIP3   OH237543   6.400   2.268   8.394
 5303TIP3    H137544   6.432   2.297   8.309
 5303TIP3    H237545   6.460   2.308   8.457
 5304TIP3   OH237546   3.357   3.760   0.030
 5304TIP3    H137547   3.425   3.752  -0.038
 5304TIP3    H237548   3.396   3.722   0.108
 5305TIP3   OH237549   1.833   3.085   0.713
 5305TIP3    H137550   1.783   3.020   0.664
 5305TIP3    H237551   1.772   3.116   0.780
 5306TIP3   OH237552   5.372   5.327   7.110
 5306TIP3    H137553   5.407   5.399   7.161
 5306TIP3    H237554   5.392   5.249   7.162
 5307TIP3   OH237555   0.041   4.120   8.188
 5307TIP3    H137556  -0.042   4.072   8.191
 5307TIP3    H237557   0.018   4.208   8.217
 5308TIP3   OH237558   1.779   1.701   0.001
 5308TIP3    H137559   1.778   1.606   0.010
 5308TIP3    H237560   1.867   1.720  -0.033
 5309TIP3   OH237561   6.260   3.957   0.380
 5309TIP3    H137562   6.324   3.897   0.417
 5309TIP3    H237563   6.190   3.963   0.445
 5310TIP3   OH237564   0.342   3.626   7.484
 5310TIP3    H137565   0.408   3.691   7.460
 5310TIP3    H237566   0.372   3.590   7.567
 5311TIP3   OH237567   6.122   1.054   8.047
 5311TIP3    H137568   6.066   1.011   7.983
 5311TIP3    H237569   6.210   1.046   8.010
 5312TIP3   OH237570   2.032   0.339   1.433
 5312TIP3    H137571   2.092   0.291   1.490
 5312TIP3    H237572   1.945   0.313   1.464
 5313TIP3   OH237573   5.269   5.705   7.642
 5313TIP3    H137574   5.223   5.721   7.560
 5313TIP3    H237575   5.213   5.744   7.709
 5314TIP3   OH237576   6.059   6.345   0.067
 5314TIP3    H137577   6.069   6.313  -0.022
 5314TIP3    H237578   6.146   6.377   0.091
 5315TIP3   OH237579   5.040   6.448   7.302
 5315TIP3    H137580   5.076   6.403   7.225
 5315TIP3    H237581   5.096   6.420   7.375
 5316TIP3   OH237582   3.574   3.500   0.448
 5316TIP3    H137583   3.642   3.555   0.484
 5316TIP3    H237584   3.620   3.438   0.391
 5317TIP3   OH237585   0.114   1.731   8.655
 5317TIP3    H137586   0.071   1.671   8.716
 5317TIP3    H237587   0.206   1.705   8.656
 5318TIP3   OH237588   6.595   2.557   1.660
 5318TIP3    H137589   6.573   2.615   1.733
 5318TIP3    H237590   6.529   2.489   1.662
 5319TIP3   OH237591   6.092   5.514   2.306
 5319TIP3    H137592   6.180   5.500   2.269
 5319TIP3    H237593   6.090   5.607   2.328
 5320TIP3   OH237594   6.529   1.575   0.179
 5320TIP3    H137595   6.572   1.489   0.176
 5320TIP3    H237596   6.582   1.626   0.240
 5321TIP3   OH237597   1.835   4.614   7.883
 5321TIP3    H137598   1.907   4.579   7.830
 5321TIP3    H237599   1.840   4.709   7.870
 5322TIP3   OH237600   1.147   1.212   1.620
 5322TIP3    H137601   1.133   1.118   1.616
 5322TIP3    H237602   1.074   1.245   1.672
 5323TIP3   OH237603   1.558   5.585   7.249
 5323TIP3    H137604   1.576   5.653   7.184
 5323TIP3    H237605   1.628   5.595   7.314
 5324TIP3   OH237606   2.597   2.321   0.159
 5324TIP3    H137607   2.658   2.296   0.228
 5324TIP3    H237608   2.578   2.240   0.112
 5325TIP3   OH237609   1.593   6.271   0.982
 5325TIP3    H137610   1.645   6.248   0.905
 5325TIP3    H237611   1.506   6.234   0.965
 5326TIP3   OH237612   5.098   2.602   2.369
 5326TIP3    H137613   5.137   2.677   2.414
 5326TIP3    H237614   5.124   2.613   2.278
 5327TIP3   OH237615   0.681   4.855   7.772
 5327TIP3    H137616   0.603   4.866   7.827
 5327TIP3    H237617   0.732   4.788   7.816
 5328TIP3   OH237618   2.585   3.429   7.816
 5328TIP3    H137619   2.597   3.524   7.820
 5328TIP3    H237620   2.636   3.395   7.889
 5329TIP3   OH237621   0.247   0.681   7.280
 5329TIP3    H137622   0.222   0.593   7.253
 5329TIP3    H237623   0.309   0.710   7.213
 5330TIP3   OH237624   0.087   4.572   8.076
 5330TIP3    H137625   0.062   4.630   8.149
 5330TIP3    H237626   0.176   4.545   8.097
 5331TIP3   OH237627   5.766   3.423   8.356
 5331TIP3    H137628   5.710   3.349   8.379
 5331TIP3    H237629   5.840   3.383   8.309
 5332TIP3   OH237630   1.799   1.551   0.305
 5332TIP3    H137631   1.788   1.527   0.213
 5332TIP3    H237632   1.836   1.639   0.303
 5333TIP3   OH237633   4.296   3.277   8.118
 5333TIP3    H137634   4.209   3.306   8.146
 5333TIP3    H237635   4.286   3.255   8.026
 5334TIP3   OH237636   0.943   0.544   7.014
 5334TIP3    H137637   0.945   0.450   7.031
 5334TIP3    H237638   0.977   0.583   7.095
 5335TIP3   OH237639   0.703   6.202   0.769
 5335TIP3    H137640   0.683   6.289   0.736
 5335TIP3    H237641   0.725   6.214   0.861
 5336TIP3   OH237642   4.276   1.532   7.841
 5336TIP3    H137643   4.211   1.515   7.773
 5336TIP3    H237644   4.301   1.445   7.873
 5337TIP3   OH237645   1.022   3.483   1.483
 5337TIP3    H137646   1.037   3.468   1.390
 5337TIP3    H237647   1.021   3.396   1.522
 5338TIP3   OH237648   3.541   4.263   7.846
 5338TIP3    H137649   3.594   4.205   7.791
 5338TIP3    H237650   3.474   4.297   7.788
 5339TIP3   OH237651   4.128   2.934   1.616
 5339TIP3    H137652   4.173   2.873   1.674
 5339TIP3    H237653   4.183   3.012   1.616
 5340TIP3   OH237654   2.930   2.138   2.137
 5340TIP3    H137655   2.991   2.205   2.168
 5340TIP3    H237656   2.859   2.186   2.096
 5341TIP3   OH237657   0.873   4.746   1.743
 5341TIP3    H137658   0.797   4.690   1.758
 5341TIP3    H237659   0.948   4.688   1.759
 5342TIP3   OH237660   4.018   6.189   6.599
 5342TIP3    H137661   4.091   6.128   6.609
 5342TIP3    H237662   3.976   6.163   6.517
 5343TIP3   OH237663   6.130   1.273   0.167
 5343TIP3    H137664   6.086   1.227   0.096
 5343TIP3    H237665   6.176   1.346   0.125
 5344TIP3   OH237666   4.543   6.703   0.103
 5344TIP3    H137667   4.485   6.779   0.109
 5344TIP3    H237668   4.541   6.666   0.192
 5345TIP3   OH237669   5.809   4.929   1.454
 5345TIP3    H137670   5.751   4.856   1.432
 5345TIP3    H237671   5.752   5.005   1.457
 5346TIP3   OH237672   2.006   3.411   1.772
 5346TIP3    H137673   2.093   3.428   1.808
 5346TIP3    H237674   1.975   3.333   1.819
 5347TIP3   OH237675   1.335   1.664   0.496
 5347TIP3    H137676   1.333   1.714   0.577
 5347TIP3    H237677   1.423   1.679   0.460
 5348TIP3   OH237678   2.458   3.099   7.554
 5348TIP3    H137679   2.501   3.082   7.469
 5348TIP3    H237680   2.527   3.081   7.619
 5349TIP3   OH237681   2.468   6.568   8.159
 5349TIP3    H137682   2.386   6.525   8.181
 5349TIP3    H237683   2.495   6.529   8.076
 5350TIP3   OH237684   4.671   4.933   8.486
 5350TIP3    H137685   4.623   4.856   8.517
 5350TIP3    H237686   4.652   5.000   8.551
 5351TIP3   OH237687   0.261   5.659   7.791
 5351TIP3    H137688   0.324   5.597   7.756
 5351TIP3    H237689   0.177   5.630   7.756
 5352TIP3   OH237690   6.691   1.373   1.534
 5352TIP3    H137691   6.655   1.408   1.452
 5352TIP3    H237692   6.667   1.281   1.534
 5353TIP3   OH237693   1.919   2.481   7.498
 5353TIP3    H137694   1.890   2.570   7.476
 5353TIP3    H237695   2.014   2.486   7.495
 5354TIP3   OH237696   1.178   2.702   7.309
 5354TIP3    H137697   1.168   2.707   7.214
 5354TIP3    H237698   1.238   2.629   7.323
 5355TIP3   OH237699   5.439   6.064   1.586
 5355TIP3    H137700   5.459   5.974   1.561
 5355TIP3    H237701   5.517   6.095   1.630
 5356TIP3   OH237702   0.929   6.364   8.894
 5356TIP3    H137703   0.955   6.324   8.977
 5356TIP3    H237704   0.981   6.319   8.828
 5357TIP3   OH237705   5.996   3.942   7.442
 5357TIP3    H137706   5.958   3.854   7.438
 5357TIP3    H237707   5.979   3.970   7.532
 5358TIP3   OH237708   3.413   5.502   0.283
 5358TIP3    H137709   3.481   5.568   0.298
 5358TIP3    H237710   3.371   5.489   0.368
 5359TIP3   OH237711   4.777   2.848   8.431
 5359TIP3    H137712   4.848   2.790   8.405
 5359TIP3    H237713   4.726   2.798   8.494
 5360TIP3   OH237714   4.104   5.388   0.160
 5360TIP3    H137715   4.177   5.430   0.116
 5360TIP3    H237716   4.060   5.338   0.091
 5361TIP3   OH237717   0.537   3.467   0.311
 5361TIP3    H137718   0.486   3.389   0.291
 5361TIP3    H237719   0.577   3.449   0.396
 5362TIP3   OH237720   1.142   5.872   1.738
 5362TIP3    H137721   1.145   5.779   1.717
 5362TIP3    H237722   1.061   5.883   1.788
 5363TIP3   OH237723   3.657   1.680   1.476
 5363TIP3    H137724   3.623   1.647   1.393
 5363TIP3    H237725   3.629   1.616   1.542
 5364TIP3   OH237726   3.036   3.715   7.202
 5364TIP3    H137727   2.966   3.666   7.158
 5364TIP3    H237728   3.003   3.730   7.291
 5365TIP3   OH237729   5.357   6.336   1.475
 5365TIP3    H137730   5.269   6.321   1.440
 5365TIP3    H237731   5.393   6.248   1.487
 5366TIP3   OH237732   0.304   5.939   1.576
 5366TIP3    H137733   0.319   5.895   1.660
 5366TIP3    H237734   0.224   5.989   1.588
 5367TIP3   OH237735   6.128   1.064   8.318
 5367TIP3    H137736   6.121   1.084   8.225
 5367TIP3    H237737   6.116   1.148   8.362
 5368TIP3   OH237738   0.552   6.362   8.712
 5368TIP3    H137739   0.594   6.446   8.725
 5368TIP3    H237740   0.563   6.315   8.795
 5369TIP3   OH237741   5.732   2.807   6.967
 5369TIP3    H137742   5.677   2.882   6.942
 5369TIP3    H237743   5.689   2.731   6.927
 5370TIP3   OH237744   6.035   4.253   0.141
 5370TIP3    H137745   6.111   4.230   0.088
 5370TIP3    H237746   5.980   4.175   0.139
 5371TIP3   OH237747   1.297   1.279   1.261
 5371TIP3    H137748   1.204   1.265   1.279
 5371TIP3    H237749   1.328   1.194   1.228
 5372TIP3   OH237750   4.635   2.101   0.931
 5372TIP3    H137751   4.689   2.041   0.879
 5372TIP3    H237752   4.697   2.165   0.965
 5373TIP3   OH237753   5.189   2.198   7.720
 5373TIP3    H137754   5.184   2.103   7.725
 5373TIP3    H237755   5.127   2.229   7.786
 5374TIP3   OH237756   3.561   6.538   1.843
 5374TIP3    H137757   3.618   6.557   1.917
 5374TIP3    H237758   3.618   6.497   1.778
 5375TIP3   OH237759   3.358   4.056   8.975
 5375TIP3    H137760   3.336   4.000   9.050
 5375TIP3    H237761   3.415   4.001   8.920
 5376TIP3   OH237762   6.162   2.288   1.745
 5376TIP3    H137763   6.112   2.232   1.806
 5376TIP3    H237764   6.111   2.369   1.740
 5377TIP3   OH237765   0.931   4.477   0.307
 5377TIP3    H137766   0.997   4.459   0.240
 5377TIP3    H237767   0.892   4.561   0.280
 5378TIP3   OH237768   2.790   3.363   8.000
 5378TIP3    H137769   2.848   3.421   8.050
 5378TIP3    H237770   2.818   3.375   7.909
 5379TIP3   OH237771   6.752   4.376   0.689
 5379TIP3    H137772   6.774   4.351   0.600
 5379TIP3    H237773   6.688   4.447   0.679
 5380TIP3   OH237774   2.961   6.030   8.291
 5380TIP3    H137775   2.991   6.019   8.201
 5380TIP3    H237776   2.867   6.013   8.288
 5381TIP3   OH237777   1.736   4.185   2.117
 5381TIP3    H137778   1.765   4.231   2.038
 5381TIP3    H237779   1.661   4.133   2.088
 5382TIP3   OH237780   0.010   3.647   8.987
 5382TIP3    H137781  -0.066   3.697   9.016
 5382TIP3    H237782   0.013   3.659   8.892
 5383TIP3   OH237783   0.879   0.871   8.309
 5383TIP3    H137784   0.973   0.888   8.323
 5383TIP3    H237785   0.877   0.789   8.260
 5384TIP3   OH237786   1.367   5.914   7.334
 5384TIP3    H137787   1.297   5.871   7.383
 5384TIP3    H237788   1.372   5.866   7.252
 5385TIP3   OH237789   4.689   1.956   8.851
 5385TIP3    H137790   4.630   2.010   8.798
 5385TIP3    H237791   4.654   1.961   8.939
 5386TIP3   OH237792   5.782   0.551   0.190
 5386TIP3    H137793   5.841   0.485   0.154
 5386TIP3    H237794   5.834   0.594   0.258
 5387TIP3   OH237795   6.449   1.187   1.381
 5387TIP3    H137796   6.540   1.210   1.363
 5387TIP3    H237797   6.403   1.271   1.377
 5388TIP3   OH237798   3.568   1.334   7.861
 5388TIP3    H137799   3.591   1.253   7.815
 5388TIP3    H237800   3.517   1.384   7.798
 5389TIP3   OH237801   4.139   5.000   8.260
 5389TIP3    H137802   4.049   4.972   8.280
 5389TIP3    H237803   4.129   5.069   8.195
 5390TIP3   OH237804   1.970   2.962   2.414
 5390TIP3    H137805   2.018   3.044   2.417
 5390TIP3    H237806   1.989   2.926   2.327
 5391TIP3   OH237807   3.604   4.928   7.485
 5391TIP3    H137808   3.680   4.880   7.452
 5391TIP3    H237809   3.634   5.018   7.493
 5392TIP3   OH237810   4.695   4.802   0.704
 5392TIP3    H137811   4.699   4.871   0.638
 5392TIP3    H237812   4.720   4.845   0.785
 5393TIP3   OH237813   5.981   0.087   0.082
 5393TIP3    H137814   6.000   0.029   0.008
 5393TIP3    H237815   6.046   0.064   0.148
 5394TIP3   OH237816   4.059   5.407   6.114
 5394TIP3    H137817   4.085   5.487   6.067
 5394TIP3    H237818   4.141   5.375   6.152
 5395TIP3   OH237819   0.421   0.239   7.755
 5395TIP3    H137820   0.351   0.304   7.760
 5395TIP3    H237821   0.375   0.155   7.753
 5396TIP3   OH237822   4.707   2.490   0.841
 5396TIP3    H137823   4.613   2.468   0.839
 5396TIP3    H237824   4.723   2.529   0.755
 5397TIP3   OH237825   5.671   6.784   1.711
 5397TIP3    H137826   5.630   6.870   1.723
 5397TIP3    H237827   5.735   6.778   1.781
 5398TIP3   OH237828   2.494   0.187   7.293
 5398TIP3    H137829   2.547   0.187   7.373
 5398TIP3    H237830   2.514   0.270   7.251
 5399TIP3   OH237831   4.873   3.189   1.529
 5399TIP3    H137832   4.968   3.197   1.516
 5399TIP3    H237833   4.835   3.233   1.453
 5400TIP3   OH237834   1.807   4.034   1.347
 5400TIP3    H137835   1.862   4.023   1.424
 5400TIP3    H237836   1.834   3.963   1.288
 5401TIP3   OH237837   2.987   2.963   2.362
 5401TIP3    H137838   3.038   2.982   2.283
 5401TIP3    H237839   3.022   3.022   2.428
 5402TIP3   OH237840   0.470   6.662   8.586
 5402TIP3    H137841   0.548   6.709   8.556
 5402TIP3    H237842   0.463   6.587   8.526
 5403TIP3   OH237843   2.347   1.838   1.055
 5403TIP3    H137844   2.265   1.855   1.008
 5403TIP3    H237845   2.353   1.742   1.056
 5404TIP3   OH237846   1.016   4.984   7.561
 5404TIP3    H137847   1.003   4.966   7.654
 5404TIP3    H237848   1.016   4.898   7.520
 5405TIP3   OH237849   2.286   1.997   8.516
 5405TIP3    H137850   2.358   2.059   8.523
 5405TIP3    H237851   2.313   1.922   8.568
 5406TIP3   OH237852   5.412   3.901   7.313
 5406TIP3    H137853   5.435   3.913   7.221
 5406TIP3    H237854   5.382   3.987   7.342
 5407TIP3   OH237855   3.590   6.055   7.574
 5407TIP3    H137856   3.680   6.025   7.571
 5407TIP3    H237857   3.553   6.016   7.653
 5408TIP3   OH237858   0.440   0.037   2.073
 5408TIP3    H137859   0.521  -0.003   2.042
 5408TIP3    H237860   0.465   0.085   2.152
 5409TIP3   OH237861   4.354   3.540   2.482
 5409TIP3    H137862   4.417   3.583   2.424
 5409TIP3    H237863   4.345   3.601   2.556
 5410TIP3   OH237864   6.277   6.142   7.137
 5410TIP3    H137865   6.192   6.185   7.126
 5410TIP3    H237866   6.326   6.202   7.194
 5411TIP3   OH237867   1.487   3.048   7.810
 5411TIP3    H137868   1.528   3.134   7.809
 5411TIP3    H237869   1.396   3.065   7.834
 5412TIP3   OH237870   5.145   1.460   8.362
 5412TIP3    H137871   5.129   1.507   8.280
 5412TIP3    H237872   5.089   1.382   8.356
 5413TIP3   OH237873   1.995   1.910   7.232
 5413TIP3    H137874   1.927   1.849   7.263
 5413TIP3    H237875   1.948   1.991   7.215
 5414TIP3   OH237876   3.417   4.727   1.696
 5414TIP3    H137877   3.455   4.642   1.716
 5414TIP3    H237878   3.331   4.707   1.658
 5415TIP3   OH237879   1.340   5.605   8.376
 5415TIP3    H137880   1.400   5.567   8.313
 5415TIP3    H237881   1.389   5.678   8.415
 5416TIP3   OH237882   3.433   4.480   1.493
 5416TIP3    H137883   3.454   4.572   1.512
 5416TIP3    H237884   3.473   4.431   1.565
 5417TIP3   OH237885   1.750   3.649   0.718
 5417TIP3    H137886   1.829   3.685   0.758
 5417TIP3    H237887   1.694   3.725   0.703
 5418TIP3   OH237888   6.770   4.015   1.048
 5418TIP3    H137889   6.803   4.066   0.974
 5418TIP3    H237890   6.715   3.947   1.008
 5419TIP3   OH237891   6.498   3.462   0.586
 5419TIP3    H137892   6.571   3.415   0.624
 5419TIP3    H237893   6.426   3.451   0.649
 5420TIP3   OH237894   0.477   6.636   0.154
 5420TIP3    H137895   0.418   6.709   0.174
 5420TIP3    H237896   0.466   6.621   0.060
 5421TIP3   OH237897   1.337   1.972   7.430
 5421TIP3    H137898   1.282   1.901   7.464
 5421TIP3    H237899   1.426   1.939   7.436
 5422TIP3   OH237900   1.926   4.219   6.797
 5422TIP3    H137901   2.003   4.255   6.840
 5422TIP3    H237902   1.929   4.254   6.708
 5423TIP3   OH237903   4.185   5.192   1.407
 5423TIP3    H137904   4.276   5.220   1.410
 5423TIP3    H237905   4.173   5.139   1.486
 5424TIP3   OH237906   5.996   0.244   0.528
 5424TIP3    H137907   6.019   0.170   0.471
 5424TIP3    H237908   5.902   0.254   0.518
 5425TIP3   OH237909   4.033   5.610   8.882
 5425TIP3    H137910   4.044   5.522   8.847
 5425TIP3    H237911   4.077   5.667   8.819
 5426TIP3   OH237912   6.045   0.388   1.184
 5426TIP3    H137913   6.000   0.469   1.210
 5426TIP3    H237914   6.137   0.404   1.207
 5427TIP3   OH237915   4.865   0.997   7.188
 5427TIP3    H137916   4.864   0.902   7.184
 5427TIP3    H237917   4.797   1.025   7.126
 5428TIP3   OH237918   3.884   3.326   1.180
 5428TIP3    H137919   3.802   3.345   1.225
 5428TIP3    H237920   3.945   3.305   1.251
 5429TIP3   OH237921   4.040   3.817   1.009
 5429TIP3    H137922   4.032   3.734   1.055
 5429TIP3    H237923   4.058   3.792   0.918
 5430TIP3   OH237924   2.834   3.074   6.343
 5430TIP3    H137925   2.915   3.101   6.387
 5430TIP3    H237926   2.795   3.157   6.313
 5431TIP3   OH237927   5.079   0.462   1.187
 5431TIP3    H137928   5.048   0.381   1.227
 5431TIP3    H237929   5.005   0.523   1.196
 5432TIP3   OH237930   5.144   2.416   7.206
 5432TIP3    H137931   5.162   2.446   7.295
 5432TIP3    H237932   5.168   2.324   7.205
 5433TIP3   OH237933   5.070   1.308   0.162
 5433TIP3    H137934   5.017   1.331   0.086
 5433TIP3    H237935   5.010   1.262   0.220
 5434TIP3   OH237936   4.648   3.065   1.631
 5434TIP3    H137937   4.719   3.125   1.608
 5434TIP3    H237938   4.590   3.066   1.555
 5435TIP3   OH237939   0.425   4.257   7.758
 5435TIP3    H137940   0.337   4.235   7.787
 5435TIP3    H237941   0.483   4.215   7.822
 5436TIP3   OH237942   1.642   3.629   2.637
 5436TIP3    H137943   1.697   3.560   2.600
 5436TIP3    H237944   1.700   3.677   2.696
 5437TIP3   OH237945   6.008   4.553   7.822
 5437TIP3    H137946   6.074   4.603   7.869
 5437TIP3    H237947   6.043   4.464   7.819
 5438TIP3   OH237948   0.567   3.301   1.528
 5438TIP3    H137949   0.527   3.282   1.443
 5438TIP3    H237950   0.620   3.379   1.513
 5439TIP3   OH237951   1.432   3.081   0.060
 5439TIP3    H137952   1.481   3.164   0.057
 5439TIP3    H237953   1.485   3.021   0.007
 5440TIP3   OH237954   1.791   0.587   1.169
 5440TIP3    H137955   1.823   0.674   1.195
 5440TIP3    H237956   1.868   0.530   1.176
 5441TIP3   OH237957   6.551   0.363   7.206
 5441TIP3    H137958   6.550   0.341   7.113
 5441TIP3    H237959   6.626   0.422   7.216
 5442TIP3   OH237960   2.151   5.032   2.386
 5442TIP3    H137961   2.240   5.028   2.350
 5442TIP3    H237962   2.101   5.079   2.320
 5443TIP3   OH237963   4.817   3.295   0.669
 5443TIP3    H137964   4.898   3.247   0.657
 5443TIP3    H237965   4.764   3.273   0.592
 5444TIP3   OH237966   1.528   2.339   7.580
 5444TIP3    H137967   1.477   2.411   7.614
 5444TIP3    H237968   1.493   2.261   7.623
 5445TIP3   OH237969   3.886   0.064   0.204
 5445TIP3    H137970   3.973   0.060   0.163
 5445TIP3    H237971   3.903   0.045   0.297
 5446TIP3   OH237972   6.160   1.667   1.353
 5446TIP3    H137973   6.161   1.693   1.445
 5446TIP3    H237974   6.146   1.749   1.305
 5447TIP3   OH237975   4.254   6.739   8.310
 5447TIP3    H137976   4.194   6.813   8.318
 5447TIP3    H237977   4.199   6.666   8.284
 5448TIP3   OH237978   3.664   3.336   8.475
 5448TIP3    H137979   3.742   3.320   8.528
 5448TIP3    H237980   3.624   3.249   8.465
 5449TIP3   OH237981   4.758   3.892   1.147
 5449TIP3    H137982   4.725   3.815   1.193
 5449TIP3    H237983   4.851   3.893   1.166
 5450TIP3   OH237984   3.610   5.323   0.201
 5450TIP3    H137985   3.681   5.382   0.175
 5450TIP3    H237986   3.553   5.377   0.257
 5451TIP3   OH237987   4.872   5.849   7.316
 5451TIP3    H137988   4.906   5.932   7.351
 5451TIP3    H237989   4.801   5.875   7.257
 5452TIP3   OH237990   4.091   2.001   8.178
 5452TIP3    H137991   4.041   1.978   8.099
 5452TIP3    H237992   4.064   2.091   8.197
 5453TIP3   OH237993   5.254   5.558   8.812
 5453TIP3    H137994   5.197   5.616   8.863
 5453TIP3    H237995   5.254   5.596   8.724
 5454TIP3   OH237996   5.414   0.898   0.738
 5454TIP3    H137997   5.324   0.883   0.710
 5454TIP3    H237998   5.427   0.992   0.728
 5455TIP3   OH237999   3.778   1.920   2.283
 5455TIP3    H138000   3.728   1.839   2.296
 5455TIP3    H238001   3.754   1.950   2.195
 5456TIP3   OH238002   4.197   0.685   0.504
 5456TIP3    H138003   4.272   0.745   0.502
 5456TIP3    H238004   4.183   0.667   0.597
 5457TIP3   OH238005   3.704   2.371   7.311
 5457TIP3    H138006   3.706   2.374   7.215
 5457TIP3    H238007   3.790   2.338   7.336
 5458TIP3   OH238008   3.075   0.267   8.454
 5458TIP3    H138009   2.984   0.241   8.470
 5458TIP3    H238010   3.104   0.211   8.382
 5459TIP3   OH238011   4.120   6.350   6.948
 5459TIP3    H138012   4.046   6.400   6.914
 5459TIP3    H238013   4.108   6.263   6.910
 5460TIP3   OH238014   6.069   4.977   0.937
 5460TIP3    H138015   6.104   4.934   0.859
 5460TIP3    H238016   5.982   4.937   0.949
 5461TIP3   OH238017   6.607   6.090   2.038
 5461TIP3    H138018   6.654   6.173   2.048
 5461TIP3    H238019   6.548   6.086   2.113
 5462TIP3   OH238020   5.130   2.406   8.643
 5462TIP3    H138021   5.096   2.324   8.678
 5462TIP3    H238022   5.127   2.467   8.717
 5463TIP3   OH238023   1.211   3.559   0.419
 5463TIP3    H138024   1.187   3.600   0.336
 5463TIP3    H238025   1.249   3.629   0.471
 5464TIP3   OH238026   2.009   2.779   8.173
 5464TIP3    H138027   2.065   2.814   8.104
 5464TIP3    H238028   2.068   2.756   8.244
 5465TIP3   OH238029   3.317   1.243   7.338
 5465TIP3    H138030   3.336   1.195   7.419
 5465TIP3    H238031   3.225   1.267   7.344
 5466TIP3   OH238032   3.179   2.345   0.768
 5466TIP3    H138033   3.112   2.352   0.700
 5466TIP3    H238034   3.182   2.432   0.807
 5467TIP3   OH238035   0.200   2.815   0.094
 5467TIP3    H138036   0.155   2.793   0.175
 5467TIP3    H238037   0.263   2.744   0.082
 5468TIP3   OH238038   2.647   2.687   7.628
 5468TIP3    H138039   2.608   2.627   7.692
 5468TIP3    H238040   2.618   2.774   7.656
 5469TIP3   OH238041   3.748   5.591   7.442
 5469TIP3    H138042   3.722   5.569   7.352
 5469TIP3    H238043   3.681   5.549   7.496
 5470TIP3   OH238044   5.632   4.780   8.155
 5470TIP3    H138045   5.677   4.785   8.239
 5470TIP3    H238046   5.680   4.713   8.106
 5471TIP3   OH238047   2.603   6.521   6.797
 5471TIP3    H138048   2.650   6.440   6.819
 5471TIP3    H238049   2.581   6.511   6.704
 5472TIP3   OH238050   3.577   4.543   7.892
 5472TIP3    H138051   3.528   4.551   7.973
 5472TIP3    H238052   3.559   4.453   7.862
 5473TIP3   OH238053   4.538   3.903   7.420
 5473TIP3    H138054   4.549   3.939   7.332
 5473TIP3    H238055   4.468   3.838   7.411
 5474TIP3   OH238056   1.529   5.554   1.014
 5474TIP3    H138057   1.570   5.493   0.953
 5474TIP3    H238058   1.567   5.532   1.099
 5475TIP3   OH238059   0.070   3.222   8.262
 5475TIP3    H138060   0.130   3.257   8.328
 5475TIP3    H238061   0.111   3.245   8.178
 5476TIP3   OH238062   6.216   5.017   7.637
 5476TIP3    H138063   6.173   5.060   7.712
 5476TIP3    H238064   6.144   4.983   7.584
 5477TIP3   OH238065   0.332   0.044   7.515
 5477TIP3    H138066   0.426   0.028   7.511
 5477TIP3    H238067   0.322   0.135   7.484
 5478TIP3   OH238068   5.638   3.453   6.812
 5478TIP3    H138069   5.585   3.495   6.745
 5478TIP3    H238070   5.596   3.368   6.826
 5479TIP3   OH238071   0.232   5.646   1.613
 5479TIP3    H138072   0.274   5.660   1.698
 5479TIP3    H238073   0.155   5.703   1.615
 5480TIP3   OH238074   3.131   3.376   0.697
 5480TIP3    H138075   3.224   3.395   0.693
 5480TIP3    H238076   3.093   3.450   0.746
 5481TIP3   OH238077   5.342   6.141   8.091
 5481TIP3    H138078   5.421   6.147   8.144
 5481TIP3    H238079   5.276   6.106   8.151
 5482TIP3   OH238080   0.909   5.246   8.143
 5482TIP3    H138081   0.820   5.253   8.109
 5482TIP3    H238082   0.946   5.334   8.131
 5483TIP3   OH238083   3.580   2.943   0.090
 5483TIP3    H138084   3.508   3.005   0.077
 5483TIP3    H238085   3.646   2.992   0.139
 5484TIP3   OH238086   4.275   0.616   0.807
 5484TIP3    H138087   4.359   0.574   0.827
 5484TIP3    H238088   4.290   0.709   0.825
 5485TIP3   OH238089   0.377   2.648   8.180
 5485TIP3    H138090   0.446   2.646   8.246
 5485TIP3    H238091   0.332   2.564   8.189
 5486TIP3   OH238092   1.912   0.695   7.317
 5486TIP3    H138093   1.860   0.618   7.340
 5486TIP3    H238094   1.876   0.765   7.372
 5487TIP3   OH238095   6.588   6.257   6.950
 5487TIP3    H138096   6.493   6.262   6.948
 5487TIP3    H238097   6.615   6.267   6.858
 5488TIP3   OH238098   2.950   4.045   7.974
 5488TIP3    H138099   2.878   4.020   8.033
 5488TIP3    H238100   2.907   4.096   7.905
 5489TIP3   OH238101   6.369   1.893   7.344
 5489TIP3    H138102   6.308   1.848   7.287
 5489TIP3    H238103   6.327   1.891   7.430
 5490TIP3   OH238104   1.744   1.378   8.385
 5490TIP3    H138105   1.723   1.442   8.452
 5490TIP3    H238106   1.743   1.427   8.303
 5491TIP3   OH238107   0.005   3.464   7.950
 5491TIP3    H138108   0.061   3.386   7.949
 5491TIP3    H238109  -0.080   3.432   7.919
 5492TIP3   OH238110   3.159   1.181   8.350
 5492TIP3    H138111   3.081   1.126   8.351
 5492TIP3    H238112   3.176   1.198   8.257
 5493TIP3   OH238113   2.181   1.085   8.740
 5493TIP3    H138114   2.244   1.084   8.811
 5493TIP3    H238115   2.169   1.177   8.718
 5494TIP3   OH238116   6.231   4.004   1.854
 5494TIP3    H138117   6.283   3.933   1.890
 5494TIP3    H238118   6.235   3.992   1.759
 5495TIP3   OH238119   4.600   2.355   1.734
 5495TIP3    H138120   4.672   2.303   1.697
 5495TIP3    H238121   4.643   2.415   1.795
 5496TIP3   OH238122   4.851   1.739   0.255
 5496TIP3    H138123   4.863   1.811   0.192
 5496TIP3    H238124   4.809   1.670   0.203
 5497TIP3   OH238125   0.319   4.299   8.128
 5497TIP3    H138126   0.268   4.289   8.047
 5497TIP3    H238127   0.260   4.272   8.198
 5498TIP3   OH238128   1.400   0.974   7.790
 5498TIP3    H138129   1.360   1.056   7.817
 5498TIP3    H238130   1.485   1.000   7.754
 5499TIP3   OH238131   0.994   4.758   0.504
 5499TIP3    H138132   0.974   4.784   0.593
 5499TIP3    H238133   1.088   4.739   0.504
 5500TIP3   OH238134   3.203   3.468   7.848
 5500TIP3    H138135   3.231   3.485   7.758
 5500TIP3    H238136   3.248   3.387   7.872
 5501TIP3   OH238137   2.967   5.160   0.764
 5501TIP3    H138138   2.888   5.137   0.715
 5501TIP3    H238139   3.010   5.076   0.782
 5502TIP3   OH238140   5.386   6.437   8.408
 5502TIP3    H138141   5.357   6.363   8.460
 5502TIP3    H238142   5.464   6.405   8.362
 5503TIP3   OH238143   3.135   0.455   0.582
 5503TIP3    H138144   3.073   0.516   0.542
 5503TIP3    H238145   3.202   0.441   0.515
 5504TIP3   OH238146   4.544   6.649   0.642
 5504TIP3    H138147   4.505   6.607   0.719
 5504TIP3    H238148   4.571   6.735   0.673
 5505TIP3   OH238149   5.623   2.716   0.071
 5505TIP3    H138150   5.666   2.791   0.113
 5505TIP3    H238151   5.597   2.660   0.145
 5506TIP3   OH238152   0.633   0.053   8.137
 5506TIP3    H138153   0.726   0.040   8.157
 5506TIP3    H238154   0.632   0.082   8.046
 5507TIP3   OH238155   1.932   4.698   8.273
 5507TIP3    H138156   1.900   4.676   8.361
 5507TIP3    H238157   1.935   4.793   8.272
 5508TIP3   OH238158   1.026   3.837   0.942
 5508TIP3    H138159   1.065   3.901   1.002
 5508TIP3    H238160   1.098   3.778   0.919
 5509TIP3   OH238161   0.614   2.442   7.284
 5509TIP3    H138162   0.677   2.391   7.335
 5509TIP3    H238163   0.640   2.427   7.193
 5510TIP3   OH238164   5.112   4.965   0.633
 5510TIP3    H138165   5.139   4.893   0.576
 5510TIP3    H238166   5.192   4.993   0.677
 5511TIP3   OH238167   0.846   5.183   1.904
 5511TIP3    H138168   0.902   5.255   1.933
 5511TIP3    H238169   0.893   5.142   1.832
 5512TIP3   OH238170   1.710   0.930   8.012
 5512TIP3    H138171   1.693   0.892   8.099
 5512TIP3    H238172   1.760   0.863   7.966
 5513TIP3   OH238173   3.268   5.318   8.616
 5513TIP3    H138174   3.208   5.258   8.660
 5513TIP3    H238175   3.308   5.266   8.546
 5514TIP3   OH238176   0.264   2.690   2.339
 5514TIP3    H138177   0.316   2.657   2.412
 5514TIP3    H238178   0.223   2.770   2.373
 5515TIP3   OH238179   3.334   2.276   7.133
 5515TIP3    H138180   3.358   2.357   7.088
 5515TIP3    H238181   3.239   2.269   7.121
 5516TIP3   OH238182   5.567   6.625   7.822
 5516TIP3    H138183   5.655   6.592   7.803
 5516TIP3    H238184   5.569   6.647   7.915
 5517TIP3   OH238185   3.379   0.759   8.590
 5517TIP3    H138186   3.393   0.844   8.548
 5517TIP3    H238187   3.292   0.765   8.629
 5518TIP3   OH238188   1.004   2.742   0.169
 5518TIP3    H138189   1.069   2.813   0.174
 5518TIP3    H238190   0.999   2.721   0.076
 5519TIP3   OH238191   2.199   3.857   8.515
 5519TIP3    H138192   2.181   3.775   8.561
 5519TIP3    H238193   2.143   3.854   8.438
 5520TIP3   OH238194   0.322   6.632   1.946
 5520TIP3    H138195   0.286   6.567   2.006
 5520TIP3    H238196   0.377   6.688   2.001
 5521TIP3   OH238197   4.556   1.608   7.802
 5521TIP3    H138198   4.489   1.563   7.853
 5521TIP3    H238199   4.555   1.564   7.717
 5522TIP3   OH238200   5.085   2.938   1.283
 5522TIP3    H138201   5.146   2.976   1.219
 5522TIP3    H238202   5.140   2.909   1.355
 5523TIP3   OH238203   4.673   3.915   0.686
 5523TIP3    H138204   4.660   3.923   0.780
 5523TIP3    H238205   4.755   3.868   0.676
 5524TIP3   OH238206   3.717   4.961   1.635
 5524TIP3    H138207   3.693   5.050   1.607
 5524TIP3    H238208   3.709   4.963   1.730
 5525TIP3   OH238209   4.071   1.071   7.614
 5525TIP3    H138210   4.065   1.125   7.535
 5525TIP3    H238211   4.052   0.982   7.582
 5526TIP3   OH238212   6.011   4.794   8.862
 5526TIP3    H138213   5.921   4.807   8.834
 5526TIP3    H238214   6.006   4.730   8.933
 5527TIP3   OH238215   4.802   4.917   1.858
 5527TIP3    H138216   4.731   4.864   1.896
 5527TIP3    H238217   4.771   5.007   1.866
 5528TIP3   OH238218   0.143   2.286   0.032
 5528TIP3    H138219   0.125   2.255  -0.057
 5528TIP3    H238220   0.085   2.361   0.044
 5529TIP3   OH238221   0.824   4.837   2.315
 5529TIP3    H138222   0.863   4.750   2.319
 5529TIP3    H238223   0.729   4.821   2.321
 5530TIP3   OH238224   0.147   4.926   1.857
 5530TIP3    H138225   0.195   5.003   1.827
 5530TIP3    H238226   0.060   4.935   1.819
 5531TIP3   OH238227   2.675   2.628   2.263
 5531TIP3    H138228   2.619   2.671   2.328
 5531TIP3    H238229   2.613   2.584   2.205
 5532TIP3   OH238230   3.432   2.281   1.339
 5532TIP3    H138231   3.448   2.254   1.430
 5532TIP3    H238232   3.410   2.374   1.346
 5533TIP3   OH238233   6.427   3.088   7.026
 5533TIP3    H138234   6.462   3.100   7.114
 5533TIP3    H238235   6.504   3.088   6.969
 5534TIP3   OH238236   2.273   0.851   1.799
 5534TIP3    H138237   2.261   0.936   1.757
 5534TIP3    H238238   2.204   0.846   1.864
 5535TIP3   OH238239   3.219   5.612   1.156
 5535TIP3    H138240   3.246   5.667   1.083
 5535TIP3    H238241   3.234   5.522   1.125
 5536TIP3   OH238242   5.952   5.260   2.260
 5536TIP3    H138243   5.889   5.297   2.199
 5536TIP3    H238244   6.012   5.331   2.280
 5537TIP3   OH238245   1.813   3.540   0.487
 5537TIP3    H138246   1.795   3.591   0.566
 5537TIP3    H238247   1.755   3.578   0.420
 5538TIP3   OH238248   4.929   6.059   7.490
 5538TIP3    H138249   4.988   6.130   7.514
 5538TIP3    H238250   4.898   6.024   7.574
 5539TIP3   OH238251   5.574   4.381   7.308
 5539TIP3    H138252   5.624   4.427   7.375
 5539TIP3    H238253   5.484   4.382   7.340
 5540TIP3   OH238254   2.973   0.141   7.504
 5540TIP3    H138255   2.977   0.060   7.555
 5540TIP3    H238256   3.064   0.156   7.477
 5541TIP3   OH238257   5.240   1.578   1.657
 5541TIP3    H138258   5.330   1.607   1.674
 5541TIP3    H238259   5.209   1.546   1.742
 5542TIP3   OH238260   1.038   3.224   1.542
 5542TIP3    H138261   1.127   3.232   1.575
 5542TIP3    H238262   1.049   3.197   1.450
 5543TIP3   OH238263   2.964   6.277   0.407
 5543TIP3    H138264   3.052   6.291   0.373
 5543TIP3    H238265   2.943   6.357   0.454
 5544TIP3   OH238266   6.526   4.297   7.023
 5544TIP3    H138267   6.549   4.227   6.962
 5544TIP3    H238268   6.495   4.253   7.102
 5545TIP3   OH238269   2.849   0.541   7.101
 5545TIP3    H138270   2.939   0.567   7.085
 5545TIP3    H238271   2.800   0.579   7.028
 5546TIP3   OH238272   5.171   5.947   8.659
 5546TIP3    H138273   5.163   6.022   8.599
 5546TIP3    H238274   5.264   5.927   8.659
 5547TIP3   OH238275   5.221   0.053   7.412
 5547TIP3    H138276   5.286  -0.017   7.416
 5547TIP3    H238277   5.252   0.112   7.344
 5548TIP3   OH238278   2.252   5.332   8.661
 5548TIP3    H138279   2.259   5.419   8.700
 5548TIP3    H238280   2.336   5.290   8.682
 5549TIP3   OH238281   3.132   0.435   7.742
 5549TIP3    H138282   3.223   0.406   7.744
 5549TIP3    H238283   3.118   0.477   7.826
 5550TIP3   OH238284   5.378   4.622   1.891
 5550TIP3    H138285   5.335   4.537   1.888
 5550TIP3    H238286   5.365   4.659   1.804
 5551TIP3   OH238287   1.559   0.420   0.226
 5551TIP3    H138288   1.583   0.334   0.260
 5551TIP3    H238289   1.633   0.445   0.170
 5552TIP3   OH238290   4.180   4.044   8.348
 5552TIP3    H138291   4.148   4.087   8.428
 5552TIP3    H238292   4.276   4.045   8.358
 5553TIP3   OH238293   1.064   1.668   8.287
 5553TIP3    H138294   1.042   1.748   8.336
 5553TIP3    H238295   1.093   1.699   8.202
 5554TIP3   OH238296   2.690   1.518   8.164
 5554TIP3    H138297   2.656   1.430   8.147
 5554TIP3    H238298   2.774   1.502   8.208
 5555TIP3   OH238299   2.393   1.302   2.234
 5555TIP3    H138300   2.305   1.273   2.259
 5555TIP3    H238301   2.381   1.392   2.205
 5556TIP3   OH238302   5.842   1.463   8.219
 5556TIP3    H138303   5.918   1.463   8.161
 5556TIP3    H238304   5.801   1.377   8.206
 5557TIP3   OH238305   5.622   3.854   8.620
 5557TIP3    H138306   5.676   3.802   8.560
 5557TIP3    H238307   5.675   3.931   8.641
 5558TIP3   OH238308   4.382   0.533   1.838
 5558TIP3    H138309   4.349   0.622   1.857
 5558TIP3    H238310   4.331   0.476   1.896
 5559TIP3   OH238311   2.512   1.780   7.885
 5559TIP3    H138312   2.542   1.795   7.975
 5559TIP3    H238313   2.462   1.859   7.863
 5560TIP3   OH238314   1.676   5.873   6.731
 5560TIP3    H138315   1.664   5.815   6.656
 5560TIP3    H238316   1.598   5.929   6.730
 5561TIP3   OH238317   5.281   3.364   8.050
 5561TIP3    H138318   5.296   3.425   8.123
 5561TIP3    H238319   5.186   3.368   8.035
 5562TIP3   OH238320   2.929   0.585   0.978
 5562TIP3    H138321   2.949   0.617   1.066
 5562TIP3    H238322   2.964   0.496   0.976
 5563TIP3   OH238323   3.184   0.433   6.742
 5563TIP3    H138324   3.165   0.413   6.651
 5563TIP3    H238325   3.277   0.413   6.752
 5564TIP3   OH238326   1.936   6.317   0.094
 5564TIP3    H138327   2.026   6.333   0.064
 5564TIP3    H238328   1.917   6.390   0.153
 5565TIP3   OH238329   5.004   2.449   2.589
 5565TIP3    H138330   5.036   2.481   2.505
 5565TIP3    H238331   4.909   2.445   2.578
 5566TIP3   OH238332   2.442   6.683   0.783
 5566TIP3    H138333   2.403   6.696   0.870
 5566TIP3    H238334   2.416   6.761   0.734
 5567TIP3   OH238335   3.433   1.695   8.751
 5567TIP3    H138336   3.457   1.659   8.666
 5567TIP3    H238337   3.349   1.738   8.737
 5568TIP3   OH238338   4.656   4.245   6.462
 5568TIP3    H138339   4.565   4.276   6.471
 5568TIP3    H238340   4.648   4.155   6.430
 5569TIP3   OH238341   5.292   4.676   0.238
 5569TIP3    H138342   5.293   4.658   0.144
 5569TIP3    H238343   5.365   4.624   0.273
 5570TIP3   OH238344   2.336   4.714   0.470
 5570TIP3    H138345   2.423   4.678   0.456
 5570TIP3    H238346   2.324   4.776   0.399
 5571TIP3   OH238347   4.232   0.886   8.267
 5571TIP3    H138348   4.168   0.867   8.198
 5571TIP3    H238349   4.315   0.894   8.220
 5572TIP3   OH238350   2.657   3.310   7.314
 5572TIP3    H138351   2.675   3.321   7.408
 5572TIP3    H238352   2.566   3.280   7.311
 5573TIP3   OH238353   2.008   2.421   8.260
 5573TIP3    H138354   1.993   2.455   8.172
 5573TIP3    H238355   2.103   2.409   8.264
 5574TIP3   OH238356   5.282   2.987   1.109
 5574TIP3    H138357   5.320   3.071   1.083
 5574TIP3    H238358   5.316   2.924   1.045
 5575TIP3   OH238359   4.369   1.997   0.884
 5575TIP3    H138360   4.397   1.985   0.793
 5575TIP3    H238361   4.443   2.041   0.926
 5576TIP3   OH238362   1.334   1.846   8.236
 5576TIP3    H138363   1.243   1.871   8.224
 5576TIP3    H238364   1.384   1.913   8.190
 5577TIP3   OH238365   0.196   1.141   1.205
 5577TIP3    H138366   0.242   1.075   1.153
 5577TIP3    H238367   0.201   1.221   1.153
 5578TIP3   OH238368   4.592   1.254   2.052
 5578TIP3    H138369   4.667   1.275   2.108
 5578TIP3    H238370   4.517   1.287   2.101
 5579TIP3   OH238371   2.664   1.976   7.165
 5579TIP3    H138372   2.622   1.918   7.101
 5579TIP3    H238373   2.703   2.046   7.112
 5580TIP3   OH238374   4.938   4.489   1.175
 5580TIP3    H138375   5.018   4.487   1.227
 5580TIP3    H238376   4.919   4.583   1.165
 5581TIP3   OH238377   5.159   5.964   1.532
 5581TIP3    H138378   5.254   5.978   1.543
 5581TIP3    H238379   5.119   6.019   1.599
 5582TIP3   OH238380   6.366   5.306   2.591
 5582TIP3    H138381   6.432   5.367   2.558
 5582TIP3    H238382   6.398   5.219   2.566
 5583TIP3   OH238383   4.653   5.456   1.483
 5583TIP3    H138384   4.635   5.548   1.503
 5583TIP3    H238385   4.719   5.430   1.548
 5584TIP3   OH238386   4.152   2.993   8.056
 5584TIP3    H138387   4.162   3.065   8.118
 5584TIP3    H238388   4.237   2.989   8.011
 5585TIP3   OH238389   0.175   0.389   7.691
 5585TIP3    H138390   0.153   0.393   7.598
 5585TIP3    H238391   0.134   0.309   7.722
 5586TIP3   OH238392   4.901   1.938   0.092
 5586TIP3    H138393   4.978   1.990   0.071
 5586TIP3    H238394   4.830   1.980   0.042
 5587TIP3   OH238395   2.347   4.514   6.944
 5587TIP3    H138396   2.423   4.549   6.897
 5587TIP3    H238397   2.330   4.577   7.013
 5588TIP3   OH238398   4.069   0.235   7.423
 5588TIP3    H138399   4.002   0.181   7.382
 5588TIP3    H238400   4.021   0.310   7.459
 5589TIP3   OH238401   2.291   0.493   8.718
 5589TIP3    H138402   2.233   0.570   8.723
 5589TIP3    H238403   2.246   0.427   8.771
 5590TIP3   OH238404   1.969   1.972   7.757
 5590TIP3    H138405   1.937   2.046   7.810
 5590TIP3    H238406   2.003   2.014   7.677
 5591TIP3   OH238407   5.018   3.581   0.914
 5591TIP3    H138408   5.011   3.606   1.006
 5591TIP3    H238409   5.064   3.497   0.915
 5592TIP3   OH238410   2.200   4.737   7.479
 5592TIP3    H138411   2.238   4.651   7.498
 5592TIP3    H238412   2.275   4.793   7.460
 5593TIP3   OH238413   1.016   3.217   7.401
 5593TIP3    H138414   1.052   3.128   7.394
 5593TIP3    H238415   1.041   3.259   7.318
 5594TIP3   OH238416   5.829   0.678   6.835
 5594TIP3    H138417   5.845   0.769   6.810
 5594TIP3    H238418   5.913   0.647   6.870
 5595TIP3   OH238419   1.665   4.452   8.935
 5595TIP3    H138420   1.676   4.402   8.854
 5595TIP3    H238421   1.703   4.538   8.915
 5596TIP3   OH238422   4.495   5.735   6.662
 5596TIP3    H138423   4.423   5.699   6.610
 5596TIP3    H238424   4.502   5.826   6.634
 5597TIP3   OH238425   2.268   5.733   7.756
 5597TIP3    H138426   2.193   5.745   7.815
 5597TIP3    H238427   2.251   5.793   7.684
 5598TIP3   OH238428   1.753   5.022   1.901
 5598TIP3    H138429   1.658   5.035   1.890
 5598TIP3    H238430   1.768   5.031   1.995
 5599TIP3   OH238431   6.427   3.709   8.028
 5599TIP3    H138432   6.478   3.780   7.991
 5599TIP3    H238433   6.484   3.672   8.096
 5600TIP3   OH238434   1.049   2.510   7.072
 5600TIP3    H138435   1.062   2.417   7.091
 5600TIP3    H238436   1.001   2.511   6.988
 5601TIP3   OH238437   3.339   6.233   1.899
 5601TIP3    H138438   3.416   6.175   1.905
 5601TIP3    H238439   3.354   6.298   1.967
 5602TIP3   OH238440   1.044   1.954   7.578
 5602TIP3    H138441   0.962   1.945   7.627
 5602TIP3    H238442   1.031   2.031   7.523
 5603TIP3   OH238443   1.078   3.703   7.816
 5603TIP3    H138444   1.115   3.652   7.745
 5603TIP3    H238445   1.121   3.669   7.895
 5604TIP3   OH238446   3.776   3.893   7.321
 5604TIP3    H138447   3.797   3.824   7.383
 5604TIP3    H238448   3.766   3.847   7.237
 5605TIP3   OH238449   1.225   6.754   7.807
 5605TIP3    H138450   1.272   6.805   7.874
 5605TIP3    H238451   1.265   6.781   7.724
 5606TIP3   OH238452   0.963   5.454   8.475
 5606TIP3    H138453   0.874   5.425   8.456
 5606TIP3    H238454   0.981   5.420   8.563
 5607TIP3   OH238455   6.089   6.360   7.418
 5607TIP3    H138456   6.029   6.293   7.385
 5607TIP3    H238457   6.034   6.421   7.466
 5608TIP3   OH238458   5.827   3.232   2.052
 5608TIP3    H138459   5.776   3.171   2.104
 5608TIP3    H238460   5.859   3.297   2.115
 5609TIP3   OH238461   1.980   2.112   0.341
 5609TIP3    H138462   1.926   2.131   0.264
 5609TIP3    H238463   2.055   2.170   0.333
 5610TIP3   OH238464   0.080   3.146   6.269
 5610TIP3    H138465   0.067   3.104   6.184
 5610TIP3    H238466   0.095   3.074   6.330
 5611TIP3   OH238467   0.833   6.314   7.844
 5611TIP3    H138468   0.928   6.329   7.838
 5611TIP3    H238469   0.822   6.224   7.812
 5612TIP3   OH238470   5.524   2.822   6.441
 5612TIP3    H138471   5.575   2.823   6.360
 5612TIP3    H238472   5.500   2.914   6.455
 5613TIP3   OH238473   4.365   3.939   0.309
 5613TIP3    H138474   4.455   3.957   0.337
 5613TIP3    H238475   4.374   3.898   0.223
 5614TIP3   OH238476   4.647   0.612   2.111
 5614TIP3    H138477   4.662   0.539   2.171
 5614TIP3    H238478   4.559   0.643   2.132
 5615TIP3   OH238479   0.037   0.871   6.818
 5615TIP3    H138480  -0.004   0.953   6.790
 5615TIP3    H238481  -0.015   0.842   6.893
 5616TIP3   OH238482   2.210   4.040   7.511
 5616TIP3    H138483   2.226   4.119   7.563
 5616TIP3    H238484   2.136   3.998   7.554
 5617TIP3   OH238485   4.630   5.614   2.184
 5617TIP3    H138486   4.690   5.688   2.196
 5617TIP3    H238487   4.687   5.537   2.190
 5618TIP3   OH238488   5.054   1.802   0.449
 5618TIP3    H138489   5.055   1.742   0.523
 5618TIP3    H238490   4.988   1.765   0.390
 5619TIP3   OH238491   3.905   3.785   0.533
 5619TIP3    H138492   3.812   3.789   0.509
 5619TIP3    H238493   3.950   3.827   0.459
 5620TIP3   OH238494   0.623   5.121   1.049
 5620TIP3    H138495   0.612   5.199   0.995
 5620TIP3    H238496   0.714   5.126   1.079
 5621TIP3   OH238497   6.294   2.533   0.509
 5621TIP3    H138498   6.274   2.530   0.415
 5621TIP3    H238499   6.255   2.615   0.539
 5622TIP3   OH238500   5.737   2.387   7.893
 5622TIP3    H138501   5.804   2.446   7.929
 5622TIP3    H238502   5.689   2.356   7.969
 5623TIP3   OH238503   1.286   2.223   7.117
 5623TIP3    H138504   1.267   2.264   7.033
 5623TIP3    H238505   1.298   2.296   7.178
 5624TIP3   OH238506   4.086   4.516   1.432
 5624TIP3    H138507   4.154   4.449   1.433
 5624TIP3    H238508   4.133   4.598   1.446
 5625TIP3   OH238509   5.827   4.887   0.265
 5625TIP3    H138510   5.772   4.906   0.341
 5625TIP3    H238511   5.776   4.825   0.213
 5626TIP3   OH238512   2.162   1.161   8.427
 5626TIP3    H138513   2.090   1.152   8.489
 5626TIP3    H238514   2.119   1.182   8.344
 5627TIP3   OH238515   3.463   1.928   0.666
 5627TIP3    H138516   3.394   1.871   0.699
 5627TIP3    H238517   3.466   2.000   0.729
 5628TIP3   OH238518   3.774   6.296   1.340
 5628TIP3    H138519   3.681   6.288   1.321
 5628TIP3    H238520   3.809   6.208   1.326
 5629TIP3   OH238521   3.111   4.388   6.433
 5629TIP3    H138522   3.108   4.425   6.345
 5629TIP3    H238523   3.092   4.295   6.421
 5630TIP3   OH238524   6.619   2.169   8.124
 5630TIP3    H138525   6.535   2.202   8.094
 5630TIP3    H238526   6.661   2.135   8.044
 5631TIP3   OH238527   5.915   0.297   1.970
 5631TIP3    H138528   6.007   0.318   1.951
 5631TIP3    H238529   5.883   0.373   2.019
 5632TIP3   OH238530   1.179   5.636   0.098
 5632TIP3    H138531   1.156   5.714   0.047
 5632TIP3    H238532   1.107   5.575   0.082
 5633TIP3   OH238533   1.452   2.172   1.481
 5633TIP3    H138534   1.469   2.240   1.546
 5633TIP3    H238535   1.367   2.136   1.506
 5634TIP3   OH238536   6.579   0.068   8.913
 5634TIP3    H138537   6.618   0.088   8.998
 5634TIP3    H238538   6.641   0.007   8.873
 5635TIP3   OH238539   3.183   6.438   0.549
 5635TIP3    H138540   3.167   6.531   0.531
 5635TIP3    H238541   3.169   6.430   0.644
 5636TIP3   OH238542   3.506   4.200   7.130
 5636TIP3    H138543   3.519   4.285   7.172
 5636TIP3    H238544   3.518   4.217   7.036
 5637TIP3   OH238545   4.789   5.896   1.925
 5637TIP3    H138546   4.790   5.917   2.019
 5637TIP3    H238547   4.697   5.883   1.904
 5638TIP3   OH238548   1.866   3.390   1.111
 5638TIP3    H138549   1.909   3.430   1.035
 5638TIP3    H238550   1.775   3.421   1.105
 5639TIP3   OH238551   1.300   2.950   1.204
 5639TIP3    H138552   1.279   2.925   1.114
 5639TIP3    H238553   1.392   2.926   1.214
 5640TIP3   OH238554   2.008   5.651   1.056
 5640TIP3    H138555   1.967   5.583   1.003
 5640TIP3    H238556   2.067   5.603   1.114
 5641TIP3   OH238557   5.615   2.604   1.336
 5641TIP3    H138558   5.629   2.668   1.267
 5641TIP3    H238559   5.611   2.656   1.417
 5642TIP3   OH238560   0.132   6.581   8.914
 5642TIP3    H138561   0.178   6.503   8.881
 5642TIP3    H238562   0.190   6.617   8.980
 5643TIP3   OH238563   0.212   0.474   7.095
 5643TIP3    H138564   0.303   0.447   7.103
 5643TIP3    H238565   0.199   0.486   7.001
 5644TIP3   OH238566   2.000   1.815   1.469
 5644TIP3    H138567   1.931   1.879   1.452
 5644TIP3    H238568   2.042   1.802   1.384
 5645TIP3   OH238569   6.031   5.568   7.714
 5645TIP3    H138570   6.120   5.543   7.687
 5645TIP3    H238571   5.975   5.538   7.642
 5646TIP3   OH238572   6.258   3.781   7.315
 5646TIP3    H138573   6.348   3.796   7.285
 5646TIP3    H238574   6.204   3.827   7.251
 5647TIP3   OH238575   6.666   0.394   0.120
 5647TIP3    H138576   6.719   0.336   0.065
 5647TIP3    H238577   6.705   0.481   0.107
 5648TIP3   OH238578   2.048   4.051   1.534
 5648TIP3    H138579   2.066   4.143   1.549
 5648TIP3    H238580   2.032   4.015   1.622
 5649TIP3   OH238581   2.956   3.856   1.543
 5649TIP3    H138582   3.037   3.817   1.574
 5649TIP3    H238583   2.955   3.837   1.449
 5650TIP3   OH238584   3.474   6.485   0.503
 5650TIP3    H138585   3.387   6.474   0.540
 5650TIP3    H238586   3.461   6.478   0.408
 5651TIP3   OH238587   2.389   3.426   8.596
 5651TIP3    H138588   2.449   3.357   8.623
 5651TIP3    H238589   2.394   3.426   8.500
 5652TIP3   OH238590   6.066   3.779   0.916
 5652TIP3    H138591   6.102   3.866   0.934
 5652TIP3    H238592   6.101   3.756   0.829
 5653TIP3   OH238593   4.899   3.802   0.353
 5653TIP3    H138594   4.855   3.721   0.379
 5653TIP3    H238595   4.977   3.805   0.409
 5654TIP3   OH238596   5.329   2.157   0.727
 5654TIP3    H138597   5.390   2.164   0.653
 5654TIP3    H238598   5.259   2.219   0.706
 5655TIP3   OH238599   3.938   3.473   0.662
 5655TIP3    H138600   3.876   3.536   0.698
 5655TIP3    H238601   3.939   3.492   0.568
 5656TIP3   OH238602   3.089   5.411   7.235
 5656TIP3    H138603   3.073   5.327   7.192
 5656TIP3    H238604   3.162   5.450   7.186
 5657TIP3   OH238605   3.938   6.078   6.950
 5657TIP3    H138606   3.869   6.070   6.884
 5657TIP3    H238607   4.010   6.024   6.916
 5658TIP3   OH238608   3.127   4.127   8.803
 5658TIP3    H138609   3.111   4.104   8.711
 5658TIP3    H238610   3.216   4.095   8.820
 5659TIP3   OH238611   0.759   6.312   2.178
 5659TIP3    H138612   0.775   6.276   2.265
 5659TIP3    H238613   0.792   6.245   2.118
 5660TIP3   OH238614   2.738   3.030   8.575
 5660TIP3    H138615   2.765   3.112   8.532
 5660TIP3    H238616   2.818   2.979   8.583
 5661TIP3   OH238617   3.453   0.815   1.015
 5661TIP3    H138618   3.363   0.824   0.984
 5661TIP3    H238619   3.459   0.724   1.044
 5662TIP3   OH238620   5.231   0.234   1.130
 5662TIP3    H138621   5.268   0.300   1.071
 5662TIP3    H238622   5.268   0.255   1.216
 5663TIP3   OH238623   2.338   4.529   7.511
 5663TIP3    H138624   2.375   4.547   7.598
 5663TIP3    H238625   2.330   4.433   7.508
 5664TIP3   OH238626   6.609   2.419   8.490
 5664TIP3    H138627   6.625   2.472   8.412
 5664TIP3    H238628   6.654   2.336   8.472
 5665TIP3   OH238629   0.461   2.239   1.573
 5665TIP3    H138630   0.514   2.293   1.515
 5665TIP3    H238631   0.394   2.298   1.608
 5666TIP3   OH238632   1.811   5.911   8.626
 5666TIP3    H138633   1.783   5.831   8.581
 5666TIP3    H238634   1.768   5.907   8.712
 5667TIP3   OH238635   6.659   5.264   2.185
 5667TIP3    H138636   6.753   5.265   2.203
 5667TIP3    H238637   6.649   5.199   2.115
 5668TIP3   OH238638   1.761   0.701   2.017
 5668TIP3    H138639   1.820   0.630   2.043
 5668TIP3    H238640   1.771   0.767   2.086
 5669TIP3   OH238641   1.501   4.176   7.874
 5669TIP3    H138642   1.421   4.192   7.823
 5669TIP3    H238643   1.544   4.262   7.878
 5670TIP3   OH238644   5.651   3.301   0.244
 5670TIP3    H138645   5.629   3.352   0.166
 5670TIP3    H238646   5.711   3.357   0.293
 5671TIP3   OH238647   3.998   5.084   1.157
 5671TIP3    H138648   4.003   5.149   1.227
 5671TIP3    H238649   4.089   5.073   1.129
 5672TIP3   OH238650   0.983   6.062   1.272
 5672TIP3    H138651   1.036   6.002   1.219
 5672TIP3    H238652   0.896   6.060   1.231
 5673TIP3   OH238653   0.994   2.996   8.622
 5673TIP3    H138654   1.070   3.006   8.680
 5673TIP3    H238655   0.971   3.086   8.597
 5674TIP3   OH238656   4.851   2.187   8.129
 5674TIP3    H138657   4.789   2.115   8.114
 5674TIP3    H238658   4.935   2.143   8.142
 5675TIP3   OH238659   0.375   1.406   7.707
 5675TIP3    H138660   0.428   1.329   7.728
 5675TIP3    H238661   0.310   1.410   7.778
 5676TIP3   OH238662   1.083   4.855   0.220
 5676TIP3    H138663   1.152   4.791   0.200
 5676TIP3    H238664   1.029   4.812   0.286
 5677TIP3   OH238665   2.300   1.503   8.270
 5677TIP3    H138666   2.246   1.510   8.348
 5677TIP3    H238667   2.247   1.542   8.200
 5678TIP3   OH238668   2.663   4.474   7.520
 5678TIP3    H138669   2.678   4.477   7.426
 5678TIP3    H238670   2.632   4.562   7.543
 5679TIP3   OH238671   4.571   6.686   8.362
 5679TIP3    H138672   4.658   6.657   8.334
 5679TIP3    H238673   4.512   6.651   8.295
 5680TIP3   OH238674   3.649   5.755   1.914
 5680TIP3    H138675   3.739   5.725   1.919
 5680TIP3    H238676   3.598   5.689   1.961
 5681TIP3   OH238677   6.513   5.120   0.102
 5681TIP3    H138678   6.580   5.139   0.167
 5681TIP3    H238679   6.434   5.161   0.135
 5682TIP3   OH238680   4.297   5.660   1.846
 5682TIP3    H138681   4.219   5.699   1.808
 5682TIP3    H238682   4.312   5.710   1.926
 5683TIP3   OH238683   2.682   4.494   7.236
 5683TIP3    H138684   2.711   4.407   7.208
 5683TIP3    H238685   2.637   4.530   7.160
 5684TIP3   OH238686   4.779   3.653   7.502
 5684TIP3    H138687   4.751   3.603   7.425
 5684TIP3    H238688   4.824   3.588   7.557
 5685TIP3   OH238689   3.373   3.138   0.655
 5685TIP3    H138690   3.410   3.195   0.723
 5685TIP3    H238691   3.444   3.076   0.635
 5686TIP3   OH238692   0.668   6.739   1.976
 5686TIP3    H138693   0.716   6.798   1.919
 5686TIP3    H238694   0.733   6.676   2.007
 5687TIP3   OH238695   2.751   6.239   1.561
 5687TIP3    H138696   2.776   6.159   1.607
 5687TIP3    H238697   2.689   6.211   1.494
 5688TIP3   OH238698   2.527   5.786   0.196
 5688TIP3    H138699   2.565   5.757   0.279
 5688TIP3    H238700   2.602   5.801   0.139
 5689TIP3   OH238701   6.747   1.455   7.319
 5689TIP3    H138702   6.803   1.382   7.346
 5689TIP3    H238703   6.802   1.532   7.329
 5690TIP3   OH238704   6.551   2.420   0.471
 5690TIP3    H138705   6.563   2.395   0.379
 5690TIP3    H238706   6.460   2.399   0.490
 5691TIP3   OH238707   5.997   1.465   2.243
 5691TIP3    H138708   5.953   1.527   2.184
 5691TIP3    H238709   5.964   1.488   2.330
 5692TIP3   OH238710   2.300   0.354   8.455
 5692TIP3    H138711   2.257   0.434   8.485
 5692TIP3    H238712   2.388   0.382   8.431
 5693TIP3   OH238713   6.497   4.838   1.564
 5693TIP3    H138714   6.426   4.835   1.499
 5693TIP3    H238715   6.503   4.748   1.597
 5694TIP3   OH238716   4.558   6.009   7.761
 5694TIP3    H138717   4.622   5.939   7.753
 5694TIP3    H238718   4.610   6.087   7.778
 5695TIP3   OH238719   3.036   3.943   0.007
 5695TIP3    H138720   3.064   3.857  -0.025
 5695TIP3    H238721   3.081   4.006  -0.048
 5696TIP3   OH238722   5.553   1.336   1.650
 5696TIP3    H138723   5.543   1.337   1.555
 5696TIP3    H238724   5.647   1.326   1.664
 5697TIP3   OH238725   2.293   2.907   0.052
 5697TIP3    H138726   2.225   2.964   0.089
 5697TIP3    H238727   2.373   2.960   0.054
 5698TIP3   OH238728   1.782   6.456   8.866
 5698TIP3    H138729   1.804   6.405   8.788
 5698TIP3    H238730   1.805   6.398   8.939
 5699TIP3   OH238731   4.919   3.106   1.813
 5699TIP3    H138732   4.939   3.191   1.850
 5699TIP3    H238733   4.967   3.104   1.730
 5700TIP3   OH238734   4.313   6.701   7.871
 5700TIP3    H138735   4.247   6.642   7.909
 5700TIP3    H238736   4.269   6.738   7.794
 5701TIP3   OH238737   2.485   6.004   5.786
 5701TIP3    H138738   2.478   6.035   5.877
 5701TIP3    H238739   2.577   6.015   5.764
 5702TIP3   OH238740   4.571   4.028   6.983
 5702TIP3    H138741   4.496   4.088   6.982
 5702TIP3    H238742   4.638   4.074   6.932
 5703TIP3   OH238743   2.580   0.395   0.533
 5703TIP3    H138744   2.620   0.425   0.615
 5703TIP3    H238745   2.655   0.373   0.477
 5704TIP3   OH238746   3.255   1.856   1.729
 5704TIP3    H138747   3.184   1.820   1.781
 5704TIP3    H238748   3.294   1.923   1.785
 5705TIP3   OH238749   4.728   4.948   2.768
 5705TIP3    H138750   4.760   4.866   2.730
 5705TIP3    H238751   4.633   4.939   2.767
 5706TIP3   OH238752   2.802   6.308   6.733
 5706TIP3    H138753   2.813   6.221   6.772
 5706TIP3    H238754   2.802   6.292   6.639
 5707TIP3   OH238755   3.705   3.133   0.487
 5707TIP3    H138756   3.643   3.076   0.534
 5707TIP3    H238757   3.744   3.188   0.554
 5708TIP3   OH238758   1.647   3.293   7.691
 5708TIP3    H138759   1.728   3.332   7.658
 5708TIP3    H238760   1.579   3.354   7.662
 5709TIP3   OH238761   3.420   2.284   0.610
 5709TIP3    H138762   3.496   2.275   0.667
 5709TIP3    H238763   3.355   2.330   0.663
 5710TIP3   OH238764   1.345   1.224   6.937
 5710TIP3    H138765   1.263   1.272   6.925
 5710TIP3    H238766   1.380   1.214   6.849
 5711TIP3   OH238767   4.942   5.330   7.205
 5711TIP3    H138768   5.007   5.292   7.146
 5711TIP3    H238769   4.938   5.268   7.279
 5712TIP3   OH238770   4.718   3.433   1.965
 5712TIP3    H138771   4.763   3.514   1.990
 5712TIP3    H238772   4.773   3.363   2.001
 5713TIP3   OH238773   1.306   4.322   1.337
 5713TIP3    H138774   1.337   4.232   1.331
 5713TIP3    H238775   1.314   4.356   1.248
 5714TIP3   OH238776   1.954   4.719   2.186
 5714TIP3    H138777   2.030   4.707   2.129
 5714TIP3    H238778   1.907   4.793   2.147
 5715TIP3   OH238779   4.696   1.054   0.491
 5715TIP3    H138780   4.693   0.971   0.538
 5715TIP3    H238781   4.631   1.108   0.535
 5716TIP3   OH238782   0.869   0.573   6.445
 5716TIP3    H138783   0.815   0.651   6.430
 5716TIP3    H238784   0.947   0.588   6.390
 5717TIP3   OH238785   5.299   4.476   7.568
 5717TIP3    H138786   5.293   4.571   7.555
 5717TIP3    H238787   5.279   4.439   7.483
 5718TIP3   OH238788   1.549   1.729   0.341
 5718TIP3    H138789   1.569   1.820   0.320
 5718TIP3    H238790   1.595   1.678   0.275
 5719TIP3   OH238791   6.734   1.027   1.157
 5719TIP3    H138792   6.813   1.080   1.171
 5719TIP3    H238793   6.737   0.961   1.225
 5720TIP3   OH238794   2.094   4.815   7.235
 5720TIP3    H138795   2.120   4.785   7.322
 5720TIP3    H238796   2.176   4.837   7.191
 5721TIP3   OH238797   4.812   0.357   7.824
 5721TIP3    H138798   4.819   0.347   7.729
 5721TIP3    H238799   4.719   0.351   7.843
 5722TIP3   OH238800   5.796   2.927   0.093
 5722TIP3    H138801   5.870   2.939   0.034
 5722TIP3    H238802   5.731   2.990   0.063
 5723TIP3   OH238803   5.752   1.856   6.564
 5723TIP3    H138804   5.689   1.826   6.498
 5723TIP3    H238805   5.761   1.949   6.548
 5724TIP3   OH238806   4.948   6.324   8.391
 5724TIP3    H138807   4.962   6.330   8.297
 5724TIP3    H238808   5.030   6.287   8.425
 5725TIP3   OH238809   3.631   5.837   7.259
 5725TIP3    H138810   3.631   5.748   7.223
 5725TIP3    H238811   3.605   5.892   7.185
 5726TIP3   OH238812   1.475   3.247   8.337
 5726TIP3    H138813   1.538   3.320   8.332
 5726TIP3    H238814   1.443   3.237   8.247
 5727TIP3   OH238815   0.820   0.850   1.457
 5727TIP3    H138816   0.834   0.874   1.548
 5727TIP3    H238817   0.756   0.914   1.425
 5728TIP3   OH238818   4.069   1.728   8.286
 5728TIP3    H138819   4.098   1.809   8.243
 5728TIP3    H238820   4.043   1.671   8.214
 5729TIP3   OH238821   5.743   1.184   8.192
 5729TIP3    H138822   5.765   1.091   8.193
 5729TIP3    H238823   5.647   1.186   8.191
 5730TIP3   OH238824   0.023   2.008   7.536
 5730TIP3    H138825  -0.032   1.974   7.466
 5730TIP3    H238826  -0.010   2.096   7.552
 5731TIP3   OH238827   1.742   2.583   0.033
 5731TIP3    H138828   1.713   2.631  -0.045
 5731TIP3    H238829   1.747   2.650   0.102
 5732TIP3   OH238830   6.358   2.778   1.579
 5732TIP3    H138831   6.271   2.741   1.562
 5732TIP3    H238832   6.349   2.871   1.562
 5733TIP3   OH238833   3.887   2.186   0.384
 5733TIP3    H138834   3.860   2.109   0.433
 5733TIP3    H238835   3.820   2.196   0.316
 5734TIP3   OH238836   6.248   1.802   0.756
 5734TIP3    H138837   6.284   1.724   0.713
 5734TIP3    H238838   6.271   1.790   0.848
 5735TIP3   OH238839   6.543   1.606   0.768
 5735TIP3    H138840   6.532   1.661   0.691
 5735TIP3    H238841   6.471   1.543   0.763
 5736TIP3   OH238842   2.506   3.068   8.239
 5736TIP3    H138843   2.518   3.006   8.167
 5736TIP3    H238844   2.588   3.065   8.287
 5737TIP3   OH238845   0.467   1.933   7.196
 5737TIP3    H138846   0.492   1.891   7.114
 5737TIP3    H238847   0.536   1.997   7.212
 5738TIP3   OH238848   3.975   2.455   7.227
 5738TIP3    H138849   3.952   2.529   7.170
 5738TIP3    H238850   3.975   2.492   7.315
 5739TIP3   OH238851   3.233   5.057   6.942
 5739TIP3    H138852   3.200   5.101   7.020
 5739TIP3    H238853   3.310   5.009   6.973
 5740TIP3   OH238854   2.114   4.745   0.178
 5740TIP3    H138855   2.078   4.670   0.224
 5740TIP3    H238856   2.198   4.714   0.144
 5741TIP3   OH238857   5.593   0.942   8.464
 5741TIP3    H138858   5.686   0.919   8.468
 5741TIP3    H238859   5.549   0.875   8.517
 5742TIP3   OH238860   3.749   5.936   8.664
 5742TIP3    H138861   3.733   5.960   8.573
 5742TIP3    H238862   3.665   5.950   8.708
 5743TIP3   OH238863   2.981   3.890   2.202
 5743TIP3    H138864   2.973   3.811   2.149
 5743TIP3    H238865   3.048   3.867   2.267
 5744TIP3   OH238866   4.793   4.596   0.412
 5744TIP3    H138867   4.853   4.523   0.426
 5744TIP3    H238868   4.710   4.567   0.449
 5745TIP3   OH238869   3.845   5.948   7.406
 5745TIP3    H138870   3.770   5.900   7.371
 5745TIP3    H238871   3.857   6.021   7.345
 5746TIP3   OH238872   1.768   4.241   7.622
 5746TIP3    H138873   1.754   4.274   7.710
 5746TIP3    H238874   1.704   4.288   7.568
 5747TIP3   OH238875   5.877   1.849   7.483
 5747TIP3    H138876   5.908   1.939   7.480
 5747TIP3    H238877   5.852   1.835   7.574
 5748TIP3   OH238878   3.610   0.158   6.342
 5748TIP3    H138879   3.616   0.246   6.303
 5748TIP3    H238880   3.591   0.101   6.267
 5749TIP3   OH238881   4.343   0.779   8.977
 5749TIP3    H138882   4.391   0.859   8.996
 5749TIP3    H238883   4.273   0.806   8.918
 5750TIP3   OH238884   4.507   6.119   0.233
 5750TIP3    H138885   4.596   6.136   0.264
 5750TIP3    H238886   4.477   6.203   0.198
 5751TIP3   OH238887   5.182   1.378   6.673
 5751TIP3    H138888   5.204   1.300   6.622
 5751TIP3    H238889   5.116   1.424   6.621
 5752TIP3   OH238890   2.602   6.021   1.080
 5752TIP3    H138891   2.510   6.026   1.108
 5752TIP3    H238892   2.646   6.086   1.135
 5753TIP3   OH238893   0.671   0.174   7.870
 5753TIP3    H138894   0.588   0.206   7.836
 5753TIP3    H238895   0.732   0.180   7.797
 5754TIP3   OH238896   1.244   4.831   8.560
 5754TIP3    H138897   1.194   4.862   8.636
 5754TIP3    H238898   1.195   4.754   8.529
 5755TIP3   OH238899   0.625   6.479   8.010
 5755TIP3    H138900   0.600   6.387   8.006
 5755TIP3    H238901   0.664   6.497   7.924
 5756TIP3   OH238902   3.250   4.232   8.335
 5756TIP3    H138903   3.244   4.217   8.241
 5756TIP3    H238904   3.328   4.287   8.345
 5757TIP3   OH238905   6.382   5.989   0.200
 5757TIP3    H138906   6.455   5.933   0.175
 5757TIP3    H238907   6.417   6.078   0.191
 5758TIP3   OH238908   5.079   2.713   7.708
 5758TIP3    H138909   5.115   2.671   7.786
 5758TIP3    H238910   4.985   2.694   7.711
 5759TIP3   OH238911   6.581   6.281   8.164
 5759TIP3    H138912   6.535   6.201   8.191
 5759TIP3    H238913   6.527   6.316   8.093
 5760TIP3   OH238914   5.066   6.020   7.795
 5760TIP3    H138915   5.155   6.057   7.793
 5760TIP3    H238916   5.045   6.010   7.887
 5761TIP3   OH238917   0.481   3.705   1.036
 5761TIP3    H138918   0.413   3.695   0.970
 5761TIP3    H238919   0.560   3.724   0.986
 5762TIP3   OH238920   2.124   0.315   0.302
 5762TIP3    H138921   2.193   0.345   0.360
 5762TIP3    H238922   2.044   0.356   0.335
 5763TIP3   OH238923   5.897   2.821   7.365
 5763TIP3    H138924   5.874   2.910   7.338
 5763TIP3    H238925   5.818   2.770   7.348
 5764TIP3   OH238926   2.259   4.852   7.892
 5764TIP3    H138927   2.230   4.865   7.982
 5764TIP3    H238928   2.345   4.812   7.900
 5765TIP3   OH238929   3.968   1.326   0.107
 5765TIP3    H138930   3.890   1.336   0.052
 5765TIP3    H238931   3.933   1.319   0.196
 5766TIP3   OH238932   0.655   3.758   1.773
 5766TIP3    H138933   0.690   3.758   1.684
 5766TIP3    H238934   0.727   3.725   1.827
 5767TIP3   OH238935   5.451   2.808   8.839
 5767TIP3    H138936   5.530   2.796   8.891
 5767TIP3    H238937   5.452   2.901   8.815
 5768TIP3   OH238938   0.807   0.701   0.365
 5768TIP3    H138939   0.821   0.735   0.453
 5768TIP3    H238940   0.812   0.778   0.308
 5769TIP3   OH238941   1.227   1.866   7.769
 5769TIP3    H138942   1.161   1.869   7.700
 5769TIP3    H238943   1.244   1.958   7.791
 5770TIP3   OH238944   0.642   0.983   0.672
 5770TIP3    H138945   0.623   0.890   0.676
 5770TIP3    H238946   0.571   1.024   0.722
 5771TIP3   OH238947   3.072   2.251   7.063
 5771TIP3    H138948   3.061   2.345   7.069
 5771TIP3    H238949   2.993   2.220   7.019
 5772TIP3   OH238950   4.440   3.663   8.042
 5772TIP3    H138951   4.496   3.585   8.040
 5772TIP3    H238952   4.498   3.733   8.072
 5773TIP3   OH238953   3.244   3.333   8.873
 5773TIP3    H138954   3.203   3.246   8.864
 5773TIP3    H238955   3.252   3.346   8.967
 5774TIP3   OH238956   5.733   0.864   7.548
 5774TIP3    H138957   5.709   0.841   7.638
 5774TIP3    H238958   5.695   0.794   7.495
 5775TIP3   OH238959   2.152   3.569   8.611
 5775TIP3    H138960   2.210   3.497   8.587
 5775TIP3    H238961   2.066   3.528   8.618
 5776TIP3   OH238962   5.013   6.728   0.976
 5776TIP3    H138963   4.925   6.733   0.940
 5776TIP3    H238964   5.001   6.700   1.067
 5777TIP3   OH238965   5.694   1.437   7.051
 5777TIP3    H138966   5.658   1.438   6.962
 5777TIP3    H238967   5.684   1.527   7.082
 5778TIP3   OH238968   1.903   2.762   7.408
 5778TIP3    H138969   1.970   2.799   7.466
 5778TIP3    H238970   1.900   2.821   7.333
 5779TIP3   OH238971   0.583   4.822   1.434
 5779TIP3    H138972   0.552   4.885   1.369
 5779TIP3    H238973   0.564   4.863   1.519
 5780TIP3   OH238974   4.784   2.069   6.864
 5780TIP3    H138975   4.725   2.008   6.820
 5780TIP3    H238976   4.760   2.155   6.831
 5781TIP3   OH238977   1.570   1.478   0.876
 5781TIP3    H138978   1.561   1.570   0.852
 5781TIP3    H238979   1.552   1.430   0.796
 5782TIP3   OH238980   6.303   6.091   2.695
 5782TIP3    H138981   6.263   6.004   2.686
 5782TIP3    H238982   6.397   6.074   2.701
 5783TIP3   OH238983   1.129   6.436   7.522
 5783TIP3    H138984   1.047   6.472   7.488
 5783TIP3    H238985   1.131   6.464   7.614
 5784TIP3   OH238986   2.651   5.771   6.030
 5784TIP3    H138987   2.628   5.694   5.977
 5784TIP3    H238988   2.695   5.829   5.968
 5785TIP3   OH238989   4.335   6.263   6.781
 5785TIP3    H138990   4.318   6.323   6.708
 5785TIP3    H238991   4.302   6.310   6.858
 5786TIP3   OH238992   1.404   0.798   8.019
 5786TIP3    H138993   1.458   0.836   8.088
 5786TIP3    H238994   1.369   0.874   7.972
 5787TIP3   OH238995   5.790   2.312   8.821
 5787TIP3    H138996   5.778   2.406   8.811
 5787TIP3    H238997   5.760   2.275   8.737
 5788TIP3   OH238998   5.931   1.068   0.860
 5788TIP3    H138999   5.980   1.027   0.932
 5788TIP3    H239000   5.918   1.158   0.889
 5789TIP3   OH239001   4.639   3.876   8.022
 5789TIP3    H139002   4.719   3.823   8.025
 5789TIP3    H239003   4.612   3.873   7.930
 5790TIP3   OH239004   0.544   4.388   0.292
 5790TIP3    H139005   0.485   4.448   0.338
 5790TIP3    H239006   0.568   4.323   0.358
 5791TIP3   OH239007   0.972   2.927   1.595
 5791TIP3    H139008   1.025   2.998   1.558
 5791TIP3    H239009   0.882   2.952   1.574
 5792TIP3   OH239010   4.621   5.331   0.994
 5792TIP3    H139011   4.672   5.299   0.920
 5792TIP3    H239012   4.584   5.252   1.033
 5793TIP3   OH239013   6.632   3.997   1.286
 5793TIP3    H139014   6.539   4.003   1.262
 5793TIP3    H239015   6.679   4.008   1.204
 5794TIP3   OH239016   2.176   0.609   7.615
 5794TIP3    H139017   2.245   0.546   7.633
 5794TIP3    H239018   2.102   0.556   7.585
 5795TIP3   OH239019   2.708   1.347   0.041
 5795TIP3    H139020   2.746   1.416   0.094
 5795TIP3    H239021   2.713   1.380  -0.049
 5796TIP3   OH239022   4.794   6.629   8.774
 5796TIP3    H139023   4.706   6.623   8.811
 5796TIP3    H239024   4.781   6.662   8.686
 5797TIP3   OH239025   6.021   1.785   2.390
 5797TIP3    H139026   6.021   1.714   2.454
 5797TIP3    H239027   6.106   1.778   2.346
 5798TIP3   OH239028   5.069   4.267   0.852
 5798TIP3    H139029   5.098   4.191   0.901
 5798TIP3    H239030   4.974   4.270   0.866
 5799TIP3   OH239031   0.635   0.623   7.782
 5799TIP3    H139032   0.639   0.718   7.789
 5799TIP3    H239033   0.543   0.604   7.763
 5800TIP3   OH239034   5.210   6.195   7.524
 5800TIP3    H139035   5.235   6.124   7.465
 5800TIP3    H239036   5.292   6.236   7.549
 5801TIP3   OH239037   5.296   1.715   7.059
 5801TIP3    H139038   5.227   1.666   7.015
 5801TIP3    H239039   5.366   1.723   6.994
 5802TIP3   OH239040   5.079   6.363   0.718
 5802TIP3    H139041   5.037   6.430   0.664
 5802TIP3    H239042   5.104   6.409   0.798
 5803TIP3   OH239043   3.988   5.295   6.968
 5803TIP3    H139044   3.936   5.215   6.979
 5803TIP3    H239045   4.078   5.263   6.959
 5804TIP3   OH239046   0.363   1.489   0.361
 5804TIP3    H139047   0.393   1.431   0.291
 5804TIP3    H239048   0.268   1.480   0.361
 5805TIP3   OH239049   4.150   4.559   0.936
 5805TIP3    H139050   4.073   4.586   0.986
 5805TIP3    H239051   4.117   4.544   0.847
 5806TIP3   OH239052   5.900   2.377   7.400
 5806TIP3    H139053   5.946   2.328   7.332
 5806TIP3    H239054   5.816   2.332   7.409
 5807TIP3   OH239055   6.098   1.444   6.971
 5807TIP3    H139056   6.050   1.520   6.938
 5807TIP3    H239057   6.068   1.371   6.916
 5808TIP3   OH239058   5.069   0.089   6.337
 5808TIP3    H139059   5.073   0.185   6.338
 5808TIP3    H239060   5.120   0.062   6.413
 5809TIP3   OH239061   0.044   6.168   8.140
 5809TIP3    H139062   0.103   6.194   8.069
 5809TIP3    H239063  -0.044   6.185   8.106
 5810TIP3   OH239064   3.077   6.344   6.888
 5810TIP3    H139065   3.007   6.360   6.952
 5810TIP3    H239066   3.033   6.301   6.815
 5811TIP3   OH239067   0.066   5.846   0.160
 5811TIP3    H139068   0.052   5.836   0.066
 5811TIP3    H239069   0.158   5.871   0.169
 5812TIP3   OH239070   4.234   5.275   1.020
 5812TIP3    H139071   4.178   5.266   0.943
 5812TIP3    H239072   4.245   5.185   1.052
 5813TIP3   OH239073   6.345   1.855   7.813
 5813TIP3    H139074   6.252   1.864   7.834
 5813TIP3    H239075   6.352   1.891   7.724
 5814TIP3   OH239076   5.338   2.785   1.308
 5814TIP3    H139077   5.334   2.706   1.254
 5814TIP3    H239078   5.385   2.849   1.254
 5815TIP3   OH239079   6.489   4.762   0.976
 5815TIP3    H139080   6.501   4.741   0.883
 5815TIP3    H239081   6.568   4.810   1.000
 5816TIP3   OH239082   0.798   0.043   0.214
 5816TIP3    H139083   0.842  -0.040   0.235
 5816TIP3    H239084   0.852   0.110   0.257
 5817TIP3   OH239085   4.190   6.081   1.242
 5817TIP3    H139086   4.202   6.063   1.336
 5817TIP3    H239087   4.168   6.174   1.238
 5818TIP3   OH239088   2.624   4.709   7.645
 5818TIP3    H139089   2.553   4.772   7.630
 5818TIP3    H239090   2.696   4.761   7.679
 5819TIP3   OH239091   2.224   2.741   8.812
 5819TIP3    H139092   2.245   2.780   8.897
 5819TIP3    H239093   2.170   2.664   8.835
 5820TIP3   OH239094   5.604   6.723   0.318
 5820TIP3    H139095   5.674   6.762   0.266
 5820TIP3    H239096   5.571   6.652   0.264
 5821TIP3   OH239097   0.490   4.629   8.476
 5821TIP3    H139098   0.444   4.703   8.517
 5821TIP3    H239099   0.502   4.566   8.547
 5822TIP3   OH239100   6.055   2.361   8.208
 5822TIP3    H139101   6.084   2.337   8.296
 5822TIP3    H239102   6.133   2.395   8.165
 5823TIP3   OH239103   0.852   1.927   1.463
 5823TIP3    H139104   0.831   1.944   1.372
 5823TIP3    H239105   0.767   1.915   1.506
 5824TIP3   OH239106   1.340   0.383   8.003
 5824TIP3    H139107   1.333   0.421   8.091
 5824TIP3    H239108   1.343   0.288   8.019
 5825TIP3   OH239109   0.683   0.385   8.299
 5825TIP3    H139110   0.631   0.465   8.308
 5825TIP3    H239111   0.637   0.320   8.351
 5826TIP3   OH239112   4.272   3.219   2.233
 5826TIP3    H139113   4.329   3.229   2.157
 5826TIP3    H239114   4.243   3.127   2.229
 5827TIP3   OH239115   0.803   4.238   2.031
 5827TIP3    H139116   0.802   4.332   2.051
 5827TIP3    H239117   0.744   4.229   1.956
 5828TIP3   OH239118   1.220   6.723   0.680
 5828TIP3    H139119   1.280   6.665   0.727
 5828TIP3    H239120   1.254   6.811   0.696
 5829TIP3   OH239121   3.471   3.633   0.246
 5829TIP3    H139122   3.538   3.611   0.311
 5829TIP3    H239123   3.392   3.651   0.297
 5830TIP3   OH239124   3.804   3.776   1.612
 5830TIP3    H139125   3.858   3.706   1.650
 5830TIP3    H239126   3.748   3.804   1.684
 5831TIP3   OH239127   2.406   1.294   8.408
 5831TIP3    H139128   2.365   1.369   8.365
 5831TIP3    H239129   2.339   1.226   8.405
 5832TIP3   OH239130   0.779   0.234   0.590
 5832TIP3    H139131   0.691   0.203   0.565
 5832TIP3    H239132   0.831   0.154   0.597
 5833TIP3   OH239133   6.246   1.988   7.565
 5833TIP3    H139134   6.183   1.920   7.589
 5833TIP3    H239135   6.193   2.059   7.528
 5834TIP3   OH239136   2.425   0.065   0.197
 5834TIP3    H139137   2.507   0.062   0.246
 5834TIP3    H239138   2.416   0.156   0.171
 5835TIP3   OH239139   5.006   2.082   0.448
 5835TIP3    H139140   5.000   2.089   0.543
 5835TIP3    H239141   5.018   1.989   0.431
 5836TIP3   OH239142   4.108   0.949   0.210
 5836TIP3    H139143   4.034   0.953   0.149
 5836TIP3    H239144   4.184   0.931   0.154
 5837TIP3   OH239145   0.945   2.714   7.469
 5837TIP3    H139146   0.968   2.690   7.559
 5837TIP3    H239147   1.022   2.690   7.417
 5838TIP3   OH239148   3.182   4.681   2.009
 5838TIP3    H139149   3.212   4.596   2.042
 5838TIP3    H239150   3.215   4.744   2.072
 5839TIP3   OH239151   4.248   0.396   7.761
 5839TIP3    H139152   4.269   0.489   7.766
 5839TIP3    H239153   4.326   0.351   7.794
 5840TIP3   OH239154   2.849   1.443   8.580
 5840TIP3    H139155   2.857   1.479   8.492
 5840TIP3    H239156   2.791   1.367   8.571
 5841TIP3   OH239157   1.057   5.219   8.886
 5841TIP3    H139158   0.990   5.265   8.835
 5841TIP3    H239159   1.008   5.178   8.957
 5842TIP3   OH239160   1.265   4.156   8.385
 5842TIP3    H139161   1.180   4.188   8.356
 5842TIP3    H239162   1.304   4.117   8.307
 5843TIP3   OH239163   4.652   1.449   2.362
 5843TIP3    H139164   4.625   1.522   2.306
 5843TIP3    H239165   4.583   1.384   2.351
 5844TIP3   OH239166   3.064   3.921   1.835
 5844TIP3    H139167   3.041   3.830   1.854
 5844TIP3    H239168   3.144   3.915   1.783
 5845TIP3   OH239169   2.339   0.946   6.986
 5845TIP3    H139170   2.302   0.858   6.977
 5845TIP3    H239171   2.417   0.934   7.040
 5846TIP3   OH239172   5.368   5.023   8.709
 5846TIP3    H139173   5.433   5.081   8.749
 5846TIP3    H239174   5.405   5.003   8.622
 5847TIP3   OH239175   2.881   6.319   7.090
 5847TIP3    H139176   2.834   6.327   7.173
 5847TIP3    H239177   2.857   6.232   7.057
 5848TIP3   OH239178   2.174   4.741   0.701
 5848TIP3    H139179   2.218   4.693   0.771
 5848TIP3    H239180   2.230   4.728   0.624
 5849TIP3   OH239181   1.045   4.274   8.898
 5849TIP3    H139182   1.056   4.330   8.975
 5849TIP3    H239183   1.113   4.303   8.837
 5850TIP3   OH239184   0.209   3.977   7.818
 5850TIP3    H139185   0.148   3.912   7.784
 5850TIP3    H239186   0.271   3.927   7.871
 5851TIP3   OH239187   0.097   4.534   7.717
 5851TIP3    H139188   0.043   4.599   7.762
 5851TIP3    H239189   0.037   4.463   7.696
 5852TIP3   OH239190   2.797   0.666   0.283
 5852TIP3    H139191   2.801   0.727   0.209
 5852TIP3    H239192   2.721   0.695   0.334
 5853TIP3   OH239193   6.582   4.764   7.499
 5853TIP3    H139194   6.660   4.748   7.551
 5853TIP3    H239195   6.530   4.684   7.508
 5854TIP3   OH239196   4.012   2.430   1.304
 5854TIP3    H139197   3.986   2.343   1.333
 5854TIP3    H239198   3.932   2.483   1.312
 5855TIP3   OH239199   6.334   0.496   8.057
 5855TIP3    H139200   6.426   0.515   8.073
 5855TIP3    H239201   6.322   0.406   8.088
 5856TIP3   OH239202   5.095   0.495   0.166
 5856TIP3    H139203   5.042   0.450   0.100
 5856TIP3    H239204   5.037   0.500   0.243
 5857TIP3   OH239205   2.406   4.958   2.300
 5857TIP3    H139206   2.462   4.952   2.223
 5857TIP3    H239207   2.390   4.866   2.324
 5858TIP3   OH239208   1.792   1.442   0.044
 5858TIP3    H139209   1.870   1.388   0.042
 5858TIP3    H239210   1.720   1.382   0.025
 5859TIP3   OH239211   4.234   0.254   0.229
 5859TIP3    H139212   4.279   0.326   0.272
 5859TIP3    H239213   4.146   0.288   0.212
 5860TIP3   OH239214   3.259   5.819   8.213
 5860TIP3    H139215   3.203   5.761   8.264
 5860TIP3    H239216   3.246   5.791   8.122
 5861TIP3   OH239217   5.643   5.958   7.921
 5861TIP3    H139218   5.629   6.033   7.863
 5861TIP3    H239219   5.599   5.885   7.877
 5862TIP3   OH239220   5.156   3.180   1.558
 5862TIP3    H139221   5.197   3.177   1.644
 5862TIP3    H239222   5.225   3.211   1.499
 5863TIP3   OH239223   2.640   4.837   0.113
 5863TIP3    H139224   2.623   4.780   0.037
 5863TIP3    H239225   2.713   4.795   0.158
 5864TIP3   OH239226   0.590   3.463   8.960
 5864TIP3    H139227   0.606   3.376   8.925
 5864TIP3    H239228   0.611   3.522   8.887
 5865TIP3   OH239229   2.258   4.072   8.293
 5865TIP3    H139230   2.165   4.067   8.313
 5865TIP3    H239231   2.267   4.031   8.207
 5866TIP3   OH239232   4.647   2.200   7.128
 5866TIP3    H139233   4.579   2.268   7.127
 5866TIP3    H239234   4.722   2.241   7.086
 5867TIP3   OH239235   5.279   3.968   8.074
 5867TIP3    H139236   5.198   3.973   8.125
 5867TIP3    H239237   5.292   4.057   8.041
 5868TIP3   OH239238   2.840   1.290   1.319
 5868TIP3    H139239   2.869   1.199   1.321
 5868TIP3    H239240   2.917   1.341   1.347
 5869TIP3   OH239241   3.725   3.719   0.302
 5869TIP3    H139242   3.642   3.749   0.267
 5869TIP3    H239243   3.766   3.798   0.339
 5870TIP3   OH239244   0.396   0.751   7.077
 5870TIP3    H139245   0.423   0.842   7.089
 5870TIP3    H239246   0.354   0.750   6.991
 5871TIP3   OH239247   1.296   3.066   8.717
 5871TIP3    H139248   1.328   3.037   8.632
 5871TIP3    H239249   1.369   3.051   8.777
 5872TIP3   OH239250   4.939   0.369   1.987
 5872TIP3    H139251   4.849   0.398   2.003
 5872TIP3    H239252   4.960   0.314   2.062
 5873TIP3   OH239253   2.357   5.373   1.140
 5873TIP3    H139254   2.295   5.405   1.075
 5873TIP3    H239255   2.372   5.448   1.198
 5874TIP3   OH239256   6.278   0.145   1.454
 5874TIP3    H139257   6.187   0.175   1.446
 5874TIP3    H239258   6.324   0.187   1.382
 5875TIP3   OH239259   4.263   6.233   1.485
 5875TIP3    H139260   4.298   6.309   1.533
 5875TIP3    H239261   4.226   6.271   1.405
 5876TIP3   OH239262   6.121   5.858   7.900
 5876TIP3    H139263   6.122   5.882   7.992
 5876TIP3    H239264   6.175   5.779   7.895
 5877TIP3   OH239265   2.010   3.220   6.876
 5877TIP3    H139266   2.004   3.198   6.969
 5877TIP3    H239267   1.968   3.306   6.869
 5878TIP3   OH239268   1.372   2.507   6.761
 5878TIP3    H139269   1.440   2.554   6.809
 5878TIP3    H239270   1.312   2.575   6.732
 5879TIP3   OH239271   0.006   2.681   1.462
 5879TIP3    H139272  -0.050   2.633   1.522
 5879TIP3    H239273  -0.052   2.744   1.420
 5880TIP3   OH239274   3.884   5.281   7.232
 5880TIP3    H139275   3.912   5.320   7.149
 5880TIP3    H239276   3.963   5.281   7.286
 5881TIP3   OH239277   3.795   2.907   0.307
 5881TIP3    H139278   3.758   2.959   0.378
 5881TIP3    H239279   3.805   2.968   0.234
 5882TIP3   OH239280   5.733   5.314   0.961
 5882TIP3    H139281   5.682   5.380   0.915
 5882TIP3    H239282   5.808   5.362   0.996
 5883TIP3   OH239283   0.830   3.256   0.323
 5883TIP3    H139284   0.767   3.211   0.379
 5883TIP3    H239285   0.818   3.217   0.237
 5884TIP3   OH239286   3.326   2.220   8.627
 5884TIP3    H139287   3.395   2.155   8.616
 5884TIP3    H239288   3.373   2.303   8.640
 5885TIP3   OH239289   0.554   4.083   2.097
 5885TIP3    H139290   0.471   4.131   2.103
 5885TIP3    H239291   0.527   3.993   2.077
 5886TIP3   OH239292   3.902   0.726   0.357
 5886TIP3    H139293   3.942   0.640   0.365
 5886TIP3    H239294   3.938   0.762   0.276
 5887TIP3   OH239295   6.597   5.746   2.143
 5887TIP3    H139296   6.562   5.753   2.232
 5887TIP3    H239297   6.535   5.794   2.089
 5888TIP3   OH239298   0.467   0.726   7.457
 5888TIP3    H139299   0.461   0.659   7.525
 5888TIP3    H239300   0.384   0.722   7.411
 5889TIP3   OH239301   1.603   1.988   8.451
 5889TIP3    H139302   1.559   2.061   8.408
 5889TIP3    H239303   1.639   2.025   8.531
 5890TIP3   OH239304   0.451   3.835   7.854
 5890TIP3    H139305   0.496   3.892   7.917
 5890TIP3    H239306   0.520   3.805   7.795
 5891TIP3   OH239307   5.640   3.706   1.721
 5891TIP3    H139308   5.594   3.766   1.779
 5891TIP3    H239309   5.726   3.747   1.707
 5892TIP3   OH239310   1.117   0.180   7.330
 5892TIP3    H139311   1.140   0.091   7.355
 5892TIP3    H239312   1.115   0.228   7.413
 5893TIP3   OH239313   0.403   5.008   1.307
 5893TIP3    H139314   0.412   5.099   1.337
 5893TIP3    H239315   0.375   5.014   1.216
 5894TIP3   OH239316   5.072   1.399   6.396
 5894TIP3    H139317   5.078   1.317   6.445
 5894TIP3    H239318   5.133   1.388   6.322
 5895TIP3   OH239319   5.680   0.393   8.314
 5895TIP3    H139320   5.716   0.438   8.391
 5895TIP3    H239321   5.751   0.397   8.250
 5896TIP3   OH239322   0.042   5.134   7.964
 5896TIP3    H139323   0.030   5.078   8.040
 5896TIP3    H239324   0.072   5.217   8.000
 5897TIP3   OH239325   4.352   1.464   6.576
 5897TIP3    H139326   4.274   1.414   6.553
 5897TIP3    H239327   4.328   1.511   6.656
 5898TIP3   OH239328   2.597   4.310   6.692
 5898TIP3    H139329   2.513   4.265   6.685
 5898TIP3    H239330   2.635   4.304   6.605
 5899TIP3   OH239331   5.621   3.105   2.244
 5899TIP3    H139332   5.675   3.132   2.319
 5899TIP3    H239333   5.586   3.020   2.270
 5900TIP3   OH239334   0.357   5.051   6.161
 5900TIP3    H139335   0.274   5.041   6.116
 5900TIP3    H239336   0.390   5.136   6.132
 5901TIP3   OH239337   6.750   0.334   8.725
 5901TIP3    H139338   6.803   0.342   8.805
 5901TIP3    H239339   6.773   0.410   8.673
 5902TIP3   OH239340   4.646   0.917   0.246
 5902TIP3    H139341   4.622   0.990   0.188
 5902TIP3    H239342   4.702   0.957   0.313
 5903TIP3   OH239343   1.814   2.359   1.443
 5903TIP3    H139344   1.815   2.316   1.529
 5903TIP3    H239345   1.807   2.286   1.381
 5904TIP3   OH239346   6.355   4.906   0.041
 5904TIP3    H139347   6.287   4.921   0.107
 5904TIP3    H239348   6.421   4.972   0.058
 5905TIP3   OH239349   3.763   6.569   1.421
 5905TIP3    H139350   3.780   6.490   1.369
 5905TIP3    H239351   3.733   6.536   1.506
 5906TIP3   OH239352   0.106   4.525   0.879
 5906TIP3    H139353   0.102   4.618   0.857
 5906TIP3    H239354   0.069   4.481   0.804
 5907TIP3   OH239355   5.236   5.171   0.004
 5907TIP3    H139356   5.238   5.176  -0.091
 5907TIP3    H239357   5.242   5.077   0.024
 5908TIP3   OH239358   3.776   5.690   1.079
 5908TIP3    H139359   3.785   5.778   1.117
 5908TIP3    H239360   3.830   5.693   1.000
 5909TIP3   OH239361   1.945   5.918   1.214
 5909TIP3    H139362   1.941   5.917   1.118
 5909TIP3    H239363   2.032   5.884   1.235
 5910TIP3   OH239364   6.160   1.712   8.793
 5910TIP3    H139365   6.203   1.694   8.876
 5910TIP3    H239366   6.156   1.627   8.749
 5911TIP3   OH239367   1.385   0.560   1.243
 5911TIP3    H139368   1.450   0.549   1.312
 5911TIP3    H239369   1.302   0.536   1.284
 5912TIP3   OH239370   0.692   6.737   8.383
 5912TIP3    H139371   0.787   6.753   8.385
 5912TIP3    H239372   0.664   6.772   8.299
 5913TIP3   OH239373   0.338   3.469   0.064
 5913TIP3    H139374   0.311   3.561   0.057
 5913TIP3    H239375   0.432   3.470   0.044
 5914TIP3   OH239376   6.696   1.666   1.502
 5914TIP3    H139377   6.703   1.609   1.579
 5914TIP3    H239378   6.692   1.606   1.428
 5915TIP3   OH239379   3.623   2.277   8.282
 5915TIP3    H139380   3.644   2.302   8.192
 5915TIP3    H239381   3.625   2.360   8.330
 5916TIP3   OH239382   0.278   1.730   7.200
 5916TIP3    H139383   0.337   1.805   7.205
 5916TIP3    H239384   0.313   1.677   7.128
 5917TIP3   OH239385   0.181   0.528   6.558
 5917TIP3    H139386   0.204   0.612   6.517
 5917TIP3    H239387   0.239   0.464   6.515
 5918TIP3   OH239388   5.456   4.479   8.749
 5918TIP3    H139389   5.416   4.398   8.779
 5918TIP3    H239390   5.497   4.457   8.666
 5919TIP3   OH239391   4.352   5.779   2.108
 5919TIP3    H139392   4.283   5.829   2.151
 5919TIP3    H239393   4.345   5.691   2.145
 5920TIP3   OH239394   6.134   6.091   1.764
 5920TIP3    H139395   6.081   6.169   1.752
 5920TIP3    H239396   6.223   6.118   1.742
 5921TIP3   OH239397   4.149   5.583   7.862
 5921TIP3    H139398   4.129   5.642   7.935
 5921TIP3    H239399   4.171   5.641   7.789
 5922TIP3   OH239400   0.945   2.225   7.682
 5922TIP3    H139401   1.020   2.278   7.709
 5922TIP3    H239402   0.888   2.223   7.758
 5923TIP3   OH239403   5.754   5.179   6.615
 5923TIP3    H139404   5.687   5.137   6.561
 5923TIP3    H239405   5.837   5.156   6.574
 5924TIP3   OH239406   0.336   5.566   8.119
 5924TIP3    H139407   0.288   5.647   8.104
 5924TIP3    H239408   0.371   5.542   8.034
 5925TIP3   OH239409   5.707   0.095   0.131
 5925TIP3    H139410   5.697   0.185   0.099
 5925TIP3    H239411   5.785   0.063   0.085
 5926TIP3   OH239412   5.544   0.393   6.362
 5926TIP3    H139413   5.614   0.385   6.427
 5926TIP3    H239414   5.540   0.307   6.320
 5927TIP3   OH239415   2.136   5.679   6.906
 5927TIP3    H139416   2.150   5.596   6.952
 5927TIP3    H239417   2.063   5.720   6.952
 5928TIP3   OH239418   1.429   0.797   0.088
 5928TIP3    H139419   1.365   0.842   0.142
 5928TIP3    H239420   1.413   0.704   0.103
 5929TIP3   OH239421   5.556   4.708   0.746
 5929TIP3    H139422   5.505   4.785   0.772
 5929TIP3    H239423   5.517   4.635   0.794
 5930TIP3   OH239424   1.902   0.036   7.626
 5930TIP3    H139425   1.930   0.124   7.600
 5930TIP3    H239426   1.811   0.031   7.598
 5931TIP3   OH239427   0.651   5.626   3.049
 5931TIP3    H139428   0.603   5.640   2.968
 5931TIP3    H239429   0.591   5.577   3.105
 5932TIP3   OH239430   0.950   4.910   2.049
 5932TIP3    H139431   0.916   4.913   1.959
 5932TIP3    H239432   0.873   4.893   2.103
 5933TIP3   OH239433   0.841   1.098   7.645
 5933TIP3    H139434   0.784   1.063   7.577
 5933TIP3    H239435   0.860   1.187   7.617
 5934TIP3   OH239436   4.061   2.857   1.054
 5934TIP3    H139437   4.128   2.828   1.116
 5934TIP3    H239438   4.016   2.777   1.027
 5935TIP3   OH239439   1.462   1.237   7.923
 5935TIP3    H139440   1.447   1.332   7.915
 5935TIP3    H239441   1.489   1.226   8.014
 5936TIP3   OH239442   5.184   4.792   7.273
 5936TIP3    H139443   5.102   4.746   7.292
 5936TIP3    H239444   5.204   4.769   7.183
 5937TIP3   OH239445   0.537   5.458   7.274
 5937TIP3    H139446   0.501   5.516   7.340
 5937TIP3    H239447   0.613   5.505   7.240
 5938TIP3   OH239448   2.706   3.268   1.059
 5938TIP3    H139449   2.737   3.178   1.043
 5938TIP3    H239450   2.747   3.320   0.990
 5939TIP3   OH239451   4.111   0.207   8.375
 5939TIP3    H139452   4.088   0.288   8.419
 5939TIP3    H239453   4.062   0.209   8.293
 5940TIP3   OH239454   2.762   1.791   8.095
 5940TIP3    H139455   2.849   1.802   8.056
 5940TIP3    H239456   2.751   1.696   8.102
 5941TIP3   OH239457   4.577   1.500   0.817
 5941TIP3    H139458   4.579   1.568   0.884
 5941TIP3    H239459   4.496   1.516   0.768
 5942TIP3   OH239460   4.874   6.202   0.809
 5942TIP3    H139461   4.948   6.255   0.782
 5942TIP3    H239462   4.904   6.111   0.797
 5943TIP3   OH239463   1.742   1.579   8.200
 5943TIP3    H139464   1.743   1.663   8.247
 5943TIP3    H239465   1.651   1.568   8.172
 5944TIP3   OH239466   1.742   2.434   7.744
 5944TIP3    H139467   1.808   2.416   7.677
 5944TIP3    H239468   1.662   2.452   7.694
 5945TIP3   OH239469   6.660   0.974   7.279
 5945TIP3    H139470   6.727   0.951   7.344
 5945TIP3    H239471   6.660   1.070   7.277
 5946TIP3   OH239472   1.875   4.619   7.142
 5946TIP3    H139473   1.786   4.638   7.173
 5946TIP3    H239474   1.929   4.689   7.180
 5947TIP3   OH239475   0.750   4.290   6.577
 5947TIP3    H139476   0.694   4.367   6.575
 5947TIP3    H239477   0.804   4.301   6.656
 5948TIP3   OH239478   5.703   6.136   8.983
 5948TIP3    H139479   5.700   6.044   9.011
 5948TIP3    H239480   5.760   6.135   8.907
 5949TIP3   OH239481   6.785   2.208   8.791
 5949TIP3    H139482   6.752   2.118   8.796
 5949TIP3    H239483   6.707   2.261   8.777
 5950TIP3   OH239484   5.865   5.007   7.877
 5950TIP3    H139485   5.907   5.041   7.798
 5950TIP3    H239486   5.863   4.913   7.865
 5951TIP3   OH239487   2.017   1.626   8.207
 5951TIP3    H139488   1.932   1.581   8.208
 5951TIP3    H239489   2.040   1.636   8.299
 5952TIP3   OH239490   1.170   4.164   6.971
 5952TIP3    H139491   1.236   4.139   7.036
 5952TIP3    H239492   1.110   4.221   7.019
 5953TIP3   OH239493   3.936   5.103   1.734
 5953TIP3    H139494   3.860   5.046   1.727
 5953TIP3    H239495   3.929   5.142   1.821
 5954TIP3   OH239496   2.528   5.620   6.541
 5954TIP3    H139497   2.484   5.562   6.479
 5954TIP3    H239498   2.544   5.700   6.492
 5955TIP3   OH239499   3.147   4.955   0.777
 5955TIP3    H139500   3.112   4.877   0.821
 5955TIP3    H239501   3.232   4.928   0.743
 5956TIP3   OH239502   3.967   5.269   1.949
 5956TIP3    H139503   4.047   5.243   1.994
 5956TIP3    H239504   3.908   5.298   2.020
 5957TIP3   OH239505   1.667   4.156   0.682
 5957TIP3    H139506   1.732   4.102   0.727
 5957TIP3    H239507   1.614   4.093   0.633
 5958TIP3   OH239508   3.407   5.497   8.127
 5958TIP3    H139509   3.323   5.452   8.125
 5958TIP3    H239510   3.417   5.528   8.217
 5959TIP3   OH239511   2.147   5.192   1.081
 5959TIP3    H139512   2.222   5.166   1.134
 5959TIP3    H239513   2.149   5.132   1.006
 5960TIP3   OH239514   6.143   2.565   1.502
 5960TIP3    H139515   6.074   2.566   1.568
 5960TIP3    H239516   6.097   2.580   1.419
 5961TIP3   OH239517   4.243   5.536   1.542
 5961TIP3    H139518   4.201   5.521   1.627
 5961TIP3    H239519   4.315   5.473   1.540
 5962TIP3   OH239520   5.388   6.657   7.356
 5962TIP3    H139521   5.382   6.562   7.363
 5962TIP3    H239522   5.443   6.672   7.279
 5963TIP3   OH239523   6.749   4.649   8.591
 5963TIP3    H139524   6.765   4.728   8.642
 5963TIP3    H239525   6.654   4.636   8.598
 5964TIP3   OH239526   3.629   4.740   1.459
 5964TIP3    H139527   3.706   4.686   1.477
 5964TIP3    H239528   3.646   4.822   1.506
 5965TIP3   OH239529   5.489   0.764   7.324
 5965TIP3    H139530   5.451   0.799   7.404
 5965TIP3    H239531   5.546   0.834   7.291
 5966TIP3   OH239532   2.688   3.191   8.850
 5966TIP3    H139533   2.701   3.277   8.889
 5966TIP3    H239534   2.762   3.138   8.881
 5967TIP3   OH239535   6.345   5.581   2.238
 5967TIP3    H139536   6.422   5.529   2.262
 5967TIP3    H239537   6.336   5.645   2.309
 5968TIP3   OH239538   0.609   0.265   8.960
 5968TIP3    H139539   0.637   0.174   8.972
 5968TIP3    H239540   0.642   0.310   9.038
 5969TIP3   OH239541   3.292   2.484   1.575
 5969TIP3    H139542   3.274   2.578   1.572
 5969TIP3    H239543   3.206   2.444   1.587
 5970TIP3   OH239544   2.002   3.786   2.352
 5970TIP3    H139545   2.090   3.775   2.388
 5970TIP3    H239546   2.016   3.821   2.264
 5971TIP3   OH239547   3.721   4.365   0.452
 5971TIP3    H139548   3.807   4.332   0.427
 5971TIP3    H239549   3.676   4.381   0.369
 5972TIP3   OH239550   2.848   2.411   2.376
 5972TIP3    H139551   2.831   2.319   2.395
 5972TIP3    H239552   2.767   2.443   2.336
 5973TIP3   OH239553   1.964   2.163   6.673
 5973TIP3    H139554   1.889   2.183   6.617
 5973TIP3    H239555   1.970   2.237   6.733
 5974TIP3   OH239556   6.209   4.035   7.841
 5974TIP3    H139557   6.272   4.004   7.776
 5974TIP3    H239558   6.213   3.969   7.911
 5975TIP3   OH239559   1.203   4.281   6.697
 5975TIP3    H139560   1.115   4.270   6.733
 5975TIP3    H239561   1.221   4.375   6.706
 5976TIP3   OH239562   4.775   5.544   7.256
 5976TIP3    H139563   4.836   5.602   7.300
 5976TIP3    H239564   4.827   5.466   7.234
 5977TIP3   OH239565   1.788   3.507   7.164
 5977TIP3    H139566   1.760   3.598   7.154
 5977TIP3    H239567   1.761   3.464   7.082
 5978TIP3   OH239568   1.947   0.729   0.660
 5978TIP3    H139569   1.979   0.662   0.721
 5978TIP3    H239570   1.876   0.772   0.708
 5979TIP3   OH239571   4.537   5.289   8.178
 5979TIP3    H139572   4.606   5.342   8.217
 5979TIP3    H239573   4.560   5.283   8.086
 5980TIP3   OH239574   5.639   4.090   1.406
 5980TIP3    H139575   5.649   4.013   1.350
 5980TIP3    H239576   5.716   4.089   1.463
 5981TIP3   OH239577   2.242   2.863   1.352
 5981TIP3    H139578   2.247   2.946   1.306
 5981TIP3    H239579   2.252   2.797   1.284
 5982TIP3   OH239580   0.388   5.359   7.829
 5982TIP3    H139581   0.467   5.356   7.774
 5982TIP3    H239582   0.406   5.299   7.901
 5983TIP3   OH239583   5.394   3.903   8.750
 5983TIP3    H139584   5.475   3.890   8.700
 5983TIP3    H239585   5.332   3.937   8.686
 5984TIP3   OH239586   4.809   5.315   1.663
 5984TIP3    H139587   4.787   5.357   1.746
 5984TIP3    H239588   4.804   5.221   1.681
 5985TIP3   OH239589   5.065   1.590   6.898
 5985TIP3    H139590   5.018   1.591   6.815
 5985TIP3    H239591   5.023   1.519   6.948
 5986TIP3   OH239592   2.706   1.278   1.548
 5986TIP3    H139593   2.759   1.354   1.574
 5986TIP3    H239594   2.718   1.271   1.454
 5987TIP3   OH239595   0.595   5.595   0.026
 5987TIP3    H139596   0.607   5.668  -0.035
 5987TIP3    H239597   0.676   5.593   0.077
 5988TIP3   OH239598   4.853   0.288   0.771
 5988TIP3    H139599   4.795   0.247   0.707
 5988TIP3    H239600   4.935   0.301   0.723
 5989TIP3   OH239601   2.457   2.448   8.767
 5989TIP3    H139602   2.471   2.538   8.737
 5989TIP3    H239603   2.523   2.434   8.834
 5990TIP3   OH239604   3.299   4.326   6.634
 5990TIP3    H139605   3.221   4.332   6.579
 5990TIP3    H239606   3.360   4.272   6.583
 5991TIP3   OH239607   4.302   6.420   8.433
 5991TIP3    H139608   4.231   6.458   8.485
 5991TIP3    H239609   4.382   6.443   8.482
 5992TIP3   OH239610   1.201   6.273   8.035
 5992TIP3    H139611   1.251   6.353   8.022
 5992TIP3    H239612   1.261   6.213   8.079
 5993TIP3   OH239613   1.607   6.677   6.808
 5993TIP3    H139614   1.556   6.643   6.735
 5993TIP3    H239615   1.689   6.706   6.768
 5994TIP3   OH239616   2.854   4.872   7.432
 5994TIP3    H139617   2.857   4.776   7.423
 5994TIP3    H239618   2.831   4.886   7.523
 5995TIP3   OH239619   2.183   0.615   6.349
 5995TIP3    H139620   2.098   0.601   6.307
 5995TIP3    H239621   2.185   0.709   6.368
 5996TIP3   OH239622   0.062   5.362   0.050
 5996TIP3    H139623   0.109   5.445   0.053
 5996TIP3    H239624   0.122   5.303   0.004
 5997TIP3   OH239625   2.909   6.107   7.398
 5997TIP3    H139626   2.832   6.073   7.445
 5997TIP3    H239627   2.963   6.030   7.382
 5998TIP3   OH239628   0.791   3.805   1.485
 5998TIP3    H139629   0.718   3.867   1.483
 5998TIP3    H239630   0.801   3.777   1.394
 5999TIP3   OH239631   5.512   2.470   2.013
 5999TIP3    H139632   5.474   2.489   2.099
 5999TIP3    H239633   5.597   2.431   2.033
 6000TIP3   OH239634   0.267   6.438   8.711
 6000TIP3    H139635   0.233   6.445   8.621
 6000TIP3    H239636   0.351   6.393   8.701
 6001TIP3   OH239637   2.471   6.071   6.039
 6001TIP3    H139638   2.422   6.034   6.112
 6001TIP3    H239639   2.518   6.146   6.077
 6002TIP3   OH239640   0.378   2.503   1.378
 6002TIP3    H139641   0.358   2.516   1.471
 6002TIP3    H239642   0.455   2.558   1.362
 6003TIP3   OH239643   2.890   6.470   8.911
 6003TIP3    H139644   2.912   6.497   8.821
 6003TIP3    H239645   2.867   6.378   8.903
 6004TIP3   OH239646   5.055   1.815   7.943
 6004TIP3    H139647   4.967   1.793   7.913
 6004TIP3    H239648   5.042   1.871   8.019
 6005TIP3   OH239649   0.151   4.858   0.926
 6005TIP3    H139650   0.100   4.841   1.005
 6005TIP3    H239651   0.143   4.953   0.912
 6006TIP3   OH239652   2.985   0.817   5.826
 6006TIP3    H139653   3.067   0.789   5.787
 6006TIP3    H239654   2.952   0.740   5.872
 6007TIP3   OH239655   0.362   5.392   0.101
 6007TIP3    H139656   0.365   5.488   0.097
 6007TIP3    H239657   0.347   5.365   0.011
 6008TIP3   OH239658   0.570   2.200   8.563
 6008TIP3    H139659   0.634   2.130   8.555
 6008TIP3    H239660   0.620   2.281   8.551
 6009TIP3   OH239661   1.676   5.345   7.798
 6009TIP3    H139662   1.644   5.258   7.773
 6009TIP3    H239663   1.598   5.399   7.804
 6010TIP3   OH239664   6.477   6.360   7.679
 6010TIP3    H139665   6.465   6.453   7.695
 6010TIP3    H239666   6.393   6.329   7.646
 6011TIP3   OH239667   3.732   2.244   0.728
 6011TIP3    H139668   3.749   2.169   0.672
 6011TIP3    H239669   3.818   2.274   0.756
 6012TIP3   OH239670   5.659   2.806   6.661
 6012TIP3    H139671   5.625   2.794   6.573
 6012TIP3    H239672   5.606   2.748   6.716
 6013TIP3   OH239673   2.393   2.274   7.640
 6013TIP3    H139674   2.437   2.245   7.561
 6013TIP3    H239675   2.423   2.213   7.708
 6014TIP3   OH239676   1.575   4.010   8.315
 6014TIP3    H139677   1.553   3.917   8.310
 6014TIP3    H239678   1.566   4.032   8.407
 6015TIP3   OH239679   0.832   5.963   0.920
 6015TIP3    H139680   0.791   5.980   0.835
 6015TIP3    H239681   0.906   6.024   0.924
 6016TIP3   OH239682   6.231   5.334   6.920
 6016TIP3    H139683   6.279   5.334   6.837
 6016TIP3    H239684   6.254   5.418   6.960
 6017TIP3   OH239685   3.228   3.027   7.892
 6017TIP3    H139686   3.226   3.112   7.847
 6017TIP3    H239687   3.203   2.964   7.824
 6018TIP3   OH239688   5.124   1.574   8.052
 6018TIP3    H139689   5.153   1.654   8.009
 6018TIP3    H239690   5.029   1.571   8.037
 6019TIP3   OH239691   3.659   1.981   1.618
 6019TIP3    H139692   3.711   1.959   1.540
 6019TIP3    H239693   3.677   1.911   1.680
 6020TIP3   OH239694   3.444   6.551   8.791
 6020TIP3    H139695   3.357   6.516   8.812
 6020TIP3    H239696   3.502   6.475   8.793
 6021TIP3   OH239697   1.716   6.005   7.221
 6021TIP3    H139698   1.766   6.073   7.175
 6021TIP3    H239699   1.652   5.976   7.157
 6022TIP3   OH239700   5.216   0.465   7.980
 6022TIP3    H139701   5.237   0.495   7.892
 6022TIP3    H239702   5.299   0.428   8.013
 6023TIP3   OH239703   1.523   1.401   6.631
 6023TIP3    H139704   1.442   1.451   6.639
 6023TIP3    H239705   1.499   1.311   6.651
 6024TIP3   OH239706   1.710   5.511   1.195
 6024TIP3    H139707   1.775   5.444   1.175
 6024TIP3    H239708   1.757   5.572   1.253
 6025TIP3   OH239709   5.918   1.439   1.288
 6025TIP3    H139710   5.906   1.451   1.382
 6025TIP3    H239711   5.931   1.345   1.278
 6026TIP3   OH239712   5.132   4.262   1.427
 6026TIP3    H139713   5.104   4.354   1.432
 6026TIP3    H239714   5.090   4.221   1.502
 6027TIP3   OH239715   5.357   3.226   0.595
 6027TIP3    H139716   5.357   3.153   0.658
 6027TIP3    H239717   5.448   3.253   0.590
 6028TIP3   OH239718   5.876   4.872   6.557
 6028TIP3    H139719   5.796   4.869   6.503
 6028TIP3    H239720   5.860   4.809   6.627
 6029TIP3   OH239721   3.208   3.794   1.235
 6029TIP3    H139722   3.279   3.755   1.285
 6029TIP3    H239723   3.129   3.752   1.268
 6030TIP3   OH239724   5.146   3.244   8.304
 6030TIP3    H139725   5.101   3.209   8.381
 6030TIP3    H239726   5.076   3.275   8.247
 6031TIP3   OH239727   2.118   1.479   7.031
 6031TIP3    H139728   2.109   1.523   6.946
 6031TIP3    H239729   2.031   1.489   7.071
 6032TIP3   OH239730   3.191   5.271   7.924
 6032TIP3    H139731   3.139   5.208   7.874
 6032TIP3    H239732   3.194   5.349   7.868
 6033TIP3   OH239733   3.160   0.583   0.013
 6033TIP3    H139734   3.113   0.601  -0.068
 6033TIP3    H239735   3.197   0.496   0.000
 6034TIP3   OH239736   4.624   5.634   0.370
 6034TIP3    H139737   4.653   5.719   0.403
 6034TIP3    H239738   4.559   5.605   0.433
 6035TIP3   OH239739   1.305   3.478   7.353
 6035TIP3    H139740   1.283   3.543   7.286
 6035TIP3    H239741   1.372   3.423   7.312
 6036TIP3   OH239742   6.366   2.706   0.073
 6036TIP3    H139743   6.328   2.792   0.090
 6036TIP3    H239744   6.320   2.647   0.133
 6037TIP3   OH239745   5.519   2.187   8.027
 6037TIP3    H139746   5.457   2.114   8.020
 6037TIP3    H239747   5.479   2.258   7.977
 6038TIP3   OH239748   1.955   6.591   1.165
 6038TIP3    H139749   1.896   6.517   1.154
 6038TIP3    H239750   2.035   6.554   1.202
 6039TIP3   OH239751   5.532   5.781   7.711
 6039TIP3    H139752   5.445   5.762   7.676
 6039TIP3    H239753   5.551   5.708   7.769
 6040TIP3   OH239754   1.968   0.522   6.671
 6040TIP3    H139755   2.009   0.466   6.605
 6040TIP3    H239756   1.888   0.553   6.629
 6041TIP3   OH239757   0.029   1.608   0.824
 6041TIP3    H139758  -0.062   1.582   0.808
 6041TIP3    H239759   0.027   1.657   0.906
 6042TIP3   OH239760   3.545   2.100   7.180
 6042TIP3    H139761   3.459   2.125   7.148
 6042TIP3    H239762   3.605   2.164   7.142
 6043TIP3   OH239763   2.886   4.673   1.342
 6043TIP3    H139764   2.840   4.748   1.305
 6043TIP3    H239765   2.931   4.708   1.419
 6044TIP3   OH239766   1.314   3.311   1.590
 6044TIP3    H139767   1.324   3.391   1.538
 6044TIP3    H239768   1.404   3.289   1.618
 6045TIP3   OH239769   2.032   0.130   7.008
 6045TIP3    H139770   2.113   0.157   7.050
 6045TIP3    H239771   1.994   0.066   7.067
 6046TIP3   OH239772   3.259   5.863   0.359
 6046TIP3    H139773   3.178   5.839   0.316
 6046TIP3    H239774   3.280   5.950   0.325
 6047TIP3   OH239775   2.569   4.798   6.510
 6047TIP3    H139776   2.477   4.817   6.492
 6047TIP3    H239777   2.615   4.880   6.492
 6048TIP3   OH239778   0.341   0.804   8.178
 6048TIP3    H139779   0.409   0.738   8.193
 6048TIP3    H239780   0.389   0.884   8.157
 6049TIP3   OH239781   3.865   4.377   0.830
 6049TIP3    H139782   3.883   4.289   0.865
 6049TIP3    H239783   3.799   4.413   0.890
 6050TIP3   OH239784   1.544   2.665   7.651
 6050TIP3    H139785   1.611   2.719   7.693
 6050TIP3    H239786   1.574   2.657   7.560
 6051TIP3   OH239787   3.586   0.172   7.303
 6051TIP3    H139788   3.525   0.110   7.341
 6051TIP3    H239789   3.537   0.215   7.233
 6052TIP3   OH239790   1.773   3.734   7.813
 6052TIP3    H139791   1.736   3.809   7.860
 6052TIP3    H239792   1.739   3.657   7.860
 6053TIP3   OH239793   0.131   0.667   0.652
 6053TIP3    H139794   0.135   0.763   0.649
 6053TIP3    H239795   0.146   0.646   0.744
 6054TIP3   OH239796   5.389   3.130   7.922
 6054TIP3    H139797   5.413   3.061   7.984
 6054TIP3    H239798   5.370   3.206   7.977
 6055TIP3   OH239799   4.658   5.596   0.704
 6055TIP3    H139800   4.573   5.569   0.667
 6055TIP3    H239801   4.668   5.687   0.677
 6056TIP3   OH239802   5.095   0.513   8.367
 6056TIP3    H139803   5.030   0.571   8.326
 6056TIP3    H239804   5.049   0.475   8.441
 6057TIP3   OH239805   6.466   1.627   0.497
 6057TIP3    H139806   6.386   1.576   0.482
 6057TIP3    H239807   6.513   1.623   0.414
 6058TIP3   OH239808   4.878   2.565   7.361
 6058TIP3    H139809   4.966   2.602   7.351
 6058TIP3    H239810   4.885   2.505   7.435
 6059TIP3   OH239811   0.788   4.596   2.063
 6059TIP3    H139812   0.852   4.596   2.134
 6059TIP3    H239813   0.833   4.637   1.990
 6060TIP3   OH239814   3.134   1.241   8.755
 6060TIP3    H139815   3.156   1.285   8.673
 6060TIP3    H239816   3.141   1.309   8.822
 6061TIP3   OH239817   3.070   6.216   8.924
 6061TIP3    H139818   3.142   6.156   8.942
 6061TIP3    H239819   3.108   6.303   8.933
 6062TIP3   OH239820   1.285   4.582   7.284
 6062TIP3    H139821   1.320   4.524   7.352
 6062TIP3    H239822   1.195   4.554   7.273
 6063TIP3   OH239823   4.964   6.687   8.145
 6063TIP3    H139824   4.979   6.774   8.107
 6063TIP3    H239825   4.886   6.655   8.101
 6064TIP3   OH239826   3.036   2.806   8.063
 6064TIP3    H139827   3.066   2.895   8.043
 6064TIP3    H239828   3.041   2.759   7.980
 6065TIP3   OH239829   0.988   5.406   1.911
 6065TIP3    H139830   1.019   5.425   2.000
 6065TIP3    H239831   0.938   5.484   1.887
 6066TIP3   OH239832   2.157   4.103   7.934
 6066TIP3    H139833   2.223   4.041   7.965
 6066TIP3    H239834   2.074   4.059   7.952
 6067TIP3   OH239835   2.887   2.236   1.431
 6067TIP3    H139836   2.912   2.164   1.373
 6067TIP3    H239837   2.840   2.193   1.503
 6068TIP3   OH239838   6.064   4.295   8.530
 6068TIP3    H139839   5.993   4.360   8.529
 6068TIP3    H239840   6.027   4.219   8.484
 6069TIP3   OH239841   0.959   0.083   8.973
 6069TIP3    H139842   0.876   0.077   9.020
 6069TIP3    H239843   1.011   0.011   9.007
 6070TIP3   OH239844   0.134   3.205   0.504
 6070TIP3    H139845   0.196   3.245   0.443
 6070TIP3    H239846   0.049   3.215   0.461
 6071TIP3   OH239847   5.163   4.511   8.021
 6071TIP3    H139848   5.208   4.503   8.105
 6071TIP3    H239849   5.075   4.479   8.038
 6072TIP3   OH239850   1.805   1.162   7.920
 6072TIP3    H139851   1.741   1.218   7.876
 6072TIP3    H239852   1.757   1.083   7.943
 6073TIP3   OH239853   0.041   6.236   1.332
 6073TIP3    H139854   0.081   6.322   1.325
 6073TIP3    H239855   0.086   6.183   1.266
 6074TIP3   OH239856   0.663   6.070   0.030
 6074TIP3    H139857   0.569   6.077   0.012
 6074TIP3    H239858   0.672   6.107   0.118
 6075TIP3   OH239859   5.411   6.436   7.661
 6075TIP3    H139860   5.431   6.452   7.569
 6075TIP3    H239861   5.478   6.485   7.709
 6076TIP3   OH239862   5.411   5.630   1.772
 6076TIP3    H139863   5.433   5.723   1.773
 6076TIP3    H239864   5.494   5.585   1.788
 6077TIP3   OH239865   2.439   4.113   1.645
 6077TIP3    H139866   2.418   4.156   1.562
 6077TIP3    H239867   2.468   4.184   1.702
 6078TIP3   OH239868   4.214   0.433   1.407
 6078TIP3    H139869   4.299   0.470   1.431
 6078TIP3    H239870   4.235   0.362   1.347
 6079TIP3   OH239871   3.092   3.697   8.530
 6079TIP3    H139872   3.186   3.678   8.534
 6079TIP3    H239873   3.053   3.615   8.500
 6080TIP3   OH239874   4.303   6.041   6.430
 6080TIP3    H139875   4.283   5.993   6.350
 6080TIP3    H239876   4.243   6.004   6.496
 6081TIP3   OH239877   3.173   6.728   8.670
 6081TIP3    H139878   3.222   6.809   8.661
 6081TIP3    H239879   3.237   6.659   8.655
 6082TIP3   OH239880   0.012   1.838   1.032
 6082TIP3    H139881   0.100   1.872   1.019
 6082TIP3    H239882  -0.044   1.896   0.980
 6083TIP3   OH239883   6.084   4.441   8.852
 6083TIP3    H139884   6.098   4.349   8.875
 6083TIP3    H239885   6.164   4.465   8.804
 6084TIP3   OH239886   0.989   0.715   1.294
 6084TIP3    H139887   0.934   0.738   1.369
 6084TIP3    H239888   1.067   0.770   1.303
 6085TIP3   OH239889   0.455   1.477   1.314
 6085TIP3    H139890   0.382   1.466   1.375
 6085TIP3    H239891   0.524   1.519   1.367
 6086TIP3   OH239892   4.398   0.273   0.852
 6086TIP3    H139893   4.436   0.258   0.939
 6086TIP3    H239894   4.304   0.276   0.866
 6087TIP3   OH239895   6.760   3.902   1.527
 6087TIP3    H139896   6.724   3.937   1.445
 6087TIP3    H239897   6.757   3.976   1.587
 6088TIP3   OH239898   3.648   0.823   0.335
 6088TIP3    H139899   3.733   0.780   0.346
 6088TIP3    H239900   3.627   0.858   0.422
 6089TIP3   OH239901   1.884   0.405   0.357
 6089TIP3    H139902   1.883   0.499   0.344
 6089TIP3    H239903   1.815   0.390   0.423
 6090TIP3   OH239904   0.305   4.658   8.810
 6090TIP3    H139905   0.390   4.616   8.825
 6090TIP3    H239906   0.308   4.685   8.718
 6091TIP3   OH239907   0.789   2.727   8.696
 6091TIP3    H139908   0.694   2.732   8.684
 6091TIP3    H239909   0.823   2.713   8.608
 6092TIP3   OH239910   5.672   0.666   8.254
 6092TIP3    H139911   5.735   0.616   8.306
 6092TIP3    H239912   5.675   0.625   8.167
 6093TIP3   OH239913   6.190   0.700   1.804
 6093TIP3    H139914   6.196   0.642   1.880
 6093TIP3    H239915   6.106   0.743   1.813
 6094TIP3   OH239916   3.310   5.595   6.634
 6094TIP3    H139917   3.303   5.504   6.661
 6094TIP3    H239918   3.224   5.617   6.599
 6095TIP3   OH239919   3.718   5.586   0.541
 6095TIP3    H139920   3.673   5.603   0.624
 6095TIP3    H239921   3.681   5.650   0.480
 6096TIP3   OH239922   2.713   4.116   1.336
 6096TIP3    H139923   2.652   4.189   1.344
 6096TIP3    H239924   2.693   4.059   1.410
 6097TIP3   OH239925   6.307   1.584   7.813
 6097TIP3    H139926   6.250   1.570   7.888
 6097TIP3    H239927   6.328   1.677   7.815
 6098TIP3   OH239928   3.073   6.475   8.012
 6098TIP3    H139929   3.033   6.428   7.939
 6098TIP3    H239930   3.167   6.460   8.001
 6099TIP3   OH239931   3.540   5.277   0.459
 6099TIP3    H139932   3.569   5.227   0.383
 6099TIP3    H239933   3.445   5.263   0.462
 6100TIP3   OH239934   5.633   0.816   0.596
 6100TIP3    H139935   5.597   0.733   0.565
 6100TIP3    H239936   5.558   0.864   0.630
 6101TIP3   OH239937   6.688   2.101   0.187
 6101TIP3    H139938   6.699   2.175   0.248
 6101TIP3    H239939   6.757   2.113   0.122
 6102TIP3   OH239940   4.272   5.935   0.978
 6102TIP3    H139941   4.192   5.897   0.940
 6102TIP3    H239942   4.240   5.984   1.054
 6103TIP3   OH239943   3.747   5.259   1.202
 6103TIP3    H139944   3.754   5.255   1.298
 6103TIP3    H239945   3.821   5.207   1.171
 6104TIP3   OH239946   6.532   3.586   0.988
 6104TIP3    H139947   6.453   3.557   0.942
 6104TIP3    H239948   6.604   3.548   0.938
 6105TIP3   OH239949   1.263   6.513   1.095
 6105TIP3    H139950   1.206   6.448   1.136
 6105TIP3    H239951   1.204   6.586   1.075
 6106TIP3   OH239952   4.043   4.246   7.545
 6106TIP3    H139953   3.978   4.274   7.609
 6106TIP3    H239954   4.006   4.166   7.507
 6107TIP3   OH239955   1.857   1.764   7.908
 6107TIP3    H139956   1.898   1.829   7.852
 6107TIP3    H239957   1.842   1.809   7.991
 6108TIP3   OH239958   5.246   6.735   1.416
 6108TIP3    H139959   5.322   6.712   1.469
 6108TIP3    H239960   5.263   6.695   1.330
 6109TIP3   OH239961   6.395   4.541   7.543
 6109TIP3    H139962   6.433   4.454   7.535
 6109TIP3    H239963   6.301   4.527   7.538
 6110TIP3   OH239964   1.986   3.992   2.122
 6110TIP3    H139965   1.942   4.060   2.173
 6110TIP3    H239966   2.076   4.021   2.115
 6111TIP3   OH239967   2.809   0.849   7.955
 6111TIP3    H139968   2.758   0.810   8.027
 6111TIP3    H239969   2.776   0.938   7.948
 6112TIP3   OH239970   5.724   6.598   1.453
 6112TIP3    H139971   5.727   6.646   1.536
 6112TIP3    H239972   5.814   6.599   1.421
 6113TIP3   OH239973   5.424   5.310   0.137
 6113TIP3    H139974   5.398   5.328   0.227
 6113TIP3    H239975   5.372   5.233   0.112
 6114TIP3   OH239976   0.937   4.887   8.006
 6114TIP3    H139977   0.868   4.926   8.060
 6114TIP3    H239978   0.987   4.832   8.066
 6115TIP3   OH239979   4.298   0.497   0.312
 6115TIP3    H139980   4.295   0.586   0.347
 6115TIP3    H239981   4.345   0.507   0.229
 6116TIP3   OH239982   2.429   4.913   0.283
 6116TIP3    H139983   2.383   4.973   0.223
 6116TIP3    H239984   2.492   4.867   0.227
 6117TIP3   OH239985   0.090   4.713   0.450
 6117TIP3    H139986   0.133   4.789   0.489
 6117TIP3    H239987   0.013   4.698   0.505
 6118TIP3   OH239988   4.078   1.690   1.582
 6118TIP3    H139989   4.090   1.775   1.541
 6118TIP3    H239990   4.141   1.633   1.539
 6119TIP3   OH239991   3.089   6.315   1.448
 6119TIP3    H139992   3.040   6.333   1.528
 6119TIP3    H239993   3.179   6.299   1.478
 6120TIP3   OH239994   6.545   4.699   0.225
 6120TIP3    H139995   6.639   4.714   0.214
 6120TIP3    H239996   6.517   4.656   0.144
 6121TIP3   OH239997   0.461   6.567   7.403
 6121TIP3    H139998   0.529   6.555   7.469
 6121TIP3    H239999   0.380   6.579   7.453
 6122TIP3   OH240000   0.866   1.445   8.259
 6122TIP3    H140001   0.820   1.476   8.337
 6122TIP3    H240002   0.927   1.516   8.238
 6123TIP3   OH240003   2.366   1.815   6.599
 6123TIP3    H140004   2.451   1.786   6.631
 6123TIP3    H240005   2.383   1.847   6.510
 6124TIP3   OH240006   3.552   2.468   1.597
 6124TIP3    H140007   3.555   2.394   1.658
 6124TIP3    H240008   3.459   2.481   1.580
 6125TIP3   OH240009   1.402   2.644   7.115
 6125TIP3    H140010   1.494   2.660   7.098
 6125TIP3    H240011   1.401   2.566   7.171
 6126TIP3   OH240012   5.542   3.079   0.350
 6126TIP3    H140013   5.614   3.017   0.336
 6126TIP3    H240014   5.582   3.165   0.339
 6127TIP3   OH240015   0.924   6.432   8.503
 6127TIP3    H140016   0.980   6.451   8.428
 6127TIP3    H240017   0.840   6.408   8.465
 6128TIP3   OH240018   0.317   0.829   1.880
 6128TIP3    H140019   0.246   0.861   1.824
 6128TIP3    H240020   0.338   0.742   1.846
 6129TIP3   OH240021   0.477   1.138   0.869
 6129TIP3    H140022   0.437   1.220   0.838
 6129TIP3    H240023   0.479   1.147   0.964
 6130TIP3   OH240024   6.320   0.225   8.150
 6130TIP3    H140025   6.411   0.198   8.162
 6130TIP3    H240026   6.278   0.205   8.234
 6131TIP3   OH240027   3.218   4.249   7.222
 6131TIP3    H140028   3.280   4.272   7.290
 6131TIP3    H240029   3.272   4.235   7.144
 6132TIP3   OH240030   0.802   0.153   6.737
 6132TIP3    H140031   0.862   0.219   6.702
 6132TIP3    H240032   0.843   0.070   6.715
 6133TIP3   OH240033   5.151   5.893   1.903
 6133TIP3    H140034   5.173   5.945   1.981
 6133TIP3    H240035   5.233   5.888   1.855
 6134TIP3   OH240036   5.165   2.178   1.422
 6134TIP3    H140037   5.237   2.120   1.397
 6134TIP3    H240038   5.185   2.202   1.513
 6135TIP3   OH240039   2.237   1.031   2.120
 6135TIP3    H140040   2.152   1.068   2.096
 6135TIP3    H240041   2.215   0.949   2.163
 6136TIP3   OH240042   0.818   0.115   8.719
 6136TIP3    H140043   0.848   0.119   8.810
 6136TIP3    H240044   0.865   0.041   8.681
 6137TIP3   OH240045   1.908   2.532   8.024
 6137TIP3    H140046   1.925   2.618   8.062
 6137TIP3    H240047   1.938   2.539   7.933
 6138TIP3   OH240048   1.163   4.592   8.407
 6138TIP3    H140049   1.139   4.515   8.458
 6138TIP3    H240050   1.215   4.557   8.334
 6139TIP3   OH240051   3.172   4.055   1.175
 6139TIP3    H140052   3.158   3.962   1.194
 6139TIP3    H240053   3.086   4.089   1.153
 6140TIP3   OH240054   0.980   2.666   8.905
 6140TIP3    H140055   0.903   2.665   8.848
 6140TIP3    H240056   1.029   2.587   8.881
 6141TIP3   OH240057   4.871   1.337   2.210
 6141TIP3    H140058   4.821   1.410   2.247
 6141TIP3    H240059   4.945   1.325   2.270
 6142TIP3   OH240060   4.002   3.267   1.428
 6142TIP3    H140061   4.017   3.361   1.437
 6142TIP3    H240062   3.997   3.235   1.518
 6143TIP3   OH240063   5.837   6.145   8.719
 6143TIP3    H140064   5.800   6.195   8.646
 6143TIP3    H240065   5.905   6.202   8.755
 6144TIP3   OH240066   3.339   0.789   6.232
 6144TIP3    H140067   3.338   0.707   6.281
 6144TIP3    H240068   3.256   0.790   6.184
 6145TIP3   OH240069   3.002   1.997   7.337
 6145TIP3    H140070   2.947   1.919   7.340
 6145TIP3    H240071   3.090   1.964   7.324
 6146TIP3   OH240072   6.030   5.782   1.479
 6146TIP3    H140073   6.111   5.762   1.430
 6146TIP3    H240074   6.061   5.824   1.559
 6147TIP3   OH240075   6.688   2.782   2.363
 6147TIP3    H140076   6.763   2.841   2.353
 6147TIP3    H240077   6.727   2.694   2.367
 6148TIP3   OH240078   3.243   0.758   0.508
 6148TIP3    H140079   3.157   0.747   0.466
 6148TIP3    H240080   3.300   0.790   0.438
 6149TIP3   OH240081   2.886   0.524   1.769
 6149TIP3    H140082   2.892   0.455   1.835
 6149TIP3    H240083   2.931   0.599   1.808
 6150TIP3   OH240084   3.083   3.961   7.132
 6150TIP3    H140085   2.997   3.980   7.094
 6150TIP3    H240086   3.076   3.871   7.163
 6151TIP3   OH240087   4.162   5.687   0.138
 6151TIP3    H140088   4.102   5.644   0.077
 6151TIP3    H240089   4.172   5.776   0.102
 6152TIP3   OH240090   0.541   5.786   7.923
 6152TIP3    H140091   0.609   5.736   7.969
 6152TIP3    H240092   0.587   5.825   7.849
 6153TIP3   OH240093   1.399   5.116   8.463
 6153TIP3    H140094   1.335   5.052   8.493
 6153TIP3    H240095   1.356   5.162   8.391
 6154TIP3   OH240096   0.991   5.258   7.778
 6154TIP3    H140097   1.082   5.260   7.749
 6154TIP3    H240098   0.975   5.166   7.800
 6155TIP3   OH240099   3.142   2.528   7.349
 6155TIP3    H140100   3.193   2.591   7.299
 6155TIP3    H240101   3.147   2.559   7.440
 6156TIP3   OH240102   4.526   4.686   2.460
 6156TIP3    H140103   4.575   4.607   2.482
 6156TIP3    H240104   4.540   4.698   2.366
 6157TIP3   OH240105   3.613   5.530   6.878
 6157TIP3    H140106   3.574   5.469   6.816
 6157TIP3    H240107   3.541   5.589   6.902
 6158TIP3   OH240108   1.052   2.550   1.394
 6158TIP3    H140109   1.093   2.470   1.425
 6158TIP3    H240110   1.005   2.585   1.470
 6159TIP3   OH240111   4.958   2.135   7.354
 6159TIP3    H140112   5.045   2.169   7.334
 6159TIP3    H240113   4.933   2.087   7.275
 6160TIP3   OH240114   5.865   0.842   8.495
 6160TIP3    H140115   5.875   0.747   8.504
 6160TIP3    H240116   5.954   0.874   8.481
 6161TIP3   OH240117   2.724   4.207   0.608
 6161TIP3    H140118   2.770   4.141   0.556
 6161TIP3    H240119   2.782   4.224   0.682
 6162TIP3   OH240120   5.467   6.666   0.852
 6162TIP3    H140121   5.503   6.592   0.900
 6162TIP3    H240122   5.408   6.709   0.914
 6163TIP3   OH240123   4.761   4.569   8.633
 6163TIP3    H140124   4.680   4.611   8.604
 6163TIP3    H240125   4.733   4.486   8.671
 6164TIP3   OH240126   0.931   5.004   0.044
 6164TIP3    H140127   0.961   4.962   0.125
 6164TIP3    H240128   0.973   4.954  -0.026
 6165TIP3   OH240129   2.577   1.169   2.383
 6165TIP3    H140130   2.507   1.194   2.322
 6165TIP3    H240131   2.614   1.089   2.345
 6166TIP3   OH240132   2.814   1.780   1.683
 6166TIP3    H140133   2.777   1.837   1.750
 6166TIP3    H240134   2.743   1.770   1.619
 6167TIP3   OH240135   2.555   1.779   0.282
 6167TIP3    H140136   2.508   1.747   0.205
 6167TIP3    H240137   2.600   1.702   0.316
 6168TIP3   OH240138   0.592   4.942   1.684
 6168TIP3    H140139   0.658   4.923   1.751
 6168TIP3    H240140   0.593   5.037   1.676
 6169TIP3   OH240141   5.647   1.215   7.848
 6169TIP3    H140142   5.596   1.231   7.927
 6169TIP3    H240143   5.737   1.233   7.873
 6170TIP3   OH240144   3.371   6.716   1.208
 6170TIP3    H140145   3.405   6.646   1.152
 6170TIP3    H240146   3.440   6.730   1.273
 6171TIP3   OH240147   5.475   6.556   8.902
 6171TIP3    H140148   5.514   6.603   8.828
 6171TIP3    H240149   5.551   6.522   8.951
 6172TIP3   OH240150   5.349   1.821   7.459
 6172TIP3    H140151   5.402   1.795   7.534
 6172TIP3    H240152   5.315   1.908   7.482
 6173TIP3   OH240153   1.742   5.700   6.520
 6173TIP3    H140154   1.666   5.683   6.464
 6173TIP3    H240155   1.795   5.621   6.515
 6174TIP3   OH240156   2.626   3.779   0.834
 6174TIP3    H140157   2.624   3.875   0.828
 6174TIP3    H240158   2.580   3.749   0.755
 6175TIP3   OH240159   5.828   1.985   7.196
 6175TIP3    H140160   5.796   1.970   7.107
 6175TIP3    H240161   5.755   1.961   7.253
 6176TIP3   OH240162   2.676   2.314   7.216
 6176TIP3    H140163   2.685   2.305   7.121
 6176TIP3    H240164   2.762   2.342   7.246
 6177TIP3   OH240165   2.056   3.556   6.615
 6177TIP3    H140166   2.142   3.582   6.648
 6177TIP3    H240167   2.060   3.571   6.521
 6178TIP3   OH240168   1.470   2.222   8.362
 6178TIP3    H140169   1.477   2.303   8.310
 6178TIP3    H240170   1.435   2.251   8.446
 6179TIP3   OH240171   2.232   6.658   7.741
 6179TIP3    H140172   2.299   6.601   7.779
 6179TIP3    H240173   2.199   6.709   7.814
 6180TIP3   OH240174   6.347   6.630   8.832
 6180TIP3    H140175   6.349   6.616   8.738
 6180TIP3    H240176   6.420   6.690   8.849
 6181TIP3   OH240177   1.832   5.178   0.209
 6181TIP3    H140178   1.777   5.172   0.131
 6181TIP3    H240179   1.781   5.135   0.278
 6182TIP3   OH240180   4.136   2.181   6.387
 6182TIP3    H140181   4.069   2.139   6.443
 6182TIP3    H240182   4.144   2.122   6.312
 6183TIP3   OH240183   2.144   0.070   6.373
 6183TIP3    H140184   2.173   0.020   6.450
 6183TIP3    H240185   2.056   0.038   6.354
 6184TIP3   OH240186   0.442   5.908   2.723
 6184TIP3    H140187   0.427   5.987   2.671
 6184TIP3    H240188   0.498   5.853   2.668
 6185TIP3   OH240189   0.221   1.069   0.308
 6185TIP3    H140190   0.184   1.152   0.279
 6185TIP3    H240191   0.271   1.090   0.386
 6186TIP3   OH240192   4.140   5.593   2.430
 6186TIP3    H140193   4.209   5.561   2.372
 6186TIP3    H240194   4.183   5.660   2.484
 6187TIP3   OH240195   3.887   5.545   2.370
 6187TIP3    H140196   3.845   5.601   2.436
 6187TIP3    H240197   3.977   5.535   2.402
 6188TIP3   OH240198   5.951   3.410   2.204
 6188TIP3    H140199   6.041   3.382   2.219
 6188TIP3    H240200   5.951   3.504   2.222
 6189TIP3   OH240201   2.948   2.962   1.394
 6189TIP3    H140202   2.995   2.999   1.468
 6189TIP3    H240203   2.957   3.028   1.325
 6190TIP3   OH240204   1.952   0.532   8.694
 6190TIP3    H140205   1.953   0.627   8.679
 6190TIP3    H240206   1.993   0.521   8.779
 6191TIP3   OH240207   3.195   1.775   0.324
 6191TIP3    H140208   3.227   1.834   0.393
 6191TIP3    H240209   3.238   1.805   0.244
 6192TIP3   OH240210   4.324   1.601   7.237
 6192TIP3    H140211   4.341   1.672   7.299
 6192TIP3    H240212   4.301   1.645   7.155
 6193TIP3   OH240213   4.494   4.165   1.308
 6193TIP3    H140214   4.536   4.216   1.239
 6193TIP3    H240215   4.417   4.216   1.332
 6194TIP3   OH240216   3.305   1.494   0.612
 6194TIP3    H140217   3.349   1.411   0.632
 6194TIP3    H240218   3.376   1.558   0.610
 6195TIP3   OH240219   3.670   2.791   8.062
 6195TIP3    H140220   3.761   2.797   8.092
 6195TIP3    H240221   3.645   2.882   8.044
 6196TIP3   OH240222   5.825   1.231   8.483
 6196TIP3    H140223   5.894   1.276   8.433
 6196TIP3    H240224   5.749   1.232   8.425
 6197TIP3   OH240225   5.855   0.728   0.790
 6197TIP3    H140226   5.899   0.659   0.740
 6197TIP3    H240227   5.849   0.693   0.879
 6198TIP3   OH240228   3.397   0.031   8.139
 6198TIP3    H140229   3.430   0.059   8.224
 6198TIP3    H240230   3.418  -0.062   8.134
 6199TIP3   OH240231   6.086   4.703   1.944
 6199TIP3    H140232   6.146   4.771   1.914
 6199TIP3    H240233   6.141   4.642   1.993
 6200TIP3   OH240234   0.959   6.494   8.062
 6200TIP3    H140235   0.989   6.439   8.134
 6200TIP3    H240236   0.897   6.440   8.014
 6201TIP3   OH240237   1.351   4.571   8.693
 6201TIP3    H140238   1.440   4.605   8.705
 6201TIP3    H240239   1.358   4.513   8.617
 6202TIP3   OH240240   0.687   1.948   8.515
 6202TIP3    H140241   0.677   1.921   8.606
 6202TIP3    H240242   0.631   1.888   8.466
 6203TIP3   OH240243   4.817   0.325   1.030
 6203TIP3    H140244   4.837   0.309   0.938
 6203TIP3    H240245   4.767   0.406   1.030
 6204TIP3   OH240246   6.094   0.014   2.134
 6204TIP3    H140247   6.023  -0.036   2.176
 6204TIP3    H240248   6.173  -0.014   2.180
 6205TIP3   OH240249   1.546   2.843   0.851
 6205TIP3    H140250   1.624   2.803   0.891
 6205TIP3    H240251   1.534   2.796   0.769
 6206TIP3   OH240252   3.750   5.174   7.444
 6206TIP3    H140253   3.662   5.208   7.459
 6206TIP3    H240254   3.782   5.219   7.366
 6207TIP3   OH240255   5.278   4.051   7.742
 6207TIP3    H140256   5.317   4.100   7.814
 6207TIP3    H240257   5.192   4.026   7.775
 6208TIP3   OH240258   4.643   3.682   8.497
 6208TIP3    H140259   4.735   3.689   8.471
 6208TIP3    H240260   4.638   3.727   8.581
 6209TIP3   OH240261   4.627   5.919   7.160
 6209TIP3    H140262   4.584   5.861   7.098
 6209TIP3    H240263   4.561   5.986   7.180
 6210TIP3   OH240264   5.614   1.550   0.214
 6210TIP3    H140265   5.619   1.487   0.286
 6210TIP3    H240266   5.578   1.500   0.141
 6211TIP3   OH240267   1.202   0.661   8.861
 6211TIP3    H140268   1.188   0.755   8.845
 6211TIP3    H240269   1.117   0.621   8.848
 6212TIP3   OH240270   2.368   1.572   2.208
 6212TIP3    H140271   2.450   1.598   2.250
 6212TIP3    H240272   2.382   1.592   2.115
 6213TIP3   OH240273   1.399   3.010   8.471
 6213TIP3    H140274   1.336   2.994   8.400
 6213TIP3    H240275   1.454   3.081   8.438
 6214TIP3   OH240276   6.257   6.748   6.970
 6214TIP3    H140277   6.342   6.709   6.951
 6214TIP3    H240278   6.247   6.740   7.065
 6215TIP3   OH240279   6.634   2.000   0.915
 6215TIP3    H140280   6.627   2.093   0.892
 6215TIP3    H240281   6.607   1.954   0.836
 6216TIP3   OH240282   0.627   3.430   1.906
 6216TIP3    H140283   0.639   3.424   2.001
 6216TIP3    H240284   0.711   3.465   1.874
 6217TIP3   OH240285   0.846   0.119   7.384
 6217TIP3    H140286   0.784   0.160   7.325
 6217TIP3    H240287   0.925   0.173   7.378
 6218TIP3   OH240288   2.697   5.636   7.748
 6218TIP3    H140289   2.639   5.615   7.675
 6218TIP3    H240290   2.763   5.566   7.746
 6219TIP3   OH240291   2.481   4.979   8.203
 6219TIP3    H140292   2.460   5.002   8.112
 6219TIP3    H240293   2.577   4.981   8.206
 6220TIP3   OH240294   2.604   3.426   8.206
 6220TIP3    H140295   2.654   3.396   8.130
 6220TIP3    H240296   2.666   3.479   8.256
 6221TIP3   OH240297   3.893   1.474   0.580
 6221TIP3    H140298   3.827   1.506   0.519
 6221TIP3    H240299   3.856   1.393   0.615
 6222TIP3   OH240300   4.690   4.618   1.741
 6222TIP3    H140301   4.693   4.657   1.828
 6222TIP3    H240302   4.719   4.528   1.754
 6223TIP3   OH240303   6.742   5.562   7.319
 6223TIP3    H140304   6.836   5.575   7.304
 6223TIP3    H240305   6.702   5.573   7.233
 6224TIP3   OH240306   0.616   0.842   8.809
 6224TIP3    H140307   0.657   0.766   8.850
 6224TIP3    H240308   0.598   0.814   8.719
 6225TIP3   OH240309   4.914   0.785   8.719
 6225TIP3    H140310   4.858   0.710   8.698
 6225TIP3    H240311   4.992   0.772   8.666
 6226TIP3   OH240312   4.960   5.452   1.474
 6226TIP3    H140313   4.924   5.419   1.556
 6226TIP3    H240314   5.043   5.493   1.498
 6227TIP3   OH240315   3.310   4.618   7.096
 6227TIP3    H140316   3.288   4.703   7.133
 6227TIP3    H240317   3.266   4.617   7.011
 6228TIP3   OH240318   6.014   1.170   1.351
 6228TIP3    H140319   6.006   1.090   1.404
 6228TIP3    H240320   6.024   1.139   1.261
 6229TIP3   OH240321   4.589   6.331   1.548
 6229TIP3    H140322   4.591   6.245   1.591
 6229TIP3    H240323   4.533   6.317   1.471
 6230TIP3   OH240324   4.460   2.904   0.387
 6230TIP3    H140325   4.491   2.907   0.296
 6230TIP3    H240326   4.429   2.993   0.404
 6231TIP3   OH240327   0.231   0.021   0.799
 6231TIP3    H140328   0.194   0.093   0.748
 6231TIP3    H240329   0.315   0.003   0.758
 6232TIP3   OH240330   2.285   2.428   7.991
 6232TIP3    H140331   2.268   2.516   8.025
 6232TIP3    H240332   2.331   2.383   8.061
 6233TIP3   OH240333   4.746   1.458   0.316
 6233TIP3    H140334   4.678   1.478   0.251
 6233TIP3    H240335   4.746   1.534   0.374
 6234TIP3   OH240336   5.688   3.203   7.802
 6234TIP3    H140337   5.616   3.239   7.750
 6234TIP3    H240338   5.753   3.175   7.737
 6235TIP3   OH240339   0.282   5.040   7.134
 6235TIP3    H140340   0.345   5.066   7.067
 6235TIP3    H240341   0.306   4.950   7.156
 6236TIP3   OH240342   3.868   3.989   8.429
 6236TIP3    H140343   3.801   3.952   8.372
 6236TIP3    H240344   3.820   4.045   8.490
 6237TIP3   OH240345   4.475   5.946   8.660
 6237TIP3    H140346   4.407   5.968   8.723
 6237TIP3    H240347   4.486   6.024   8.607
 6238TIP3   OH240348   0.135   2.170   6.802
 6238TIP3    H140349   0.095   2.237   6.747
 6238TIP3    H240350   0.223   2.201   6.820
 6239TIP3   OH240351   5.660   2.509   0.671
 6239TIP3    H140352   5.690   2.441   0.730
 6239TIP3    H240353   5.597   2.465   0.614
 6240TIP3   OH240354   4.168   5.090   0.365
 6240TIP3    H140355   4.208   5.080   0.279
 6240TIP3    H240356   4.094   5.029   0.364
 6241TIP3   OH240357   3.059   0.765   0.780
 6241TIP3    H140358   3.026   0.689   0.826
 6241TIP3    H240359   3.085   0.732   0.694
 6242TIP3   OH240360   2.583   0.427   7.670
 6242TIP3    H140361   2.671   0.436   7.707
 6242TIP3    H240362   2.564   0.513   7.632
 6243TIP3   OH240363   2.035   5.563   8.519
 6243TIP3    H140364   1.971   5.509   8.564
 6243TIP3    H240365   2.062   5.628   8.583
 6244TIP3   OH240366   1.657   2.861   0.215
 6244TIP3    H140367   1.673   2.909   0.297
 6244TIP3    H240368   1.666   2.927   0.147
 6245TIP3   OH240369   1.712   2.708   8.765
 6245TIP3    H140370   1.805   2.702   8.741
 6245TIP3    H240371   1.665   2.693   8.684
 6246TIP3   OH240372   5.382   3.458   1.179
 6246TIP3    H140373   5.396   3.541   1.225
 6246TIP3    H240374   5.323   3.409   1.237
 6247TIP3   OH240375   4.571   1.373   7.149
 6247TIP3    H140376   4.497   1.376   7.210
 6247TIP3    H240377   4.638   1.428   7.190
 6248TIP3   OH240378   3.452   4.403   0.563
 6248TIP3    H140379   3.484   4.458   0.634
 6248TIP3    H240380   3.525   4.344   0.542
 6249TIP3   OH240381   1.625   4.711   7.196
 6249TIP3    H140382   1.632   4.685   7.287
 6249TIP3    H240383   1.531   4.722   7.181
 6250TIP3   OH240384   2.186   6.576   1.322
 6250TIP3    H140385   2.177   6.583   1.417
 6250TIP3    H240386   2.233   6.656   1.297
 6251TIP3   OH240387   3.015   5.097   1.909
 6251TIP3    H140388   2.937   5.142   1.877
 6251TIP3    H240389   2.993   5.004   1.906
 6252TIP3   OH240390   1.294   3.601   8.497
 6252TIP3    H140391   1.294   3.511   8.467
 6252TIP3    H240392   1.253   3.598   8.584
 6253TIP3   OH240393   3.724   6.642   1.111
 6253TIP3    H140394   3.749   6.578   1.177
 6253TIP3    H240395   3.648   6.604   1.069
 6254TIP3   OH240396   1.756   1.343   1.581
 6254TIP3    H140397   1.705   1.279   1.532
 6254TIP3    H240398   1.771   1.414   1.519
 6255TIP3   OH240399   5.547   0.572   0.801
 6255TIP3    H140400   5.531   0.589   0.707
 6255TIP3    H240401   5.510   0.649   0.845
 6256TIP3   OH240402   6.098   2.252   6.678
 6256TIP3    H140403   6.176   2.200   6.657
 6256TIP3    H240404   6.130   2.343   6.682
 6257TIP3   OH240405   2.128   6.366   7.691
 6257TIP3    H140406   2.196   6.417   7.646
 6257TIP3    H240407   2.046   6.398   7.653
 6258TIP3   OH240408   0.989   5.124   7.241
 6258TIP3    H140409   1.085   5.119   7.247
 6258TIP3    H240410   0.972   5.152   7.151
 6259TIP3   OH240411   3.962   6.735   8.728
 6259TIP3    H140412   4.003   6.792   8.792
 6259TIP3    H240413   3.981   6.646   8.760
 6260TIP3   OH240414   5.875   5.759   7.839
 6260TIP3    H140415   5.931   5.691   7.802
 6260TIP3    H240416   5.937   5.824   7.874
 6261TIP3   OH240417   5.908   6.294   0.632
 6261TIP3    H140418   5.840   6.326   0.691
 6261TIP3    H240419   5.911   6.359   0.561
 6262TIP3   OH240420   3.820   1.876   0.841
 6262TIP3    H140421   3.760   1.902   0.911
 6262TIP3    H240422   3.900   1.925   0.858
 6263TIP3   OH240423   1.647   4.244   1.261
 6263TIP3    H140424   1.675   4.174   1.320
 6263TIP3    H240425   1.643   4.202   1.175
 6264TIP3   OH240426   6.431   3.331   7.422
 6264TIP3    H140427   6.462   3.413   7.383
 6264TIP3    H240428   6.336   3.341   7.425
 6265TIP3   OH240429   2.036   5.995   7.370
 6265TIP3    H140430   2.029   5.932   7.299
 6265TIP3    H240431   1.951   5.993   7.414
 6266TIP3   OH240432   5.656   6.644   8.714
 6266TIP3    H140433   5.579   6.630   8.660
 6266TIP3    H240434   5.692   6.727   8.683
 6267TIP3   OH240435   5.975   2.110   7.481
 6267TIP3    H140436   5.975   2.145   7.570
 6267TIP3    H240437   6.023   2.175   7.429
 6268TIP3   OH240438   3.939   1.600   8.562
 6268TIP3    H140439   3.909   1.533   8.501
 6268TIP3    H240440   4.003   1.651   8.513
 6269TIP3   OH240441   1.277   5.449   0.845
 6269TIP3    H140442   1.367   5.481   0.850
 6269TIP3    H240443   1.223   5.526   0.861
 6270TIP3   OH240444   0.061   5.434   8.358
 6270TIP3    H140445  -0.012   5.494   8.343
 6270TIP3    H240446   0.123   5.484   8.412
 6271TIP3   OH240447   5.253   3.771   0.375
 6271TIP3    H140448   5.287   3.693   0.419
 6271TIP3    H240449   5.192   3.737   0.309
 6272TIP3   OH240450   3.068   6.676   7.016
 6272TIP3    H140451   3.147   6.650   6.969
 6272TIP3    H240452   3.093   6.754   7.065
 6273TIP3   OH240453   1.016   4.277   8.275
 6273TIP3    H140454   0.987   4.206   8.218
 6273TIP3    H240455   0.935   4.313   8.312
 6274TIP3   OH240456   3.633   6.121   0.942
 6274TIP3    H140457   3.728   6.107   0.943
 6274TIP3    H240458   3.601   6.063   1.012
 6275TIP3   OH240459   2.976   4.839   8.951
 6275TIP3    H140460   2.953   4.932   8.954
 6275TIP3    H240461   2.903   4.799   8.904
 6276TIP3   OH240462   2.775   4.631   8.269
 6276TIP3    H140463   2.861   4.589   8.272
 6276TIP3    H240464   2.733   4.607   8.352
 6277TIP3   OH240465   4.335   5.778   7.247
 6277TIP3    H140466   4.359   5.870   7.243
 6277TIP3    H240467   4.239   5.777   7.252
 6278TIP3   OH240468   5.678   4.935   7.578
 6278TIP3    H140469   5.736   4.865   7.607
 6278TIP3    H240470   5.602   4.928   7.636
 6279TIP3   OH240471   6.643   5.584   8.412
 6279TIP3    H140472   6.647   5.672   8.374
 6279TIP3    H240473   6.558   5.550   8.385
 6280TIP3   OH240474   5.146   4.791   7.907
 6280TIP3    H140475   5.059   4.800   7.945
 6280TIP3    H240476   5.172   4.702   7.929
 6281TIP3   OH240477   2.843   6.510   0.490
 6281TIP3    H140478   2.926   6.556   0.484
 6281TIP3    H240479   2.792   6.561   0.553
 6282TIP3   OH240480   0.396   3.156   0.143
 6282TIP3    H140481   0.425   3.072   0.178
 6282TIP3    H240482   0.476   3.207   0.133
 6283TIP3   OH240483   0.704   3.313   7.303
 6283TIP3    H140484   0.675   3.224   7.323
 6283TIP3    H240485   0.655   3.338   7.225
 6284TIP3   OH240486   5.823   1.503   8.671
 6284TIP3    H140487   5.865   1.418   8.688
 6284TIP3    H240488   5.866   1.535   8.591
 6285TIP3   OH240489   2.641   4.115   6.904
 6285TIP3    H140490   2.547   4.120   6.920
 6285TIP3    H240491   2.658   4.175   6.831
 6286TIP3   OH240492   3.153   5.371   6.609
 6286TIP3    H140493   3.189   5.352   6.522
 6286TIP3    H240494   3.147   5.286   6.652
 6287TIP3   OH240495   4.236   3.133   1.325
 6287TIP3    H140496   4.237   3.179   1.241
 6287TIP3    H240497   4.164   3.173   1.373
 6288TIP3   OH240498   4.392   3.457   7.751
 6288TIP3    H140499   4.484   3.476   7.730
 6288TIP3    H240500   4.354   3.429   7.667
 6289TIP3   OH240501   3.680   2.776   7.386
 6289TIP3    H140502   3.660   2.712   7.454
 6289TIP3    H240503   3.664   2.730   7.304
 6290TIP3   OH240504   3.626   2.926   7.724
 6290TIP3    H140505   3.604   2.952   7.635
 6290TIP3    H240506   3.613   3.006   7.776
 6291TIP3   OH240507   0.366   1.675   8.734
 6291TIP3    H140508   0.394   1.762   8.762
 6291TIP3    H240509   0.447   1.623   8.736
 6292TIP3   OH240510   4.923   4.222   0.260
 6292TIP3    H140511   5.006   4.268   0.258
 6292TIP3    H240512   4.887   4.241   0.347
 6293TIP3   OH240513   3.086   6.576   6.369
 6293TIP3    H140514   3.105   6.540   6.282
 6293TIP3    H240515   2.994   6.555   6.384
 6294TIP3   OH240516   4.268   5.631   6.993
 6294TIP3    H140517   4.313   5.714   6.977
 6294TIP3    H240518   4.278   5.616   7.087
 6295TIP3   OH240519   0.755   3.749   0.962
 6295TIP3    H140520   0.845   3.782   0.963
 6295TIP3    H240521   0.757   3.672   1.018
 6296TIP3   OH240522   3.097   2.208   7.797
 6296TIP3    H140523   3.009   2.191   7.830
 6296TIP3    H240524   3.102   2.162   7.714
 6297TIP3   OH240525   2.975   2.070   8.792
 6297TIP3    H140526   2.992   2.006   8.862
 6297TIP3    H240527   2.913   2.132   8.831
 6298TIP3   OH240528   5.730   2.820   7.661
 6298TIP3    H140529   5.691   2.748   7.711
 6298TIP3    H240530   5.789   2.776   7.599
 6299TIP3   OH240531   4.317   1.458   8.660
 6299TIP3    H140532   4.333   1.392   8.593
 6299TIP3    H240533   4.324   1.541   8.613
 6300TIP3   OH240534   1.387   5.177   8.058
 6300TIP3    H140535   1.345   5.110   8.111
 6300TIP3    H240536   1.427   5.130   7.985
 6301TIP3   OH240537   5.778   3.038   8.140
 6301TIP3    H140538   5.690   3.012   8.167
 6301TIP3    H240539   5.782   3.021   8.046
 6302TIP3   OH240540   2.357   4.060   6.330
 6302TIP3    H140541   2.347   4.155   6.338
 6302TIP3    H240542   2.377   4.046   6.237
 6303TIP3   OH240543   1.470   5.718   1.377
 6303TIP3    H140544   1.496   5.800   1.335
 6303TIP3    H240545   1.552   5.668   1.386
 6304TIP3   OH240546   3.908   2.614   7.003
 6304TIP3    H140547   3.946   2.696   7.035
 6304TIP3    H240548   3.920   2.619   6.908
 6305TIP3   OH240549   0.980   2.980   8.108
 6305TIP3    H140550   1.010   2.943   8.025
 6305TIP3    H240551   0.886   2.995   8.095
 6306TIP3   OH240552   5.708   4.361   1.423
 6306TIP3    H140553   5.632   4.309   1.450
 6306TIP3    H240554   5.755   4.378   1.504
 6307TIP3   OH240555   0.697   6.000   2.381
 6307TIP3    H140556   0.722   6.085   2.416
 6307TIP3    H240557   0.667   6.018   2.293
 6308TIP3   OH240558   1.251   3.032   8.241
 6308TIP3    H140559   1.159   3.004   8.232
 6308TIP3    H240560   1.302   2.958   8.207
 6309TIP3   OH240561   5.719   0.917   8.188
 6309TIP3    H140562   5.676   0.841   8.229
 6309TIP3    H240563   5.700   0.907   8.094
 6310TIP3   OH240564   3.168   4.266   0.569
 6310TIP3    H140565   3.148   4.229   0.656
 6310TIP3    H240566   3.155   4.360   0.580
 6311TIP3   OH240567   5.972   3.130   1.323
 6311TIP3    H140568   6.042   3.102   1.382
 6311TIP3    H240569   5.892   3.095   1.362
 6312TIP3   OH240570   2.896   1.743   2.007
 6312TIP3    H140571   2.814   1.699   1.984
 6312TIP3    H240572   2.882   1.835   1.983
 6313TIP3   OH240573   3.843   0.073   7.389
 6313TIP3    H140574   3.764   0.114   7.355
 6313TIP3    H240575   3.818  -0.019   7.403
 6314TIP3   OH240576   1.441   1.760   8.506
 6314TIP3    H140577   1.412   1.798   8.423
 6314TIP3    H240578   1.501   1.824   8.543
 6315TIP3   OH240579   2.867   4.623   0.313
 6315TIP3    H140580   2.859   4.597   0.405
 6315TIP3    H240581   2.850   4.543   0.264
 6316TIP3   OH240582   5.199   5.721   8.230
 6316TIP3    H140583   5.293   5.736   8.244
 6316TIP3    H240584   5.168   5.690   8.315
 6317TIP3   OH240585   2.518   5.921   7.468
 6317TIP3    H140586   2.509   5.827   7.453
 6317TIP3    H240587   2.440   5.945   7.518
 6318TIP3   OH240588   2.664   0.637   6.903
 6318TIP3    H140589   2.588   0.579   6.891
 6318TIP3    H240590   2.661   0.695   6.827
 6319TIP3   OH240591   0.491   5.289   1.446
 6319TIP3    H140592   0.579   5.283   1.410
 6319TIP3    H240593   0.504   5.294   1.540
 6320TIP3   OH240594   3.866   4.072   6.732
 6320TIP3    H140595   3.908   4.121   6.662
 6320TIP3    H240596   3.794   4.026   6.689
 6321TIP3   OH240597   1.881   0.886   8.933
 6321TIP3    H140598   1.867   0.980   8.918
 6321TIP3    H240599   1.939   0.883   9.010
 6322TIP3   OH240600   2.413   0.074   8.137
 6322TIP3    H140601   2.341   0.038   8.086
 6322TIP3    H240602   2.422   0.015   8.211
 6323TIP3   OH240603   5.721   2.116   7.794
 6323TIP3    H140604   5.692   2.171   7.867
 6323TIP3    H240605   5.793   2.165   7.755
 6324TIP3   OH240606   1.951   0.466   0.007
 6324TIP3    H140607   1.917   0.385   0.046
 6324TIP3    H240608   1.888   0.533   0.031
 6325TIP3   OH240609   6.280   3.224   1.228
 6325TIP3    H140610   6.331   3.225   1.147
 6325TIP3    H240611   6.213   3.158   1.214
 6326TIP3   OH240612   1.557   2.424   7.217
 6326TIP3    H140613   1.605   2.410   7.135
 6326TIP3    H240614   1.618   2.395   7.285
 6327TIP3   OH240615   0.020   0.040   8.033
 6327TIP3    H140616  -0.071   0.036   8.064
 6327TIP3    H240617   0.071  -0.002   8.103
 6328TIP3   OH240618   2.366   4.202   6.710
 6328TIP3    H140619   2.281   4.170   6.678
 6328TIP3    H240620   2.364   4.184   6.804
 6329TIP3   OH240621   3.831   5.930   1.230
 6329TIP3    H140622   3.810   5.947   1.322
 6329TIP3    H240623   3.926   5.940   1.224
 6330TIP3   OH240624   5.212   1.573   7.727
 6330TIP3    H140625   5.140   1.517   7.699
 6330TIP3    H240626   5.173   1.632   7.792
 6331TIP3   OH240627   5.001   1.899   8.735
 6331TIP3    H140628   4.938   1.852   8.680
 6331TIP3    H240629   5.033   1.833   8.796
 6332TIP3   OH240630   2.843   5.237   1.554
 6332TIP3    H140631   2.929   5.242   1.594
 6332TIP3    H240632   2.788   5.195   1.620
 6333TIP3   OH240633   1.488   0.746   0.386
 6333TIP3    H140634   1.534   0.677   0.337
 6333TIP3    H240635   1.395   0.729   0.369
 6334TIP3   OH240636   2.962   1.601   0.262
 6334TIP3    H140637   2.941   1.651   0.184
 6334TIP3    H240638   3.046   1.638   0.292
 6335TIP3   OH240639   2.031   4.956   6.836
 6335TIP3    H140640   2.043   4.940   6.743
 6335TIP3    H240641   2.106   4.915   6.878
 6336TIP3   OH240642   3.613   1.682   7.042
 6336TIP3    H140643   3.633   1.678   7.136
 6336TIP3    H240644   3.684   1.633   7.001
 6337TIP3   OH240645   4.026   4.794   8.068
 6337TIP3    H140646   4.104   4.754   8.107
 6337TIP3    H240647   3.962   4.723   8.065
 6338TIP3   OH240648   6.791   1.558   8.812
 6338TIP3    H140649   6.810   1.470   8.779
 6338TIP3    H240650   6.849   1.569   8.888
 6339TIP3   OH240651   2.562   6.318   7.987
 6339TIP3    H140652   2.513   6.279   8.059
 6339TIP3    H240653   2.576   6.245   7.926
 6340TIP3   OH240654   6.111   6.499   8.610
 6340TIP3    H140655   6.075   6.449   8.537
 6340TIP3    H240656   6.046   6.491   8.680
 6341TIP3   OH240657   0.821   0.859   7.020
 6341TIP3    H140658   0.866   0.795   7.076
 6341TIP3    H240659   0.872   0.939   7.029
 6342TIP3   OH240660   3.470   0.573   8.010
 6342TIP3    H140661   3.422   0.490   8.007
 6342TIP3    H240662   3.455   0.605   8.099
 6343TIP3   OH240663   3.414   1.174   8.108
 6343TIP3    H140664   3.320   1.186   8.090
 6343TIP3    H240665   3.434   1.088   8.071
 6344TIP3   OH240666   4.422   2.208   1.588
 6344TIP3    H140667   4.349   2.271   1.590
 6344TIP3    H240668   4.490   2.249   1.641
 6345TIP3   OH240669   6.655   4.974   1.355
 6345TIP3    H140670   6.639   4.935   1.441
 6345TIP3    H240671   6.648   5.068   1.370
 6346TIP3   OH240672   2.005   5.218   8.582
 6346TIP3    H140673   1.973   5.220   8.672
 6346TIP3    H240674   2.100   5.231   8.590
 6347TIP3   OH240675   3.142   0.106   8.207
 6347TIP3    H140676   3.231   0.082   8.180
 6347TIP3    H240677   3.096   0.022   8.215
 6348TIP3   OH240678   4.123   3.934   7.618
 6348TIP3    H140679   4.166   3.981   7.546
 6348TIP3    H240680   4.030   3.932   7.593
 6349TIP3   OH240681   5.847   6.144   0.301
 6349TIP3    H140682   5.808   6.068   0.257
 6349TIP3    H240683   5.925   6.164   0.249
 6350TIP3   OH240684   4.740   5.800   7.593
 6350TIP3    H140685   4.782   5.808   7.508
 6350TIP3    H240686   4.767   5.714   7.626
 6351TIP3   OH240687   6.198   4.424   0.338
 6351TIP3    H140688   6.138   4.374   0.284
 6351TIP3    H240689   6.268   4.363   0.360
 6352TIP3   OH240690   2.000   5.925   7.093
 6352TIP3    H140691   1.921   5.914   7.040
 6352TIP3    H240692   2.053   5.988   7.045
 6353TIP3   OH240693   2.921   4.200   7.267
 6353TIP3    H140694   3.009   4.200   7.229
 6353TIP3    H240695   2.934   4.172   7.358
 6354TIP3   OH240696   3.933   0.895   8.585
 6354TIP3    H140697   4.015   0.847   8.573
 6354TIP3    H240698   3.897   0.902   8.497
 6355TIP3   OH240699   0.800   5.009   8.293
 6355TIP3    H140700   0.845   5.092   8.278
 6355TIP3    H240701   0.819   4.987   8.384
 6356TIP3   OH240702   5.050   0.159   0.299
 6356TIP3    H140703   5.101   0.161   0.380
 6356TIP3    H240704   5.029   0.066   0.287
 6357TIP3   OH240705   2.445   0.740   6.325
 6357TIP3    H140706   2.379   0.672   6.311
 6357TIP3    H240707   2.420   0.811   6.266
 6358TIP3   OH240708   3.782   0.854   7.360
 6358TIP3    H140709   3.716   0.787   7.341
 6358TIP3    H240710   3.742   0.935   7.328
 6359TIP3   OH240711   3.729   4.015   0.090
 6359TIP3    H140712   3.661   4.036   0.154
 6359TIP3    H240713   3.682   3.978   0.016
 6360TIP3   OH240714   4.773   0.597   0.936
 6360TIP3    H140715   4.784   0.683   0.896
 6360TIP3    H240716   4.821   0.537   0.878
 6361TIP3   OH240717   3.464   5.116   8.420
 6361TIP3    H140718   3.548   5.132   8.379
 6361TIP3    H240719   3.406   5.089   8.348
 6362TIP3   OH240720   0.822   4.633   8.890
 6362TIP3    H140721   0.885   4.704   8.875
 6362TIP3    H240722   0.749   4.676   8.935
 6363TIP3   OH240723   1.494   2.844   8.872
 6363TIP3    H140724   1.570   2.793   8.843
 6363TIP3    H240725   1.419   2.789   8.852
 6364TIP3   OH240726   6.696   5.685   6.662
 6364TIP3    H140727   6.731   5.631   6.732
 6364TIP3    H240728   6.630   5.630   6.620
 6365TIP3   OH240729   4.802   2.916   1.101
 6365TIP3    H140730   4.827   2.824   1.094
 6365TIP3    H240731   4.835   2.944   1.186
 6366TIP3   OH240732   4.835   1.354   0.022
 6366TIP3    H140733   4.790   1.439   0.021
 6366TIP3    H240734   4.816   1.316  -0.064
 6367TIP3   OH240735   0.703   1.252   2.543
 6367TIP3    H140736   0.781   1.308   2.549
 6367TIP3    H240737   0.657   1.284   2.465
 6368TIP3   OH240738   6.295   2.314   0.096
 6368TIP3    H140739   6.351   2.243   0.066
 6368TIP3    H240740   6.250   2.344   0.017
 6369TIP3   OH240741   5.655   0.257   1.827
 6369TIP3    H140742   5.660   0.338   1.775
 6369TIP3    H240743   5.745   0.240   1.853
 6370TIP3   OH240744   5.030   4.529   7.701
 6370TIP3    H140745   5.105   4.587   7.683
 6370TIP3    H240746   5.037   4.461   7.633
 6371TIP3   OH240747   4.371   0.605   8.067
 6371TIP3    H140748   4.342   0.617   7.977
 6371TIP3    H240749   4.321   0.529   8.099
 6372TIP3   OH240750   0.015   3.704   0.716
 6372TIP3    H140751   0.008   3.624   0.769
 6372TIP3    H240752   0.005   3.674   0.626
 6373TIP3   OH240753   6.270   4.946   6.918
 6373TIP3    H140754   6.189   4.943   6.867
 6373TIP3    H240755   6.338   4.915   6.857
 6374TIP3   OH240756   1.091   5.935   6.996
 6374TIP3    H140757   1.063   6.026   7.004
 6374TIP3    H240758   1.175   5.939   6.949
 6375TIP3   OH240759   0.175   3.902   8.840
 6375TIP3    H140760   0.255   3.852   8.826
 6375TIP3    H240761   0.105   3.844   8.811
 6376TIP3   OH240762   0.220   2.824   2.067
 6376TIP3    H140763   0.279   2.821   1.992
 6376TIP3    H240764   0.269   2.783   2.139
 6377TIP3   OH240765   0.256   1.978   0.975
 6377TIP3    H140766   0.203   2.044   0.928
 6377TIP3    H240767   0.346   2.003   0.957
 6378TIP3   OH240768   2.132   4.358   6.877
 6378TIP3    H140769   2.210   4.400   6.913
 6378TIP3    H240770   2.066   4.427   6.873
 6379TIP3   OH240771   1.782   0.512   8.106
 6379TIP3    H140772   1.744   0.425   8.092
 6379TIP3    H240773   1.843   0.499   8.179
 6380TIP3   OH240774   4.446   6.274   6.423
 6380TIP3    H140775   4.454   6.254   6.329
 6380TIP3    H240776   4.400   6.199   6.460
 6381TIP3   OH240777   1.226   0.886   8.624
 6381TIP3    H140778   1.262   0.967   8.587
 6381TIP3    H240779   1.302   0.828   8.633
 6382TIP3   OH240780   5.525   4.999   0.165
 6382TIP3    H140781   5.550   4.906   0.163
 6382TIP3    H240782   5.440   5.002   0.122
 6383TIP3   OH240783   0.844   5.604   0.146
 6383TIP3    H140784   0.891   5.684   0.122
 6383TIP3    H240785   0.912   5.544   0.176
 6384TIP3   OH240786   4.470   0.155   8.751
 6384TIP3    H140787   4.481   0.120   8.663
 6384TIP3    H240788   4.539   0.222   8.759
 6385TIP3   OH240789   2.503   4.742   7.965
 6385TIP3    H140790   2.513   4.675   8.033
 6385TIP3    H240791   2.524   4.698   7.883
 6386TIP3   OH240792   3.443   6.322   7.536
 6386TIP3    H140793   3.429   6.330   7.441
 6386TIP3    H240794   3.508   6.251   7.544
 6387TIP3   OH240795   3.553   0.059   0.455
 6387TIP3    H140796   3.557   0.130   0.519
 6387TIP3    H240797   3.632   0.007   0.472
 6388TIP3   OH240798   3.666   0.533   7.030
 6388TIP3    H140799   3.654   0.520   6.936
 6388TIP3    H240800   3.675   0.444   7.066
 6389TIP3   OH240801   5.994   2.234   7.762
 6389TIP3    H140802   5.984   2.212   7.855
 6389TIP3    H240803   5.995   2.330   7.760
 6390TIP3   OH240804   1.876   1.144   8.887
 6390TIP3    H140805   1.899   1.175   8.800
 6390TIP3    H240806   1.930   1.196   8.946
 6391TIP3   OH240807   3.618   1.065   7.484
 6391TIP3    H140808   3.587   0.991   7.431
 6391TIP3    H240809   3.539   1.100   7.525
 6392TIP3   OH240810   2.467   1.514   0.487
 6392TIP3    H140811   2.465   1.484   0.396
 6392TIP3    H240812   2.557   1.542   0.501
 6393TIP3   OH240813   2.958   5.618   8.730
 6393TIP3    H140814   2.943   5.566   8.651
 6393TIP3    H240815   2.889   5.591   8.790
 6394TIP3   OH240816   5.330   1.199   1.403
 6394TIP3    H140817   5.298   1.132   1.463
 6394TIP3    H240818   5.252   1.251   1.382
 6395TIP3   OH240819   2.541   4.425   0.879
 6395TIP3    H140820   2.629   4.461   0.889
 6395TIP3    H240821   2.518   4.393   0.966
 6396TIP3   OH240822   1.194   3.156   0.712
 6396TIP3    H140823   1.220   3.248   0.705
 6396TIP3    H240824   1.189   3.139   0.806
 6397TIP3   OH240825   2.928   4.233   8.186
 6397TIP3    H140826   2.876   4.183   8.250
 6397TIP3    H240827   2.967   4.166   8.130
 6398TIP3   OH240828   1.992   0.089   1.082
 6398TIP3    H140829   1.980  -0.005   1.097
 6398TIP3    H240830   1.906   0.119   1.052
 6399TIP3   OH240831   1.490   5.100   0.166
 6399TIP3    H140832   1.484   5.185   0.209
 6399TIP3    H240833   1.415   5.098   0.106
 6400TIP3   OH240834   4.630   0.486   0.144
 6400TIP3    H140835   4.692   0.549   0.107
 6400TIP3    H240836   4.546   0.507   0.104
 6401TIP3   OH240837   2.823   2.649   8.310
 6401TIP3    H140838   2.775   2.569   8.332
 6401TIP3    H240839   2.913   2.621   8.297
 6402TIP3   OH240840   5.794   5.508   8.292
 6402TIP3    H140841   5.815   5.509   8.199
 6402TIP3    H240842   5.812   5.596   8.323
 6403TIP3   OH240843   3.939   5.940   1.973
 6403TIP3    H140844   3.928   5.879   2.046
 6403TIP3    H240845   3.853   5.980   1.963
 6404TIP3   OH240846   1.259   5.104   6.590
 6404TIP3    H140847   1.193   5.038   6.568
 6404TIP3    H240848   1.252   5.114   6.685
 6405TIP3   OH240849   6.253   0.106   7.860
 6405TIP3    H140850   6.193   0.176   7.836
 6405TIP3    H240851   6.278   0.126   7.951
 6406TIP3   OH240852   1.721   0.882   0.719
 6406TIP3    H140853   1.638   0.837   0.703
 6406TIP3    H240854   1.736   0.934   0.640
 6407TIP3   OH240855   6.068   1.047   1.111
 6407TIP3    H140856   6.134   1.112   1.088
 6407TIP3    H240857   6.118   0.970   1.138
 6408TIP3   OH240858   0.986   5.941   8.789
 6408TIP3    H140859   0.997   6.034   8.772
 6408TIP3    H240860   0.969   5.903   8.703
 6409TIP3   OH240861   5.607   5.319   0.466
 6409TIP3    H140862   5.603   5.224   0.477
 6409TIP3    H240863   5.524   5.341   0.423
 6410TIP3   OH240864   5.773   4.431   0.616
 6410TIP3    H140865   5.755   4.404   0.706
 6410TIP3    H240866   5.855   4.480   0.621
 6411TIP3   OH240867   4.820   6.153   0.233
 6411TIP3    H140868   4.900   6.203   0.220
 6411TIP3    H240869   4.832   6.073   0.182
 6412TIP3   OH240870   2.785   3.538   7.193
 6412TIP3    H140871   2.757   3.620   7.235
 6412TIP3    H240872   2.712   3.478   7.208
 6413TIP3   OH240873   2.008   1.944   8.369
 6413TIP3    H140874   2.091   1.975   8.405
 6413TIP3    H240875   1.959   2.024   8.350
 6414TIP3   OH240876   0.679   1.306   8.917
 6414TIP3    H140877   0.703   1.213   8.907
 6414TIP3    H240878   0.750   1.342   8.970
 6415TIP3   OH240879   4.779   6.417   7.035
 6415TIP3    H140880   4.826   6.426   6.952
 6415TIP3    H240881   4.725   6.338   7.023
 6416TIP3   OH240882   2.816   5.678   8.302
 6416TIP3    H140883   2.831   5.652   8.211
 6416TIP3    H240884   2.751   5.748   8.297
 6417TIP3   OH240885   5.323   4.484   7.028
 6417TIP3    H140886   5.385   4.429   6.981
 6417TIP3    H240887   5.372   4.563   7.049
 6418TIP3   OH240888   3.827   6.038   6.696
 6418TIP3    H140889   3.899   6.088   6.657
 6418TIP3    H240890   3.837   5.950   6.659
 6419TIP3   OH240891   1.716   4.609   7.460
 6419TIP3    H140892   1.692   4.516   7.467
 6419TIP3    H240893   1.783   4.621   7.528
 6420TIP3   OH240894   0.988   0.980   0.391
 6420TIP3    H140895   1.012   1.024   0.309
 6420TIP3    H240896   0.917   1.032   0.426
 6421TIP3   OH240897   5.900   0.411   8.045
 6421TIP3    H140898   5.963   0.395   8.115
 6421TIP3    H240899   5.936   0.487   7.998
 6422TIP3   OH240900   5.165   2.732   8.777
 6422TIP3    H140901   5.257   2.758   8.773
 6422TIP3    H240902   5.158   2.682   8.859
 6423TIP3   OH240903   1.647   3.577   8.014
 6423TIP3    H140904   1.583   3.637   8.053
 6423TIP3    H240905   1.595   3.500   7.989
 6424TIP3   OH240906   5.331   2.108   7.497
 6424TIP3    H140907   5.263   2.128   7.562
 6424TIP3    H240908   5.409   2.089   7.549
 6425TIP3   OH240909   0.254   0.196   0.443
 6425TIP3    H140910   0.238   0.260   0.511
 6425TIP3    H240911   0.333   0.149   0.472
 6426TIP3   OH240912   1.484   5.505   7.766
 6426TIP3    H140913   1.408   5.447   7.778
 6426TIP3    H240914   1.448   5.593   7.770
 6427TIP3   OH240915   4.782   6.461   6.496
 6427TIP3    H140916   4.795   6.551   6.465
 6427TIP3    H240917   4.869   6.422   6.492
 6428TIP3   OH240918   6.334   4.268   8.540
 6428TIP3    H140919   6.251   4.282   8.494
 6428TIP3    H240920   6.325   4.315   8.622
 6429TIP3   OH240921   0.110   5.464   0.326
 6429TIP3    H140922   0.132   5.372   0.313
 6429TIP3    H240923   0.086   5.470   0.418
 6430TIP3   OH240924   0.565   5.986   8.146
 6430TIP3    H140925   0.552   5.900   8.108
 6430TIP3    H240926   0.494   5.996   8.209
 6431TIP3   OH240927   6.011   0.111   8.649
 6431TIP3    H140928   5.964   0.140   8.726
 6431TIP3    H240929   6.037   0.021   8.668
 6432TIP3   OH240930   1.096   1.345   1.988
 6432TIP3    H140931   1.049   1.346   2.071
 6432TIP3    H240932   1.128   1.434   1.977
 6433TIP3   OH240933   3.510   2.279   0.923
 6433TIP3    H140934   3.597   2.273   0.885
 6433TIP3    H240935   3.484   2.370   0.909
 6434TIP3   OH240936   3.961   4.128   8.190
 6434TIP3    H140937   4.019   4.111   8.264
 6434TIP3    H240938   4.017   4.116   8.113
 6435TIP3   OH240939   5.177   0.766   8.007
 6435TIP3    H140940   5.107   0.788   7.945
 6435TIP3    H240941   5.198   0.674   7.988
 6436TIP3   OH240942   6.110   2.990   7.393
 6436TIP3    H140943   6.044   2.924   7.368
 6436TIP3    H240944   6.182   2.976   7.332
 6437TIP3   OH240945   4.960   2.867   1.998
 6437TIP3    H140946   4.930   2.887   2.087
 6437TIP3    H240947   4.970   2.953   1.957
 6438TIP3   OH240948   1.434   5.126   1.977
 6438TIP3    H140949   1.502   5.105   2.041
 6438TIP3    H240950   1.361   5.068   1.999
 6439TIP3   OH240951   1.297   1.507   8.374
 6439TIP3    H140952   1.228   1.572   8.361
 6439TIP3    H240953   1.365   1.531   8.311
 6440TIP3   OH240954   0.563   1.560   1.558
 6440TIP3    H140955   0.632   1.599   1.610
 6440TIP3    H240956   0.492   1.542   1.621
 6441TIP3   OH240957   4.977   3.135   0.985
 6441TIP3    H140958   4.900   3.092   1.023
 6441TIP3    H240959   4.986   3.096   0.898
 6442TIP3   OH240960   2.835   0.277   7.211
 6442TIP3    H140961   2.841   0.359   7.162
 6442TIP3    H240962   2.759   0.288   7.268
 6443TIP3   OH240963   6.690   1.647   2.022
 6443TIP3    H140964   6.667   1.705   2.095
 6443TIP3    H240965   6.620   1.582   2.020
 6444TIP3   OH240966   3.340   1.070   7.558
 6444TIP3    H140967   3.249   1.087   7.581
 6444TIP3    H240968   3.372   1.011   7.627
 6445TIP3   OH240969   1.563   2.033   8.119
 6445TIP3    H140970   1.560   2.113   8.172
 6445TIP3    H240971   1.654   2.002   8.128
 6446TIP3   OH240972   4.199   4.317   7.853
 6446TIP3    H140973   4.197   4.413   7.845
 6446TIP3    H240974   4.117   4.295   7.897
 6447TIP3   OH240975   2.057   2.831   1.547
 6447TIP3    H140976   1.978   2.838   1.494
 6447TIP3    H240977   2.128   2.856   1.487
 6448TIP3   OH240978   6.728   1.271   1.919
 6448TIP3    H140979   6.715   1.287   2.012
 6448TIP3    H240980   6.648   1.302   1.877
 6449TIP3   OH240981   5.535   6.720   2.292
 6449TIP3    H140982   5.447   6.757   2.300
 6449TIP3    H240983   5.538   6.651   2.358
 6450TIP3   OH240984   5.151   0.521   8.654
 6450TIP3    H140985   5.233   0.481   8.625
 6450TIP3    H240986   5.135   0.483   8.740
 6451TIP3   OH240987   0.300   3.087   7.674
 6451TIP3    H140988   0.245   3.013   7.699
 6451TIP3    H240989   0.390   3.054   7.680
 6452TIP3   OH240990   1.769   3.112   0.132
 6452TIP3    H140991   1.819   3.161   0.198
 6452TIP3    H240992   1.732   3.180   0.076
 6453TIP3   OH240993   0.208   2.347   7.684
 6453TIP3    H140994   0.123   2.361   7.724
 6453TIP3    H240995   0.218   2.420   7.622
 6454TIP3   OH240996   3.425   2.803   1.121
 6454TIP3    H140997   3.419   2.851   1.038
 6454TIP3    H240998   3.334   2.791   1.148
 6455TIP3   OH240999   1.042   1.266   7.069
 6455TIP3    H141000   1.021   1.283   6.977
 6455TIP3    H241001   1.094   1.342   7.096
 6456TIP3   OH241002   0.780   4.079   6.384
 6456TIP3    H141003   0.753   4.155   6.436
 6456TIP3    H241004   0.724   4.008   6.416
 6457TIP3   OH241005   5.465   1.658   7.275
 6457TIP3    H141006   5.406   1.708   7.331
 6457TIP3    H241007   5.416   1.644   7.194
 6458TIP3   OH241008   6.264   3.476   7.999
 6458TIP3    H141009   6.337   3.538   7.996
 6458TIP3    H241010   6.195   3.524   8.044
 6459TIP3   OH241011   5.791   3.813   7.250
 6459TIP3    H141012   5.735   3.839   7.177
 6459TIP3    H241013   5.730   3.798   7.322
 6460TIP3   OH241014   4.486   5.620   7.555
 6460TIP3    H141015   4.514   5.712   7.548
 6460TIP3    H241016   4.472   5.592   7.465
 6461TIP3   OH241017   6.139   4.040   0.962
 6461TIP3    H141018   6.169   4.074   0.877
 6461TIP3    H241019   6.151   4.113   1.022
 6462TIP3   OH241020   1.466   1.586   8.173
 6462TIP3    H141021   1.457   1.560   8.081
 6462TIP3    H241022   1.440   1.678   8.174
 6463TIP3   OH241023   6.543   6.170   1.222
 6463TIP3    H141024   6.609   6.225   1.263
 6463TIP3    H241025   6.589   6.090   1.199
 6464TIP3   OH241026   1.745   0.790   6.481
 6464TIP3    H141027   1.797   0.854   6.432
 6464TIP3    H241028   1.772   0.801   6.572
 6465TIP3   OH241029   1.952   4.723   7.634
 6465TIP3    H141030   1.974   4.634   7.661
 6465TIP3    H241031   2.032   4.757   7.594
 6466TIP3   OH241032   2.919   0.897   7.003
 6466TIP3    H141033   2.958   0.985   7.005
 6466TIP3    H241034   2.845   0.903   7.063
 6467TIP3   OH241035   1.788   6.177   8.365
 6467TIP3    H141036   1.812   6.269   8.379
 6467TIP3    H241037   1.871   6.131   8.362
 6468TIP3   OH241038   6.028   3.067   2.281
 6468TIP3    H141039   6.120   3.089   2.271
 6468TIP3    H241040   6.003   3.029   2.197
 6469TIP3   OH241041   2.066   3.674   1.001
 6469TIP3    H141042   2.031   3.710   0.919
 6469TIP3    H241043   2.146   3.724   1.016
 6470TIP3   OH241044   1.162   0.506   1.456
 6470TIP3    H141045   1.211   0.585   1.481
 6470TIP3    H241046   1.071   0.527   1.478
 6471TIP3   OH241047   1.819   5.536   0.186
 6471TIP3    H141048   1.876   5.542   0.262
 6471TIP3    H241049   1.864   5.478   0.125
 6472TIP3   OH241050   3.371   2.626   0.359
 6472TIP3    H141051   3.283   2.662   0.371
 6472TIP3    H241052   3.421   2.659   0.434
 6473TIP3   OH241053   5.894   1.492   6.748
 6473TIP3    H141054   5.930   1.404   6.734
 6473TIP3    H241055   5.947   1.548   6.692
 6474TIP3   OH241056   5.339   1.414   6.912
 6474TIP3    H141057   5.262   1.414   6.855
 6474TIP3    H241058   5.393   1.485   6.879
 6475TIP3   OH241059   4.633   0.990   6.718
 6475TIP3    H141060   4.641   0.967   6.626
 6475TIP3    H241061   4.572   1.065   6.719
 6476TIP3   OH241062   0.794   1.842   1.911
 6476TIP3    H141063   0.706   1.823   1.877
 6476TIP3    H241064   0.782   1.850   2.005
 6477TIP3   OH241065   4.666   0.419   1.850
 6477TIP3    H141066   4.645   0.350   1.912
 6477TIP3    H241067   4.604   0.489   1.868
 6478TIP3   OH241068   1.416   3.737   1.334
 6478TIP3    H141069   1.404   3.805   1.401
 6478TIP3    H241070   1.338   3.744   1.279
 6479TIP3   OH241071   2.464   6.504   7.206
 6479TIP3    H141072   2.383   6.513   7.256
 6479TIP3    H241073   2.529   6.476   7.271
 6480TIP3   OH241074   2.945   3.443   7.771
 6480TIP3    H141075   3.039   3.446   7.790
 6480TIP3    H241076   2.924   3.533   7.745
 6481TIP3   OH241077   3.810   2.031   7.736
 6481TIP3    H141078   3.728   1.982   7.737
 6481TIP3    H241079   3.824   2.057   7.827
 6482TIP3   OH241080   5.863   5.468   0.710
 6482TIP3    H141081   5.898   5.383   0.738
 6482TIP3    H241082   5.894   5.479   0.621
 6483TIP3   OH241083   1.571   6.738   0.506
 6483TIP3    H141084   1.566   6.708   0.597
 6483TIP3    H241085   1.639   6.805   0.507
 6484TIP3   OH241086   1.555   5.474   7.505
 6484TIP3    H141087   1.566   5.513   7.592
 6484TIP3    H241088   1.464   5.494   7.482
 6485TIP3   OH241089   5.339   3.593   0.939
 6485TIP3    H141090   5.360   3.530   1.008
 6485TIP3    H241091   5.246   3.582   0.923
 6486TIP3   OH241092   2.775   5.478   8.475
 6486TIP3    H141093   2.776   5.417   8.401
 6486TIP3    H241094   2.786   5.564   8.436
 6487TIP3   OH241095   1.712   3.219   7.248
 6487TIP3    H141096   1.679   3.141   7.204
 6487TIP3    H241097   1.803   3.226   7.219
 6488TIP3   OH241098   0.670   2.495   1.658
 6488TIP3    H141099   0.645   2.540   1.577
 6488TIP3    H241100   0.742   2.437   1.632
 6489TIP3   OH241101   4.155   5.158   2.135
 6489TIP3    H141102   4.188   5.190   2.219
 6489TIP3    H241103   4.187   5.068   2.129
 6490TIP3   OH241104   2.007   3.307   0.647
 6490TIP3    H141105   1.961   3.349   0.574
 6490TIP3    H241106   1.952   3.232   0.670
 6491TIP3   OH241107   4.700   0.387   0.382
 6491TIP3    H141108   4.624   0.413   0.434
 6491TIP3    H241109   4.686   0.429   0.297
 6492TIP3   OH241110   3.767   3.915   6.534
 6492TIP3    H141111   3.780   3.908   6.439
 6492TIP3    H241112   3.672   3.913   6.545
 6493TIP3   OH241113   1.525   0.467   7.759
 6493TIP3    H141114   1.512   0.449   7.853
 6493TIP3    H241115   1.527   0.562   7.753
 6494TIP3   OH241116   6.713   1.557   1.765
 6494TIP3    H141117   6.664   1.487   1.722
 6494TIP3    H241118   6.646   1.614   1.803
 6495TIP3   OH241119   0.385   4.865   7.826
 6495TIP3    H141120   0.368   4.771   7.836
 6495TIP3    H241121   0.301   4.901   7.796
 6496TIP3   OH241122   6.466   1.159   0.156
 6496TIP3    H141123   6.428   1.229   0.103
 6496TIP3    H241124   6.412   1.082   0.136
 6497TIP3   OH241125   4.707   3.211   7.420
 6497TIP3    H141126   4.657   3.156   7.359
 6497TIP3    H241127   4.734   3.286   7.367
 6498TIP3   OH241128   4.337   5.395   0.001
 6498TIP3    H141129   4.417   5.355   0.036
 6498TIP3    H241130   4.309   5.334  -0.068
 6499TIP3   OH241131   4.630   1.330   1.335
 6499TIP3    H141132   4.587   1.270   1.396
 6499TIP3    H241133   4.652   1.407   1.388
 6500TIP3   OH241134   4.877   3.076   8.811
 6500TIP3    H141135   4.925   3.104   8.888
 6500TIP3    H241136   4.883   2.981   8.812
 6501TIP3   OH241137   0.547   0.975   7.075
 6501TIP3    H141138   0.511   1.025   7.002
 6501TIP3    H241139   0.640   0.963   7.052
 6502TIP3   OH241140   5.742   6.761   8.016
 6502TIP3    H141141   5.778   6.704   8.083
 6502TIP3    H241142   5.773   6.725   7.933
 6503TIP3   OH241143   0.192   6.425   8.446
 6503TIP3    H141144   0.243   6.367   8.389
 6503TIP3    H241145   0.106   6.431   8.403
 6504TIP3   OH241146   3.824   5.353   8.452
 6504TIP3    H141147   3.902   5.407   8.435
 6504TIP3    H241148   3.800   5.319   8.366
 6505TIP3   OH241149   1.377   6.742   0.300
 6505TIP3    H141150   1.432   6.727   0.377
 6505TIP3    H241151   1.300   6.787   0.334
 6506TIP3   OH241152   2.493   0.207   8.705
 6506TIP3    H141153   2.527   0.264   8.774
 6506TIP3    H241154   2.437   0.264   8.652
 6507TIP3   OH241155   0.518   0.006   0.874
 6507TIP3    H141156   0.608   0.038   0.881
 6507TIP3    H241157   0.496   0.016   0.781
 6508TIP3   OH241158   4.301   2.354   6.532
 6508TIP3    H141159   4.289   2.287   6.465
 6508TIP3    H241160   4.213   2.367   6.569
 6509TIP3   OH241161   2.302   3.651   6.876
 6509TIP3    H141162   2.375   3.700   6.838
 6509TIP3    H241163   2.334   3.561   6.884
 6510TIP3   OH241164   0.073   5.209   1.109
 6510TIP3    H141165   0.140   5.256   1.159
 6510TIP3    H241166  -0.010   5.238   1.146
 6511TIP3   OH241167   0.762   1.832   0.638
 6511TIP3    H141168   0.845   1.861   0.600
 6511TIP3    H241169   0.701   1.831   0.564
 6512TIP3   OH241170   3.553   2.075   6.809
 6512TIP3    H141171   3.591   2.130   6.877
 6512TIP3    H241172   3.527   1.995   6.854
 6513TIP3   OH241173   3.349   1.494   6.925
 6513TIP3    H141174   3.282   1.426   6.929
 6513TIP3    H241175   3.413   1.459   6.862
 6514TIP3   OH241176   4.549   2.649   1.082
 6514TIP3    H141177   4.621   2.599   1.119
 6514TIP3    H241178   4.531   2.606   0.998
 6515TIP3   OH241179   5.724   6.764   7.475
 6515TIP3    H141180   5.687   6.805   7.553
 6515TIP3    H241181   5.760   6.837   7.425
 6516TIP3   OH241182   0.754   0.653   8.988
 6516TIP3    H141183   0.792   0.733   9.025
 6516TIP3    H241184   0.741   0.596   9.064
 6517TIP3   OH241185   4.161   0.487   8.260
 6517TIP3    H141186   4.231   0.437   8.303
 6517TIP3    H241187   4.084   0.472   8.315
 6518TIP3   OH241188   2.588   5.547   5.902
 6518TIP3    H141189   2.605   5.455   5.883
 6518TIP3    H241190   2.495   5.560   5.881
 6519TIP3   OH241191   4.127   3.028   1.989
 6519TIP3    H141192   4.125   2.933   1.975
 6519TIP3    H241193   4.219   3.052   1.975
 6520TIP3   OH241194   5.108   3.202   2.495
 6520TIP3    H141195   5.071   3.255   2.425
 6520TIP3    H241196   5.041   3.200   2.563
 6521TIP3   OH241197   5.717   3.585   1.021
 6521TIP3    H141198   5.695   3.589   1.114
 6521TIP3    H241199   5.737   3.675   0.997
 6522TIP3   OH241200   3.982   0.893   1.045
 6522TIP3    H141201   3.937   0.820   1.003
 6522TIP3    H241202   3.933   0.970   1.017
 6523TIP3   OH241203   6.258   4.894   8.259
 6523TIP3    H141204   6.166   4.891   8.233
 6523TIP3    H241205   6.255   4.901   8.355
 6524TIP3   OH241206   5.412   2.093   0.394
 6524TIP3    H141207   5.483   2.093   0.331
 6524TIP3    H241208   5.337   2.058   0.347
 6525TIP3   OH241209   6.324   2.562   2.044
 6525TIP3    H141210   6.256   2.550   2.110
 6525TIP3    H241211   6.392   2.613   2.088
 6526TIP3   OH241212   6.520   5.083   2.512
 6526TIP3    H141213   6.542   5.012   2.452
 6526TIP3    H241214   6.598   5.138   2.514
 6527TIP3   OH241215   2.404   1.018   6.482
 6527TIP3    H141216   2.323   1.061   6.508
 6527TIP3    H241217   2.400   1.014   6.386
 6528TIP3   OH241218   4.565   1.978   7.251
 6528TIP3    H141219   4.535   1.943   7.168
 6528TIP3    H241220   4.609   2.060   7.228
 6529TIP3   OH241221   5.471   5.012   7.396
 6529TIP3    H141222   5.536   4.976   7.456
 6529TIP3    H241223   5.510   5.000   7.309
 6530TIP3   OH241224   0.307   3.014   7.394
 6530TIP3    H141225   0.290   3.038   7.485
 6530TIP3    H241226   0.223   2.980   7.362
 6531TIP3   OH241227   6.249   4.038   1.288
 6531TIP3    H141228   6.247   4.124   1.246
 6531TIP3    H241229   6.291   3.980   1.224
 6532TIP3   OH241230   1.786   2.977   8.509
 6532TIP3    H141231   1.755   2.922   8.437
 6532TIP3    H241232   1.835   2.917   8.565
 6533TIP3   OH241233   5.543   1.352   8.074
 6533TIP3    H141234   5.553   1.418   8.142
 6533TIP3    H241235   5.454   1.365   8.041
 6534TIP3   OH241236   4.981   6.320   1.914
 6534TIP3    H141237   5.047   6.322   1.982
 6534TIP3    H241238   4.901   6.290   1.958
 6535TIP3   OH241239   1.505   3.184   1.324
 6535TIP3    H141240   1.555   3.183   1.406
 6535TIP3    H241241   1.430   3.240   1.342
 6536TIP3   OH241242   5.858   5.318   8.834
 6536TIP3    H141243   5.766   5.305   8.855
 6536TIP3    H241244   5.903   5.244   8.876
 6537TIP3   OH241245   5.636   6.359   0.663
 6537TIP3    H141246   5.637   6.450   0.634
 6537TIP3    H241247   5.545   6.343   0.688
 6538TIP3   OH241248   6.778   2.924   2.136
 6538TIP3    H141249   6.731   2.909   2.054
 6538TIP3    H241250   6.864   2.885   2.122
 6539TIP3   OH241251   1.721   0.894   7.365
 6539TIP3    H141252   1.775   0.972   7.360
 6539TIP3    H241253   1.637   0.924   7.400
 6540TIP3   OH241254   2.480   6.405   0.703
 6540TIP3    H141255   2.407   6.412   0.641
 6540TIP3    H241256   2.495   6.496   0.731
 6541TIP3   OH241257   3.565   0.735   8.785
 6541TIP3    H141258   3.510   0.724   8.707
 6541TIP3    H241259   3.515   0.796   8.840
 6542TIP3   OH241260   2.755   3.412   1.471
 6542TIP3    H141261   2.701   3.432   1.395
 6542TIP3    H241262   2.742   3.486   1.530
 6543TIP3   OH241263   4.074   0.351   6.962
 6543TIP3    H141264   4.124   0.270   6.950
 6543TIP3    H241265   4.075   0.394   6.877
 6544TIP3   OH241266   0.145   5.946   8.294
 6544TIP3    H141267   0.159   5.882   8.224
 6544TIP3    H241268   0.131   6.029   8.249
 6545TIP3   OH241269   0.686   4.746   0.549
 6545TIP3    H141270   0.706   4.802   0.624
 6545TIP3    H241271   0.662   4.662   0.587
 6546TIP3   OH241272   5.836   3.910   2.478
 6546TIP3    H141273   5.776   3.931   2.407
 6546TIP3    H241274   5.797   3.949   2.556
 6547TIP3   OH241275   1.550   2.742   8.514
 6547TIP3    H141276   1.580   2.769   8.428
 6547TIP3    H241277   1.468   2.789   8.527
 6548TIP3   OH241278   2.529   4.498   6.330
 6548TIP3    H141279   2.621   4.526   6.336
 6548TIP3    H241280   2.491   4.554   6.263
 6549TIP3   OH241281   3.006   4.484   8.257
 6549TIP3    H141282   3.069   4.501   8.187
 6549TIP3    H241283   2.993   4.389   8.255
 6550TIP3   OH241284   3.143   3.636   6.930
 6550TIP3    H141285   3.130   3.692   7.006
 6550TIP3    H241286   3.072   3.571   6.936
 6551TIP3   OH241287   3.782   1.285   6.417
 6551TIP3    H141288   3.701   1.255   6.457
 6551TIP3    H241289   3.797   1.224   6.345
 6552TIP3   OH241290   6.519   3.036   8.450
 6552TIP3    H141291   6.480   3.090   8.381
 6552TIP3    H241292   6.595   2.995   8.408
 6553TIP3   OH241293   0.197   1.217   8.503
 6553TIP3    H141294   0.148   1.140   8.476
 6553TIP3    H241295   0.287   1.187   8.513
 6554TIP3   OH241296   3.814   1.666   8.782
 6554TIP3    H141297   3.771   1.750   8.767
 6554TIP3    H241298   3.849   1.642   8.696
 6555TIP3   OH241299   5.430   0.226   0.191
 6555TIP3    H141300   5.486   0.149   0.200
 6555TIP3    H241301   5.378   0.209   0.113
 6556TIP3   OH241302   4.054   3.518   1.502
 6556TIP3    H141303   4.107   3.530   1.581
 6556TIP3    H241304   3.977   3.573   1.517
 6557TIP3   OH241305   2.319   0.333   8.162
 6557TIP3    H141306   2.361   0.334   8.248
 6557TIP3    H241307   2.343   0.248   8.125
 6558TIP3   OH241308   6.271   4.889   1.916
 6558TIP3    H141309   6.322   4.888   1.835
 6558TIP3    H241310   6.226   4.974   1.915
 6559TIP3   OH241311   0.191   1.405   1.066
 6559TIP3    H141312   0.098   1.427   1.056
 6559TIP3    H241313   0.218   1.451   1.145
 6560TIP3   OH241314   5.017   1.247   7.235
 6560TIP3    H141315   5.013   1.153   7.214
 6560TIP3    H241316   5.107   1.261   7.264
 6561TIP3   OH241317   4.972   0.154   1.178
 6561TIP3    H141318   4.908   0.205   1.128
 6561TIP3    H241319   5.056   0.175   1.137
 6562TIP3   OH241320   3.502   1.086   1.575
 6562TIP3    H141321   3.427   1.035   1.606
 6562TIP3    H241322   3.556   1.024   1.527
 6563TIP3   OH241323   4.413   2.787   8.782
 6563TIP3    H141324   4.321   2.782   8.809
 6563TIP3    H241325   4.409   2.784   8.687
 6564TIP3   OH241326   6.779   5.199   2.521
 6564TIP3    H141327   6.859   5.250   2.524
 6564TIP3    H241328   6.781   5.145   2.600
 6565TIP3   OH241329   6.134   2.734   8.109
 6565TIP3    H141330   6.164   2.802   8.170
 6565TIP3    H241331   6.192   2.660   8.126
 6566TIP3   OH241332   4.128   3.291   0.853
 6566TIP3    H141333   4.086   3.358   0.800
 6566TIP3    H241334   4.207   3.267   0.804
 6567TIP3   OH241335   1.914   3.960   7.982
 6567TIP3    H141336   1.822   3.984   7.981
 6567TIP3    H241337   1.915   3.864   7.972
 6568TIP3   OH241338   3.807   5.504   0.159
 6568TIP3    H141339   3.885   5.455   0.131
 6568TIP3    H241340   3.837   5.595   0.165
 6569TIP3   OH241341   5.584   6.420   1.039
 6569TIP3    H141342   5.635   6.348   1.077
 6569TIP3    H241343   5.619   6.499   1.080
 6570TIP3   OH241344   2.460   1.575   1.079
 6570TIP3    H141345   2.448   1.488   1.118
 6570TIP3    H241346   2.534   1.564   1.018
 6571TIP3   OH241347   3.668   6.223   6.422
 6571TIP3    H141348   3.762   6.207   6.418
 6571TIP3    H241349   3.628   6.141   6.392
 6572TIP3   OH241350   1.897   3.166   1.476
 6572TIP3    H141351   1.902   3.074   1.449
 6572TIP3    H241352   1.824   3.169   1.538
 6573TIP3   OH241353   0.610   2.890   7.894
 6573TIP3    H141354   0.611   2.817   7.832
 6573TIP3    H241355   0.582   2.965   7.843
 6574TIP3   OH241356   4.614   0.540   8.248
 6574TIP3    H141357   4.548   0.568   8.184
 6574TIP3    H241358   4.574   0.464   8.292
 6575TIP3   OH241359   0.288   0.759   6.449
 6575TIP3    H141360   0.315   0.828   6.510
 6575TIP3    H241361   0.305   0.796   6.362
 6576TIP3   OH241362   4.918   4.014   1.788
 6576TIP3    H141363   4.847   3.976   1.737
 6576TIP3    H241364   4.891   4.003   1.879
 6577TIP3   OH241365   0.373   4.802   1.695
 6577TIP3    H141366   0.449   4.852   1.724
 6577TIP3    H241367   0.299   4.839   1.743
 6578TIP3   OH241368   1.264   0.293   6.883
 6578TIP3    H141369   1.336   0.253   6.834
 6578TIP3    H241370   1.199   0.223   6.893
 6579TIP3   OH241371   1.946   3.179   1.891
 6579TIP3    H141372   2.017   3.135   1.939
 6579TIP3    H241373   1.881   3.110   1.876
 6580TIP3   OH241374   2.538   0.422   8.349
 6580TIP3    H141375   2.520   0.501   8.296
 6580TIP3    H241376   2.549   0.456   8.438
 6581TIP3   OH241377   4.906   4.013   8.852
 6581TIP3    H141378   4.958   4.088   8.826
 6581TIP3    H241379   4.919   4.006   8.947
 6582TIP3   OH241380   3.469   0.676   7.568
 6582TIP3    H141381   3.496   0.758   7.610
 6582TIP3    H241382   3.524   0.609   7.609
 6583TIP3   OH241383   5.475   1.101   8.265
 6583TIP3    H141384   5.412   1.125   8.333
 6583TIP3    H241385   5.539   1.045   8.311
 6584TIP3   OH241386   5.113   4.270   1.787
 6584TIP3    H141387   5.095   4.339   1.851
 6584TIP3    H241388   5.041   4.208   1.799
 6585TIP3   OH241389   3.572   4.742   1.139
 6585TIP3    H141390   3.543   4.788   1.217
 6585TIP3    H241391   3.667   4.750   1.139
 6586TIP3   OH241392   2.539   0.694   7.822
 6586TIP3    H141393   2.560   0.713   7.730
 6586TIP3    H241394   2.612   0.642   7.854
 6587TIP3   OH241395   5.988   4.600   0.076
 6587TIP3    H141396   5.932   4.543   0.128
 6587TIP3    H241397   6.027   4.542   0.011
 6588TIP3   OH241398   5.855   2.932   1.655
 6588TIP3    H141399   5.802   2.852   1.646
 6588TIP3    H241400   5.838   2.981   1.575
 6589TIP3   OH241401   4.612   2.719   7.912
 6589TIP3    H141402   4.559   2.798   7.902
 6589TIP3    H241403   4.666   2.735   7.989
 6590TIP3   OH241404   5.459   3.895   2.475
 6590TIP3    H141405   5.395   3.862   2.538
 6590TIP3    H241406   5.467   3.825   2.410
 6591TIP3   OH241407   6.157   4.263   1.111
 6591TIP3    H141408   6.072   4.295   1.141
 6591TIP3    H241409   6.193   4.336   1.061
 6592TIP3   OH241410   4.611   0.363   8.511
 6592TIP3    H141411   4.611   0.301   8.438
 6592TIP3    H241412   4.696   0.352   8.553
 6593TIP3   OH241413   4.266   0.376   2.266
 6593TIP3    H141414   4.278   0.447   2.329
 6593TIP3    H241415   4.222   0.417   2.192
 6594TIP3   OH241416   6.553   5.441   0.980
 6594TIP3    H141417   6.589   5.353   0.968
 6594TIP3    H241418   6.572   5.486   0.897
 6595TIP3   OH241419   2.726   5.083   0.680
 6595TIP3    H141420   2.717   5.046   0.592
 6595TIP3    H241421   2.688   5.018   0.738
 6596TIP3   OH241422   4.981   1.773   7.534
 6596TIP3    H141423   4.904   1.786   7.479
 6596TIP3    H241424   5.037   1.714   7.483
 6597TIP3   OH241425   3.374   3.358   1.575
 6597TIP3    H141426   3.385   3.306   1.655
 6597TIP3    H241427   3.440   3.427   1.582
 6598TIP3   OH241428   3.154   2.761   0.482
 6598TIP3    H141429   3.101   2.727   0.554
 6598TIP3    H241430   3.160   2.855   0.499
 6599TIP3   OH241431   2.299   2.605   7.033
 6599TIP3    H141432   2.321   2.556   6.953
 6599TIP3    H241433   2.348   2.560   7.102
 6600TIP3   OH241434   4.583   0.759   1.817
 6600TIP3    H141435   4.542   0.842   1.792
 6600TIP3    H241436   4.523   0.720   1.880
 6601TIP3   OH241437   3.617   3.533   1.631
 6601TIP3    H141438   3.609   3.487   1.714
 6601TIP3    H241439   3.571   3.616   1.644
 6602TIP3   OH241440   0.574   3.739   0.461
 6602TIP3    H141441   0.482   3.717   0.448
 6602TIP3    H241442   0.618   3.705   0.383
 6603TIP3   OH241443   2.071   0.901   0.161
 6603TIP3    H141444   2.052   0.910   0.255
 6603TIP3    H241445   2.155   0.945   0.150
 6604TIP3   OH241446   6.315   5.249   7.959
 6604TIP3    H141447   6.408   5.239   7.940
 6604TIP3    H241448   6.310   5.250   8.054
 6605TIP3   OH241449   1.923   5.581   0.457
 6605TIP3    H141450   2.000   5.559   0.509
 6605TIP3    H241451   1.865   5.627   0.518
 6606TIP3   OH241452   4.330   6.146   8.445
 6606TIP3    H141453   4.252   6.120   8.495
 6606TIP3    H241454   4.330   6.241   8.450
 6607TIP3   OH241455   0.473   4.979   0.718
 6607TIP3    H141456   0.565   5.006   0.722
 6607TIP3    H241457   0.432   5.020   0.794
 6608TIP3   OH241458   2.700   5.602   0.733
 6608TIP3    H141459   2.621   5.655   0.724
 6608TIP3    H241460   2.769   5.665   0.755
 6609TIP3   OH241461   0.040   4.123   1.680
 6609TIP3    H141462   0.003   4.210   1.665
 6609TIP3    H241463   0.131   4.139   1.706
 6610TIP3   OH241464   4.062   4.078   0.177
 6610TIP3    H141465   4.061   3.983   0.163
 6610TIP3    H241466   4.149   4.096   0.213
 6611TIP3   OH241467   5.338   4.572   2.225
 6611TIP3    H141468   5.417   4.624   2.241
 6611TIP3    H241469   5.329   4.519   2.304
 6612TIP3   OH241470   1.559   3.402   1.132
 6612TIP3    H141471   1.491   3.345   1.096
 6612TIP3    H241472   1.562   3.379   1.225
 6613TIP3   OH241473   3.932   0.291   8.872
 6613TIP3    H141474   3.989   0.258   8.803
 6613TIP3    H241475   3.991   0.333   8.935
 6614TIP3   OH241476   1.394   4.070   1.326
 6614TIP3    H141477   1.316   4.021   1.353
 6614TIP3    H241478   1.466   4.031   1.375
 6615TIP3   OH241479   5.351   2.357   1.803
 6615TIP3    H141480   5.398   2.407   1.870
 6615TIP3    H241481   5.417   2.340   1.735
 6616TIP3   OH241482   2.903   1.643   7.493
 6616TIP3    H141483   2.846   1.637   7.569
 6616TIP3    H241484   2.846   1.677   7.423
 6617TIP3   OH241485   5.352   3.904   0.654
 6617TIP3    H141486   5.290   3.895   0.582
 6617TIP3    H241487   5.427   3.849   0.628
 6618TIP3   OH241488   0.651   2.141   0.638
 6618TIP3    H141489   0.610   2.227   0.631
 6618TIP3    H241490   0.636   2.100   0.553
 6619TIP3   OH241491   5.400   2.678   7.560
 6619TIP3    H141492   5.389   2.587   7.534
 6619TIP3    H241493   5.445   2.673   7.645
 6620TIP3   OH241494   3.968   6.372   0.615
 6620TIP3    H141495   3.893   6.354   0.558
 6620TIP3    H241496   3.999   6.458   0.587
 6621TIP3   OH241497   5.604   2.604   7.767
 6621TIP3    H141498   5.651   2.521   7.774
 6621TIP3    H241499   5.538   2.600   7.836
 6622TIP3   OH241500   2.017   3.228   8.836
 6622TIP3    H141501   2.079   3.191   8.773
 6622TIP3    H241502   1.931   3.217   8.795
 6623TIP3   OH241503   1.040   4.481   6.905
 6623TIP3    H141504   0.984   4.513   6.975
 6623TIP3    H241505   1.110   4.546   6.898
 6624TIP3   OH241506   6.680   2.962   0.884
 6624TIP3    H141507   6.698   2.963   0.790
 6624TIP3    H241508   6.729   2.887   0.918
 6625TIP3   OH241509   2.710   6.532   2.205
 6625TIP3    H141510   2.618   6.542   2.230
 6625TIP3    H241511   2.715   6.446   2.163
 6626TIP3   OH241512   5.224   1.272   1.712
 6626TIP3    H141513   5.272   1.297   1.634
 6626TIP3    H241514   5.259   1.329   1.781
 6627TIP3   OH241515   3.138   2.477   7.651
 6627TIP3    H141516   3.142   2.545   7.719
 6627TIP3    H241517   3.097   2.402   7.694
 6628TIP3   OH241518   5.528   0.205   7.456
 6628TIP3    H141519   5.483   0.212   7.372
 6628TIP3    H241520   5.457   0.195   7.520
 6629TIP3   OH241521   5.340   4.417   0.423
 6629TIP3    H141522   5.312   4.327   0.442
 6629TIP3    H241523   5.345   4.459   0.509
 6630TIP3   OH241524   1.677   0.132   7.802
 6630TIP3    H141525   1.621   0.057   7.781
 6630TIP3    H241526   1.644   0.203   7.748
 6631TIP3   OH241527   4.269   1.227   7.762
 6631TIP3    H141528   4.352   1.197   7.723
 6631TIP3    H241529   4.202   1.187   7.708
 6632TIP3   OH241530   1.185   3.675   1.760
 6632TIP3    H141531   1.109   3.651   1.813
 6632TIP3    H241532   1.147   3.701   1.675
 6633TIP3   OH241533   0.211   3.135   1.121
 6633TIP3    H141534   0.221   3.188   1.200
 6633TIP3    H241535   0.118   3.144   1.097
 6634TIP3   OH241536   2.776   3.460   8.828
 6634TIP3    H141537   2.713   3.494   8.764
 6634TIP3    H241538   2.856   3.444   8.778
 6635TIP3   OH241539   3.947   2.420   0.128
 6635TIP3    H141540   3.930   2.514   0.124
 6635TIP3    H241541   3.861   2.380   0.139
 6636TIP3   OH241542   1.347   6.714   6.973
 6636TIP3    H141543   1.409   6.765   6.921
 6636TIP3    H241544   1.282   6.684   6.909
 6637TIP3   OH241545   2.102   1.702   2.207
 6637TIP3    H141546   2.164   1.630   2.223
 6637TIP3    H241547   2.149   1.761   2.149
 6638TIP3   OH241548   3.129   5.595   6.288
 6638TIP3    H141549   3.192   5.524   6.302
 6638TIP3    H241550   3.180   5.665   6.248
 6639TIP3   OH241551   5.928   2.346   0.073
 6639TIP3    H141552   5.857   2.337   0.010
 6639TIP3    H241553   6.003   2.303   0.032
 6640TIP3   OH241554   5.075   4.251   8.429
 6640TIP3    H141555   4.999   4.270   8.484
 6640TIP3    H241556   5.093   4.333   8.384
 6641TIP3   OH241557   0.394   4.477   7.168
 6641TIP3    H141558   0.459   4.435   7.224
 6641TIP3    H241559   0.443   4.511   7.094
 6642TIP3   OH241560   1.568   4.223   0.192
 6642TIP3    H141561   1.618   4.163   0.137
 6642TIP3    H241562   1.514   4.272   0.131
 6643TIP3   OH241563   6.706   3.381   2.343
 6643TIP3    H141564   6.616   3.363   2.315
 6643TIP3    H241565   6.760   3.327   2.286
 6644TIP3   OH241566   2.484   5.441   0.343
 6644TIP3    H141567   2.491   5.445   0.438
 6644TIP3    H241568   2.572   5.418   0.313
 6645TIP3   OH241569   4.864   4.709   8.853
 6645TIP3    H141570   4.831   4.667   8.774
 6645TIP3    H241571   4.786   4.721   8.908
 6646TIP3   OH241572   4.754   5.421   8.263
 6646TIP3    H141573   4.770   5.503   8.216
 6646TIP3    H241574   4.841   5.390   8.288
 6647TIP3   OH241575   2.287   1.215   1.289
 6647TIP3    H141576   2.208   1.266   1.304
 6647TIP3    H241577   2.260   1.146   1.229
 6648TIP3   OH241578   1.192   3.496   2.536
 6648TIP3    H141579   1.280   3.511   2.570
 6648TIP3    H241580   1.206   3.444   2.456
 6649TIP3   OH241581   5.699   6.417   8.988
 6649TIP3    H141582   5.702   6.327   8.957
 6649TIP3    H241583   5.710   6.411   9.083
 6650TIP3   OH241584   5.041   0.810   0.149
 6650TIP3    H141585   4.976   0.751   0.111
 6650TIP3    H241586   5.113   0.753   0.174
 6651TIP3   OH241587   1.433   0.212   1.445
 6651TIP3    H141588   1.434   0.288   1.504
 6651TIP3    H241589   1.497   0.152   1.482
 6652TIP3   OH241590   4.450   5.980   1.521
 6652TIP3    H141591   4.456   6.036   1.443
 6652TIP3    H241592   4.357   5.980   1.544
 6653TIP3   OH241593   3.322   2.050   0.392
 6653TIP3    H141594   3.276   2.043   0.476
 6653TIP3    H241595   3.292   2.133   0.355
 6654TIP3   OH241596   4.398   0.899   0.539
 6654TIP3    H141597   4.376   0.990   0.520
 6654TIP3    H241598   4.364   0.883   0.627
 6655TIP3   OH241599   3.475   1.925   8.019
 6655TIP3    H141600   3.486   1.842   8.065
 6655TIP3    H241601   3.556   1.936   7.970
 6656TIP3   OH241602   5.625   5.299   1.288
 6656TIP3    H141603   5.648   5.391   1.303
 6656TIP3    H241604   5.618   5.291   1.193
 6657TIP3   OH241605   2.610   0.275   0.965
 6657TIP3    H141606   2.537   0.256   1.023
 6657TIP3    H241607   2.681   0.303   1.023
 6658TIP3   OH241608   3.118   0.432   2.054
 6658TIP3    H141609   3.084   0.520   2.038
 6658TIP3    H241610   3.051   0.374   2.018
 6659TIP3   OH241611   1.724   4.938   1.288
 6659TIP3    H141612   1.669   5.012   1.317
 6659TIP3    H241613   1.662   4.866   1.277
 6660TIP3   OH241614   2.108   0.265   7.371
 6660TIP3    H141615   2.112   0.169   7.376
 6660TIP3    H241616   2.191   0.294   7.409
 6661TIP3   OH241617   0.454   4.164   8.453
 6661TIP3    H141618   0.510   4.100   8.498
 6661TIP3    H241619   0.365   4.140   8.479
 6662TIP3   OH241620   2.373   4.474   0.264
 6662TIP3    H141621   2.452   4.489   0.316
 6662TIP3    H241622   2.402   4.483   0.173
 6663TIP3   OH241623   2.774   6.725   7.370
 6663TIP3    H141624   2.835   6.798   7.384
 6663TIP3    H241625   2.714   6.729   7.445
 6664TIP3   OH241626   2.297   4.622   8.535
 6664TIP3    H141627   2.297   4.541   8.484
 6664TIP3    H241628   2.302   4.691   8.469
 6665TIP3   OH241629   1.907   5.098   7.656
 6665TIP3    H141630   1.879   5.183   7.622
 6665TIP3    H241631   1.961   5.061   7.586
 6666TIP3   OH241632   4.594   5.534   1.181
 6666TIP3    H141633   4.517   5.589   1.167
 6666TIP3    H241634   4.587   5.465   1.115
 6667TIP3   OH241635   3.042   6.199   1.792
 6667TIP3    H141636   3.128   6.214   1.831
 6667TIP3    H241637   3.034   6.104   1.785
 6668TIP3   OH241638   0.642   6.316   7.352
 6668TIP3    H141639   0.604   6.326   7.439
 6668TIP3    H241640   0.575   6.269   7.302
 6669TIP3   OH241641   0.674   5.485   2.166
 6669TIP3    H141642   0.631   5.492   2.080
 6669TIP3    H241643   0.739   5.555   2.165
 6670TIP3   OH241644   6.312   2.491   8.855
 6670TIP3    H141645   6.329   2.576   8.898
 6670TIP3    H241646   6.229   2.504   8.809
 6671TIP3   OH241647   4.907   2.490   7.091
 6671TIP3    H141648   4.861   2.539   7.159
 6671TIP3    H241649   4.993   2.471   7.129
 6672TIP3   OH241650   4.842   6.585   8.364
 6672TIP3    H141651   4.862   6.492   8.356
 6672TIP3    H241652   4.901   6.628   8.302
 6673TIP3   OH241653   5.066   4.137   2.350
 6673TIP3    H141654   5.064   4.181   2.436
 6673TIP3    H241655   5.160   4.122   2.334
 6674TIP3   OH241656   2.205   3.918   7.047
 6674TIP3    H141657   2.260   3.914   7.125
 6674TIP3    H241658   2.147   3.842   7.054
 6675TIP3   OH241659   1.913   5.604   8.241
 6675TIP3    H141660   1.999   5.565   8.227
 6675TIP3    H241661   1.895   5.590   8.334
 6676TIP3   OH241662   4.092   6.344   1.268
 6676TIP3    H141663   3.999   6.362   1.274
 6676TIP3    H241664   4.130   6.425   1.233
 6677TIP3   OH241665   6.075   4.817   7.500
 6677TIP3    H141666   6.152   4.854   7.455
 6677TIP3    H241667   6.080   4.723   7.481
 6678TIP3   OH241668   3.878   5.225   8.693
 6678TIP3    H141669   3.821   5.286   8.647
 6678TIP3    H241670   3.868   5.142   8.647
 6679TIP3   OH241671   5.132   1.525   1.901
 6679TIP3    H141672   5.038   1.514   1.915
 6679TIP3    H241673   5.158   1.590   1.966
 6680TIP3   OH241674   6.683   2.953   1.874
 6680TIP3    H141675   6.773   2.966   1.846
 6680TIP3    H241676   6.635   3.029   1.840
 6681TIP3   OH241677   2.458   6.201   8.232
 6681TIP3    H141678   2.432   6.291   8.253
 6681TIP3    H241679   2.407   6.147   8.291
 6682TIP3   OH241680   3.525   2.571   2.334
 6682TIP3    H141681   3.472   2.644   2.366
 6682TIP3    H241682   3.613   2.590   2.367
 6683TIP3   OH241683   1.843   3.480   1.569
 6683TIP3    H141684   1.922   3.465   1.622
 6683TIP3    H241685   1.798   3.396   1.569
 6684TIP3   OH241686   6.057   4.519   0.590
 6684TIP3    H141687   6.104   4.601   0.573
 6684TIP3    H241688   6.034   4.487   0.503
 6685TIP3   OH241689   6.579   3.326   7.840
 6685TIP3    H141690   6.521   3.315   7.765
 6685TIP3    H241691   6.530   3.290   7.914
 6686TIP3   OH241692   2.216   5.783   8.180
 6686TIP3    H141693   2.201   5.700   8.225
 6686TIP3    H241694   2.310   5.784   8.163
 6687TIP3   OH241695   2.342   6.472   8.733
 6687TIP3    H141696   2.315   6.382   8.753
 6687TIP3    H241697   2.438   6.469   8.734
 6688TIP3   OH241698   6.496   3.993   1.638
 6688TIP3    H141699   6.545   3.911   1.626
 6688TIP3    H241700   6.419   3.983   1.582
 6689TIP3   OH241701   4.473   3.487   1.327
 6689TIP3    H141702   4.466   3.474   1.233
 6689TIP3    H241703   4.420   3.565   1.344
 6690TIP3   OH241704   2.164   5.765   1.298
 6690TIP3    H141705   2.243   5.712   1.307
 6690TIP3    H241706   2.092   5.701   1.302
 6691TIP3   OH241707   5.989   0.192   1.412
 6691TIP3    H141708   5.972   0.240   1.331
 6691TIP3    H241709   5.937   0.237   1.478
 6692TIP3   OH241710   1.549   0.430   2.754
 6692TIP3    H141711   1.574   0.344   2.786
 6692TIP3    H241712   1.511   0.413   2.668
 6693TIP3   OH241713   4.767   2.707   1.744
 6693TIP3    H141714   4.700   2.665   1.799
 6693TIP3    H241715   4.718   2.747   1.672
 6694TIP3   OH241716   2.740   0.898   0.687
 6694TIP3    H141717   2.827   0.933   0.669
 6694TIP3    H241718   2.742   0.876   0.781
 6695TIP3   OH241719   1.560   1.694   1.133
 6695TIP3    H141720   1.605   1.637   1.070
 6695TIP3    H241721   1.467   1.684   1.112
 6696TIP3   OH241722   0.017   1.327   8.670
 6696TIP3    H141723  -0.056   1.272   8.640
 6696TIP3    H241724   0.093   1.294   8.623
 6697TIP3   OH241725   1.509   2.344   1.698
 6697TIP3    H141726   1.487   2.260   1.737
 6697TIP3    H241727   1.585   2.374   1.747
 6698TIP3   OH241728   1.763   6.769   1.713
 6698TIP3    H141729   1.817   6.770   1.634
 6698TIP3    H241730   1.751   6.676   1.732
 6699TIP3   OH241731   5.099   2.842   0.942
 6699TIP3    H141732   5.099   2.917   1.002
 6699TIP3    H241733   5.109   2.766   0.998
 6700TIP3   OH241734   6.232   5.706   1.301
 6700TIP3    H141735   6.279   5.776   1.346
 6700TIP3    H241736   6.301   5.653   1.261
 6701TIP3   OH241737   0.705   2.408   7.690
 6701TIP3    H141738   0.729   2.393   7.598
 6701TIP3    H241739   0.668   2.324   7.718
 6702TIP3   OH241740   4.478   3.133   6.882
 6702TIP3    H141741   4.467   3.038   6.888
 6702TIP3    H241742   4.561   3.145   6.836
 6703TIP3   OH241743   3.367   0.823   0.265
 6703TIP3    H141744   3.350   0.917   0.271
 6703TIP3    H241745   3.462   0.816   0.267
 6704TIP3   OH241746   4.592   1.759   1.638
 6704TIP3    H141747   4.592   1.749   1.733
 6704TIP3    H241748   4.515   1.814   1.620
 6705TIP3   OH241749   4.734   6.010   6.874
 6705TIP3    H141750   4.818   5.992   6.917
 6705TIP3    H241751   4.694   6.079   6.926
 6706TIP3   OH241752   1.966   3.658   0.005
 6706TIP3    H141753   1.901   3.701  -0.051
 6706TIP3    H241754   2.045   3.654  -0.049
 6707TIP3   OH241755   2.844   3.749   7.435
 6707TIP3    H141756   2.752   3.749   7.409
 6707TIP3    H241757   2.843   3.721   7.527
 6708TIP3   OH241758   0.159   4.431   1.881
 6708TIP3    H141759   0.105   4.456   1.806
 6708TIP3    H241760   0.191   4.344   1.861
 6709TIP3   OH241761   6.740   6.041   1.059
 6709TIP3    H141762   6.786   6.122   1.036
 6709TIP3    H241763   6.803   5.971   1.041
 6710TIP3   OH241764   3.246   3.711   0.970
 6710TIP3    H141765   3.305   3.768   0.923
 6710TIP3    H241766   3.267   3.725   1.063
 6711TIP3   OH241767   5.150   1.976   1.626
 6711TIP3    H141768   5.098   2.041   1.579
 6711TIP3    H241769   5.179   1.915   1.558
 6712TIP3   OH241770   2.758   1.086   8.949
 6712TIP3    H141771   2.758   1.180   8.967
 6712TIP3    H241772   2.704   1.076   8.871
 6713TIP3   OH241773   3.913   3.895   6.229
 6713TIP3    H141774   3.865   3.966   6.186
 6713TIP3    H241775   3.996   3.889   6.182
 6714TIP3   OH241776   2.619   4.013   1.102
 6714TIP3    H141777   2.606   3.928   1.143
 6714TIP3    H241778   2.633   4.074   1.175
 6715TIP3   OH241779   3.219   2.242   6.571
 6715TIP3    H141780   3.135   2.260   6.528
 6715TIP3    H241781   3.276   2.313   6.542
 6716TIP3   OH241782   3.082   3.168   0.243
 6716TIP3    H141783   3.005   3.223   0.259
 6716TIP3    H241784   3.111   3.141   0.330
 6717TIP3   OH241785   1.567   6.481   7.033
 6717TIP3    H141786   1.506   6.426   7.082
 6717TIP3    H241787   1.526   6.567   7.033
 6718TIP3   OH241788   5.465   1.306   1.907
 6718TIP3    H141789   5.498   1.323   1.819
 6718TIP3    H241790   5.527   1.242   1.944
 6719TIP3   OH241791   1.161   5.715   0.688
 6719TIP3    H141792   1.100   5.679   0.752
 6719TIP3    H241793   1.118   5.702   0.604
 6720TIP3   OH241794   0.389   5.323   6.664
 6720TIP3    H141795   0.432   5.365   6.589
 6720TIP3    H241796   0.296   5.328   6.645
 6721TIP3   OH241797   2.286   2.885   7.446
 6721TIP3    H141798   2.351   2.955   7.460
 6721TIP3    H241799   2.330   2.822   7.389
 6722TIP3   OH241800   2.239   1.865   2.029
 6722TIP3    H141801   2.334   1.877   2.032
 6722TIP3    H241802   2.205   1.950   2.001
 6723TIP3   OH241803   3.135   4.806   7.225
 6723TIP3    H141804   3.074   4.770   7.289
 6723TIP3    H241805   3.216   4.821   7.274
 6724TIP3   OH241806   3.815   4.376   6.902
 6724TIP3    H141807   3.788   4.454   6.853
 6724TIP3    H241808   3.748   4.310   6.882
 6725TIP3   OH241809   2.384   2.247   8.175
 6725TIP3    H141810   2.347   2.158   8.173
 6725TIP3    H241811   2.476   2.234   8.199
 6726TIP3   OH241812   5.142   5.721   7.099
 6726TIP3    H141813   5.215   5.783   7.104
 6726TIP3    H241814   5.179   5.639   7.132
 6727TIP3   OH241815   1.875   2.185   8.261
 6727TIP3    H141816   1.937   2.257   8.250
 6727TIP3    H241817   1.817   2.213   8.332
 6728TIP3   OH241818   4.237   0.135   7.180
 6728TIP3    H141819   4.170   0.126   7.247
 6728TIP3    H241820   4.208   0.077   7.109
 6729TIP3   OH241821   2.419   5.126   7.945
 6729TIP3    H141822   2.415   5.113   7.850
 6729TIP3    H241823   2.358   5.197   7.962
 6730TIP3   OH241824   3.099   0.407   1.227
 6730TIP3    H141825   3.176   0.381   1.176
 6730TIP3    H241826   3.123   0.391   1.318
 6731TIP3   OH241827   2.333   6.645   0.515
 6731TIP3    H141828   2.287   6.721   0.481
 6731TIP3    H241829   2.290   6.570   0.474
 6732TIP3   OH241830   1.306   4.537   1.528
 6732TIP3    H141831   1.283   4.459   1.478
 6732TIP3    H241832   1.327   4.504   1.616
 6733TIP3   OH241833   1.151   0.869   7.657
 6733TIP3    H141834   1.085   0.875   7.726
 6733TIP3    H241835   1.235   0.876   7.703
 6734TIP3   OH241836   2.005   6.002   8.436
 6734TIP3    H141837   1.994   5.963   8.350
 6734TIP3    H241838   1.940   5.958   8.491
 6735TIP3   OH241839   5.767   5.352   2.085
 6735TIP3    H141840   5.688   5.334   2.137
 6735TIP3    H241841   5.735   5.385   2.002
 6736TIP3   OH241842   0.446   1.570   0.629
 6736TIP3    H141843   0.403   1.551   0.546
 6736TIP3    H241844   0.399   1.516   0.693
 6737TIP3   OH241845   0.115   2.342   8.061
 6737TIP3    H141846   0.059   2.419   8.072
 6737TIP3    H241847   0.082   2.300   7.981
 6738TIP3   OH241848   1.244   5.875   8.831
 6738TIP3    H141849   1.160   5.922   8.826
 6738TIP3    H241850   1.302   5.936   8.876
 6739TIP3   OH241851   0.751   5.609   7.172
 6739TIP3    H141852   0.831   5.661   7.175
 6739TIP3    H241853   0.745   5.580   7.081
 6740TIP3   OH241854   0.537   6.087   2.143
 6740TIP3    H141855   0.586   6.168   2.129
 6740TIP3    H241856   0.449   6.116   2.167
 6741TIP3   OH241857   4.031   3.416   8.127
 6741TIP3    H141858   4.057   3.487   8.069
 6741TIP3    H241859   3.998   3.348   8.069
 6742TIP3   OH241860   1.004   2.217   7.108
 6742TIP3    H141861   1.084   2.207   7.056
 6742TIP3    H241862   1.022   2.168   7.189
 6743TIP3   OH241863   2.724   6.419   7.342
 6743TIP3    H141864   2.806   6.426   7.391
 6743TIP3    H241865   2.715   6.503   7.298
 6744TIP3   OH241866   4.065   1.675   6.573
 6744TIP3    H141867   4.016   1.594   6.583
 6744TIP3    H241868   4.117   1.662   6.493
 6745TIP3   OH241869   2.417   4.881   7.658
 6745TIP3    H141870   2.351   4.858   7.724
 6745TIP3    H241871   2.420   4.977   7.660
 6746TIP3   OH241872   4.597   5.899   6.447
 6746TIP3    H141873   4.681   5.943   6.436
 6746TIP3    H241874   4.532   5.969   6.440
 6747TIP3   OH241875   0.646   4.529   0.677
 6747TIP3    H141876   0.670   4.438   0.690
 6747TIP3    H241877   0.553   4.532   0.700
 6748TIP3   OH241878   5.158   3.846   7.499
 6748TIP3    H141879   5.238   3.795   7.499
 6748TIP3    H241880   5.161   3.896   7.581
 6749TIP3   OH241881   6.149   5.010   7.939
 6749TIP3    H141882   6.208   5.079   7.969
 6749TIP3    H241883   6.061   5.047   7.948
 6750TIP3   OH241884   6.090   6.684   0.707
 6750TIP3    H141885   6.125   6.690   0.795
 6750TIP3    H241886   6.144   6.744   0.655
 6751TIP3   OH241887   3.897   5.771   7.165
 6751TIP3    H141888   3.822   5.800   7.216
 6751TIP3    H241889   3.883   5.807   7.078
 6752TIP3   OH241890   3.773   2.259   7.074
 6752TIP3    H141891   3.808   2.215   6.996
 6752TIP3    H241892   3.848   2.306   7.111
 6753TIP3   OH241893   0.507   2.961   0.315
 6753TIP3    H141894   0.584   2.951   0.371
 6753TIP3    H241895   0.444   2.898   0.350
 6754TIP3   OH241896   3.278   5.959   6.877
 6754TIP3    H141897   3.212   6.004   6.824
 6754TIP3    H241898   3.362   5.983   6.836
 6755TIP3   OH241899   0.049   5.630   6.311
 6755TIP3    H141900   0.113   5.559   6.320
 6755TIP3    H241901  -0.036   5.586   6.314
 6756TIP3   OH241902   2.376   0.968   8.502
 6756TIP3    H141903   2.336   0.887   8.470
 6756TIP3    H241904   2.305   1.032   8.500
 6757TIP3   OH241905   4.824   2.363   8.941
 6757TIP3    H141906   4.783   2.345   9.025
 6757TIP3    H241907   4.762   2.331   8.876
 6758TIP3   OH241908   4.420   1.724   8.919
 6758TIP3    H141909   4.333   1.717   8.958
 6758TIP3    H241910   4.406   1.770   8.836
 6759TIP3   OH241911   0.189   5.052   7.447
 6759TIP3    H141912   0.149   5.010   7.523
 6759TIP3    H241913   0.132   5.126   7.428
 6760TIP3   OH241914   3.943   2.810   7.816
 6760TIP3    H141915   3.874   2.876   7.819
 6760TIP3    H241916   3.964   2.792   7.907
 6761TIP3   OH241917   3.336   6.357   7.275
 6761TIP3    H141918   3.329   6.302   7.197
 6761TIP3    H241919   3.255   6.408   7.275
 6762TIP3   OH241920   0.516   0.252   1.181
 6762TIP3    H141921   0.552   0.265   1.094
 6762TIP3    H241922   0.584   0.285   1.240
 6763TIP3   OH241923   0.998   6.547   7.204
 6763TIP3    H141924   0.980   6.502   7.121
 6763TIP3    H241925   1.093   6.558   7.205
 6764TIP3   OH241926   1.660   1.393   6.904
 6764TIP3    H141927   1.612   1.390   6.821
 6764TIP3    H241928   1.746   1.358   6.883
 6765TIP3   OH241929   1.371   3.200   1.031
 6765TIP3    H141930   1.355   3.174   1.122
 6765TIP3    H241931   1.345   3.125   0.979
 6766TIP3   OH241932   2.698   2.290   1.686
 6766TIP3    H141933   2.628   2.275   1.622
 6766TIP3    H241934   2.662   2.256   1.768
 6767TIP3   OH241935   4.659   3.757   6.693
 6767TIP3    H141936   4.660   3.779   6.786
 6767TIP3    H241937   4.730   3.693   6.683
 6768TIP3   OH241938   4.963   5.225   7.633
 6768TIP3    H141939   4.977   5.307   7.680
 6768TIP3    H241940   4.941   5.162   7.702
 6769TIP3   OH241941   3.338   4.547   1.010
 6769TIP3    H141942   3.397   4.550   1.085
 6769TIP3    H241943   3.311   4.638   0.997
 6770TIP3   OH241944   0.891   1.211   0.773
 6770TIP3    H141945   0.884   1.195   0.679
 6770TIP3    H241946   0.983   1.232   0.787
 6771TIP3   OH241947   3.717   6.348   0.056
 6771TIP3    H141948   3.773   6.419   0.085
 6771TIP3    H241949   3.776   6.274   0.044
 6772TIP3   OH241950   5.820   1.873   0.409
 6772TIP3    H141951   5.875   1.820   0.466
 6772TIP3    H241952   5.877   1.943   0.378
 6773TIP3   OH241953   4.488   0.461   0.535
 6773TIP3    H141954   4.421   0.400   0.566
 6773TIP3    H241955   4.440   0.524   0.481
 6774TIP3   OH241956   2.421   3.720   0.041
 6774TIP3    H141957   2.400   3.669   0.119
 6774TIP3    H241958   2.388   3.666  -0.032
 6775TIP3   OH241959   1.681   1.321   1.065
 6775TIP3    H141960   1.627   1.374   1.007
 6775TIP3    H241961   1.712   1.248   1.011
 6776TIP3   OH241962   6.764   5.528   6.867
 6776TIP3    H141963   6.857   5.548   6.857
 6776TIP3    H241964   6.760   5.432   6.861
 6777TIP3   OH241965   6.687   1.144   7.639
 6777TIP3    H141966   6.770   1.097   7.640
 6777TIP3    H241967   6.623   1.080   7.610
 6778TIP3   OH241968   6.203   0.297   7.308
 6778TIP3    H141969   6.187   0.202   7.311
 6778TIP3    H241970   6.222   0.314   7.215
 6779TIP3   OH241971   3.983   0.327   7.838
 6779TIP3    H141972   4.067   0.374   7.830
 6779TIP3    H241973   4.004   0.237   7.813
 6780TIP3   OH241974   0.640   2.885   1.274
 6780TIP3    H141975   0.666   2.936   1.351
 6780TIP3    H241976   0.555   2.922   1.248
 6781TIP3   OH241977   6.744   3.761   8.721
 6781TIP3    H141978   6.767   3.827   8.655
 6781TIP3    H241979   6.723   3.683   8.671
 6782TIP3   OH241980   4.946   3.387   8.582
 6782TIP3    H141981   5.037   3.398   8.610
 6782TIP3    H241982   4.934   3.292   8.577
 6783TIP3   OH241983   2.668   0.500   7.981
 6783TIP3    H141984   2.606   0.429   7.997
 6783TIP3    H241985   2.744   0.458   7.941
 6784TIP3   OH241986   4.081   3.847   8.539
 6784TIP3    H141987   4.087   3.782   8.468
 6784TIP3    H241988   4.014   3.908   8.511
 6785TIP3   OH241989   4.030   6.563   0.907
 6785TIP3    H141990   4.117   6.544   0.943
 6785TIP3    H241991   4.040   6.549   0.812
 6786TIP3   OH241992   6.481   3.721   1.537
 6786TIP3    H141993   6.554   3.671   1.574
 6786TIP3    H241994   6.474   3.688   1.447
 6787TIP3   OH241995   3.557   4.989   1.853
 6787TIP3    H141996   3.539   5.009   1.945
 6787TIP3    H241997   3.474   5.005   1.808
 6788TIP3   OH241998   5.331   4.093   2.325
 6788TIP3    H141999   5.385   4.165   2.357
 6788TIP3    H242000   5.351   4.020   2.384
 6789TIP3   OH242001   1.750   6.732   8.492
 6789TIP3    H142002   1.669   6.783   8.485
 6789TIP3    H242003   1.812   6.792   8.533
 6790TIP3   OH242004   0.042   3.761   7.528
 6790TIP3    H142005   0.135   3.747   7.510
 6790TIP3    H242006   0.032   3.741   7.621
 6791TIP3   OH242007   2.776   2.299   0.371
 6791TIP3    H142008   2.741   2.226   0.422
 6791TIP3    H242009   2.848   2.333   0.424
 6792TIP3   OH242010   2.106   6.724   1.583
 6792TIP3    H142011   2.035   6.697   1.525
 6792TIP3    H242012   2.069   6.718   1.671
 6793TIP3   OH242013   2.663   5.458   6.733
 6793TIP3    H142014   2.621   5.533   6.689
 6793TIP3    H242015   2.619   5.382   6.696
 6794TIP3   OH242016   3.693   3.392   0.908
 6794TIP3    H142017   3.765   3.370   0.968
 6794TIP3    H242018   3.723   3.471   0.863
 6795TIP3   OH242019   2.094   6.361   0.637
 6795TIP3    H142020   2.098   6.445   0.683
 6795TIP3    H242021   2.002   6.335   0.641
 6796TIP3   OH242022   6.396   3.167   0.740
 6796TIP3    H142023   6.344   3.241   0.770
 6796TIP3    H242024   6.331   3.099   0.720
 6797TIP3   OH242025   2.882   1.618   1.396
 6797TIP3    H142026   2.944   1.622   1.323
 6797TIP3    H242027   2.799   1.644   1.357
 6798TIP3   OH242028   4.263   0.675   7.814
 6798TIP3    H142029   4.329   0.744   7.817
 6798TIP3    H242030   4.230   0.678   7.724
 6799TIP3   OH242031   3.556   1.930   7.709
 6799TIP3    H142032   3.535   2.018   7.678
 6799TIP3    H242033   3.472   1.886   7.713
 6800TIP3   OH242034   1.766   2.516   7.044
 6800TIP3    H142035   1.821   2.539   6.969
 6800TIP3    H242036   1.721   2.598   7.067
 6801TIP3   OH242037   4.461   1.776   6.345
 6801TIP3    H142038   4.502   1.689   6.341
 6801TIP3    H242039   4.367   1.758   6.345
 6802TIP3   OH242040   0.049   0.868   2.462
 6802TIP3    H142041   0.035   0.848   2.370
 6802TIP3    H242042   0.065   0.782   2.503
 6803TIP3   OH242043   0.391   0.416   8.850
 6803TIP3    H142044   0.428   0.458   8.772
 6803TIP3    H242045   0.461   0.360   8.883
 6804TIP3   OH242046   0.591   5.885   1.306
 6804TIP3    H142047   0.669   5.830   1.294
 6804TIP3    H242048   0.606   5.930   1.389
 6805TIP3   OH242049   5.547   5.560   7.899
 6805TIP3    H142050   5.538   5.485   7.958
 6805TIP3    H242051   5.486   5.625   7.934
 6806TIP3   OH242052   2.284   0.737   6.638
 6806TIP3    H142053   2.282   0.653   6.685
 6806TIP3    H242054   2.201   0.740   6.590
 6807TIP3   OH242055   1.034   2.268   1.124
 6807TIP3    H142056   1.011   2.348   1.171
 6807TIP3    H242057   1.074   2.298   1.043
 6808TIP3   OH242058   0.491   6.787   7.214
 6808TIP3    H142059   0.499   6.698   7.178
 6808TIP3    H242060   0.581   6.811   7.238
 6809TIP3   OH242061   1.697   5.243   1.391
 6809TIP3    H142062   1.623   5.302   1.373
 6809TIP3    H242063   1.751   5.248   1.313
 6810TIP3   OH242064   2.640   2.929   0.754
 6810TIP3    H142065   2.611   2.845   0.720
 6810TIP3    H242066   2.625   2.991   0.682
 6811TIP3   OH242067   3.222   5.872   7.701
 6811TIP3    H142068   3.203   5.952   7.654
 6811TIP3    H242069   3.318   5.871   7.710
 6812TIP3   OH242070   1.664   2.830   7.945
 6812TIP3    H142071   1.622   2.916   7.939
 6812TIP3    H242072   1.716   2.823   7.866
 6813TIP3   OH242073   6.499   3.554   8.868
 6813TIP3    H142074   6.513   3.648   8.877
 6813TIP3    H242075   6.465   3.543   8.779
 6814TIP3   OH242076   5.503   4.726   7.433
 6814TIP3    H142077   5.460   4.775   7.503
 6814TIP3    H242078   5.581   4.689   7.473
 6815TIP3   OH242079   3.270   5.405   6.121
 6815TIP3    H142080   3.357   5.405   6.081
 6815TIP3    H242081   3.216   5.454   6.060
 6816TIP3   OH242082   3.783   5.743   6.905
 6816TIP3    H142083   3.829   5.750   6.822
 6816TIP3    H242084   3.714   5.678   6.890
 6817TIP3   OH242085   3.566   5.924   6.770
 6817TIP3    H142086   3.613   5.981   6.709
 6817TIP3    H242087   3.634   5.883   6.823
 6818TIP3   OH242088   0.748   3.657   0.206
 6818TIP3    H142089   0.820   3.631   0.264
 6818TIP3    H242090   0.690   3.582   0.204
 6819TIP3   OH242091   3.659   2.223   8.892
 6819TIP3    H142092   3.582   2.169   8.913
 6819TIP3    H242093   3.631   2.312   8.911
 6820TIP3   OH242094   0.755   1.931   7.618
 6820TIP3    H142095   0.771   1.938   7.524
 6820TIP3    H242096   0.704   2.008   7.640
 6821TIP3   OH242097   5.940   1.307   0.634
 6821TIP3    H142098   5.861   1.264   0.602
 6821TIP3    H242099   5.934   1.303   0.729
 6822TIP3   OH242100   1.228   5.628   7.079
 6822TIP3    H142101   1.251   5.537   7.059
 6822TIP3    H242102   1.138   5.638   7.046
 6823TIP3   OH242103   4.602   6.111   1.750
 6823TIP3    H142104   4.612   6.135   1.843
 6823TIP3    H242105   4.524   6.055   1.748
 6824TIP3   OH242106   1.256   4.467   0.794
 6824TIP3    H142107   1.213   4.484   0.710
 6824TIP3    H242108   1.216   4.385   0.825
 6825TIP3   OH242109   4.996   3.199   1.258
 6825TIP3    H142110   5.010   3.175   1.166
 6825TIP3    H242111   4.987   3.116   1.304
 6826TIP3   OH242112   1.396   6.310   7.539
 6826TIP3    H142113   1.418   6.245   7.473
 6826TIP3    H242114   1.310   6.343   7.513
 6827TIP3   OH242115   5.850   2.276   1.200
 6827TIP3    H142116   5.875   2.195   1.155
 6827TIP3    H242117   5.779   2.312   1.146
 6828TIP3   OH242118   5.087   5.804   8.892
 6828TIP3    H142119   5.111   5.832   8.804
 6828TIP3    H242120   5.047   5.882   8.932
 6829TIP3   OH242121   5.955   1.714   6.992
 6829TIP3    H142122   5.978   1.786   6.933
 6829TIP3    H242123   5.870   1.739   7.028
 6830TIP3   OH242124   4.584   3.433   6.697
 6830TIP3    H142125   4.631   3.349   6.697
 6830TIP3    H242126   4.499   3.413   6.658
 6831TIP3   OH242127   5.123   3.651   7.725
 6831TIP3    H142128   5.062   3.579   7.709
 6831TIP3    H242129   5.205   3.622   7.686
 6832TIP3   OH242130   0.176   2.215   8.579
 6832TIP3    H142131   0.106   2.206   8.643
 6832TIP3    H242132   0.172   2.135   8.527
 6833TIP3   OH242133   6.011   3.004   7.952
 6833TIP3    H142134   6.060   2.943   8.007
 6833TIP3    H242135   6.031   2.977   7.863
 6834TIP3   OH242136   4.705   2.362   7.614
 6834TIP3    H142137   4.683   2.454   7.604
 6834TIP3    H242138   4.679   2.341   7.704
 6835TIP3   OH242139   0.624   0.259   1.815
 6835TIP3    H142140   0.563   0.263   1.741
 6835TIP3    H242141   0.668   0.174   1.806
 6836TIP3   OH242142   5.934   4.608   0.913
 6836TIP3    H142143   5.957   4.632   1.003
 6836TIP3    H242144   6.010   4.635   0.861
 6837TIP3   OH242145   3.821   0.252   6.482
 6837TIP3    H142146   3.757   0.203   6.430
 6837TIP3    H242147   3.791   0.343   6.478
 6838TIP3   OH242148   5.098   5.166   7.029
 6838TIP3    H142149   5.032   5.096   7.027
 6838TIP3    H242150   5.172   5.127   7.075
 6839TIP3   OH242151   1.791   3.789   8.788
 6839TIP3    H142152   1.766   3.843   8.714
 6839TIP3    H242153   1.839   3.848   8.846
 6840TIP3   OH242154   2.435   3.671   1.427
 6840TIP3    H142155   2.375   3.631   1.364
 6840TIP3    H242156   2.380   3.731   1.478
 6841TIP3   OH242157   1.550   0.638   1.483
 6841TIP3    H142158   1.639   0.672   1.497
 6841TIP3    H242159   1.493   0.704   1.522
 6842TIP3   OH242160   2.520   6.434   6.563
 6842TIP3    H142161   2.584   6.373   6.527
 6842TIP3    H242162   2.438   6.384   6.568
 6843TIP3   OH242163   0.815   1.277   1.147
 6843TIP3    H142164   0.802   1.309   1.057
 6843TIP3    H242165   0.800   1.354   1.202
 6844TIP3   OH242166   1.941   0.285   0.813
 6844TIP3    H142167   1.880   0.343   0.768
 6844TIP3    H242168   1.893   0.255   0.890
 6845TIP3   OH242169   3.066   0.493   0.265
 6845TIP3    H142170   2.981   0.514   0.302
 6845TIP3    H242171   3.083   0.562   0.201
 6846TIP3   OH242172   2.683   3.681   0.339
 6846TIP3    H142173   2.759   3.702   0.394
 6846TIP3    H242174   2.698   3.730   0.258
 6847TIP3   OH242175   2.112   1.922   6.736
 6847TIP3    H142176   2.181   1.921   6.669
 6847TIP3    H242177   2.054   1.993   6.708
 6848TIP3   OH242178   5.513   6.170   6.750
 6848TIP3    H142179   5.426   6.192   6.784
 6848TIP3    H242180   5.566   6.247   6.770
 6849TIP3   OH242181   2.759   0.150   8.924
 6849TIP3    H142182   2.839   0.183   8.966
 6849TIP3    H242183   2.716   0.228   8.890
 6850TIP3   OH242184   4.399   3.895   0.038
 6850TIP3    H142185   4.396   3.989   0.055
 6850TIP3    H242186   4.489   3.870   0.056
 6851TIP3   OH242187   0.060   5.901   1.984
 6851TIP3    H142188  -0.009   5.968   1.983
 6851TIP3    H242189   0.084   5.893   2.076
 6852TIP3   OH242190   5.832   2.738   8.220
 6852TIP3    H142191   5.875   2.664   8.176
 6852TIP3    H242192   5.853   2.813   8.164
 6853TIP3   OH242193   6.254   1.904   6.639
 6853TIP3    H142194   6.256   1.925   6.545
 6853TIP3    H242195   6.346   1.904   6.665
 6854TIP3   OH242196   6.684   2.850   0.328
 6854TIP3    H142197   6.775   2.836   0.350
 6854TIP3    H242198   6.646   2.891   0.406
 6855TIP3   OH242199   3.338   6.588   7.087
 6855TIP3    H142200   3.421   6.560   7.047
 6855TIP3    H242201   3.362   6.617   7.175
 6856TIP3   OH242202   1.934   2.925   1.308
 6856TIP3    H142203   1.976   2.860   1.251
 6856TIP3    H242204   1.900   2.991   1.247
 6857TIP3   OH242205   0.178   5.700   0.506
 6857TIP3    H142206   0.179   5.795   0.497
 6857TIP3    H242207   0.190   5.668   0.417
 6858TIP3   OH242208   2.992   1.463   6.166
 6858TIP3    H142209   3.072   1.509   6.191
 6858TIP3    H242210   2.943   1.454   6.248
 6859TIP3   OH242211   6.542   5.457   6.616
 6859TIP3    H142212   6.599   5.392   6.657
 6859TIP3    H242213   6.453   5.427   6.635
 6860TIP3   OH242214   4.559   4.051   7.639
 6860TIP3    H142215   4.482   4.093   7.602
 6860TIP3    H242216   4.549   3.959   7.618
 6861TIP3   OH242217   5.451   1.445   8.346
 6861TIP3    H142218   5.472   1.373   8.406
 6861TIP3    H242219   5.360   1.429   8.321
 6862TIP3   OH242220   5.508   2.655   8.582
 6862TIP3    H142221   5.480   2.674   8.671
 6862TIP3    H242222   5.459   2.576   8.558
 6863TIP3   OH242223   6.428   1.912   1.245
 6863TIP3    H142224   6.385   1.998   1.238
 6863TIP3    H242225   6.521   1.932   1.240
 6864TIP3   OH242226   0.874   2.244   6.731
 6864TIP3    H142227   0.906   2.330   6.758
 6864TIP3    H242228   0.919   2.226   6.649
 6865TIP3   OH242229   4.184   2.139   8.504
 6865TIP3    H142230   4.099   2.182   8.497
 6865TIP3    H242231   4.191   2.114   8.596
 6866TIP3   OH242232   3.412   6.505   1.053
 6866TIP3    H142233   3.371   6.563   0.988
 6866TIP3    H242234   3.428   6.423   1.006
 6867TIP3   OH242235   6.536   5.058   8.392
 6867TIP3    H142236   6.622   5.097   8.407
 6867TIP3    H242237   6.517   5.010   8.472
 6868TIP3   OH242238   3.744   0.408   7.382
 6868TIP3    H142239   3.819   0.398   7.323
 6868TIP3    H242240   3.698   0.324   7.377
 6869TIP3   OH242241   1.080   0.965   0.722
 6869TIP3    H142242   1.100   0.877   0.753
 6869TIP3    H242243   1.012   0.952   0.656
 6870TIP3   OH242244   6.503   6.230   0.179
 6870TIP3    H142245   6.591   6.196   0.198
 6870TIP3    H242246   6.515   6.285   0.101
 6871TIP3   OH242247   4.217   1.501   1.464
 6871TIP3    H142248   4.125   1.491   1.439
 6871TIP3    H242249   4.264   1.440   1.407
 6872TIP3   OH242250   4.696   1.136   1.020
 6872TIP3    H142251   4.773   1.155   1.073
 6872TIP3    H242252   4.712   1.049   0.985
 6873TIP3   OH242253   5.991   1.457   7.808
 6873TIP3    H142254   5.934   1.391   7.848
 6873TIP3    H242255   6.012   1.422   7.722
 6874TIP3   OH242256   3.633   1.721   6.678
 6874TIP3    H142257   3.543   1.733   6.710
 6874TIP3    H242258   3.638   1.776   6.599
 6875TIP3   OH242259   0.962   3.713   8.931
 6875TIP3    H142260   0.868   3.727   8.924
 6875TIP3    H242261   0.997   3.797   8.960
 6876TIP3   OH242262   4.583   5.752   1.586
 6876TIP3    H142263   4.520   5.821   1.607
 6876TIP3    H242264   4.616   5.776   1.499
 6877TIP3   OH242265   1.392   4.984   2.454
 6877TIP3    H142266   1.486   4.996   2.444
 6877TIP3    H242267   1.367   5.044   2.524
 6878TIP3   OH242268   5.973   3.165   0.432
 6878TIP3    H142269   5.973   3.069   0.442
 6878TIP3    H242270   5.989   3.179   0.339
 6879TIP3   OH242271   4.798   3.164   7.832
 6879TIP3    H142272   4.718   3.197   7.792
 6879TIP3    H242273   4.849   3.129   7.759
 6880TIP3   OH242274   1.168   0.868   8.273
 6880TIP3    H142275   1.159   0.812   8.195
 6880TIP3    H242276   1.232   0.823   8.327
 6881TIP3   OH242277   1.624   6.470   8.247
 6881TIP3    H142278   1.668   6.407   8.191
 6881TIP3    H242279   1.654   6.555   8.215
 6882TIP3   OH242280   2.943   1.998   1.265
 6882TIP3    H142281   2.870   1.959   1.218
 6882TIP3    H242282   2.985   2.056   1.201
 6883TIP3   OH242283   4.827   4.873   7.434
 6883TIP3    H142284   4.866   4.939   7.377
 6883TIP3    H242285   4.770   4.822   7.376
 6884TIP3   OH242286   0.521   5.493   1.927
 6884TIP3    H142287   0.500   5.459   1.840
 6884TIP3    H242288   0.438   5.492   1.975
 6885TIP3   OH242289   2.992   5.164   7.100
 6885TIP3    H142290   2.945   5.216   7.036
 6885TIP3    H242291   2.950   5.078   7.096
 6886TIP3   OH242292   5.016   0.960   7.456
 6886TIP3    H142293   4.951   0.965   7.385
 6886TIP3    H242294   5.043   0.869   7.457
 6887TIP3   OH242295   5.823   4.730   8.384
 6887TIP3    H142296   5.904   4.747   8.432
 6887TIP3    H242297   5.832   4.640   8.353
 6888TIP3   OH242298   5.379   6.319   0.862
 6888TIP3    H142299   5.449   6.374   0.899
 6888TIP3    H242300   5.299   6.371   0.874
 6889TIP3   OH242301   5.168   4.740   0.480
 6889TIP3    H142302   5.202   4.666   0.530
 6889TIP3    H242303   5.204   4.728   0.392
 6890TIP3   OH242304   2.879   1.201   0.940
 6890TIP3    H142305   2.802   1.221   0.993
 6890TIP3    H242306   2.926   1.134   0.990
 6891TIP3   OH242307   6.182   3.119   8.739
 6891TIP3    H142308   6.153   3.203   8.702
 6891TIP3    H242309   6.257   3.141   8.794
 6892TIP3   OH242310   2.543   6.149   1.376
 6892TIP3    H142311   2.468   6.094   1.396
 6892TIP3    H242312   2.538   6.163   1.281
 6893TIP3   OH242313   3.684   5.005   7.110
 6893TIP3    H142314   3.744   5.036   7.043
 6893TIP3    H242315   3.740   4.958   7.172
 6894TIP3   OH242316   4.485   5.151   0.080
 6894TIP3    H142317   4.538   5.081   0.117
 6894TIP3    H242318   4.458   5.204   0.155
 6895TIP3   OH242319   6.140   3.439   0.541
 6895TIP3    H142320   6.057   3.457   0.584
 6895TIP3    H242321   6.205   3.445   0.611
 6896TIP3   OH242322   2.715   4.680   8.867
 6896TIP3    H142323   2.637   4.670   8.812
 6896TIP3    H242324   2.758   4.595   8.863
 6897TIP3   OH242325   1.051   6.234   8.671
 6897TIP3    H142326   1.013   6.297   8.609
 6897TIP3    H242327   1.143   6.231   8.649
 6898TIP3   OH242328   3.772   5.342   7.770
 6898TIP3    H142329   3.694   5.287   7.781
 6898TIP3    H242330   3.739   5.423   7.730
 6899TIP3   OH242331   0.032   0.418   8.253
 6899TIP3    H142332   0.095   0.349   8.273
 6899TIP3    H242333  -0.013   0.435   8.336
 6900TIP3   OH242334   5.365   2.053   2.237
 6900TIP3    H142335   5.380   2.128   2.294
 6900TIP3    H242336   5.392   1.978   2.290
 6901TIP3   OH242337   2.387   4.494   8.979
 6901TIP3    H142338   2.299   4.474   8.946
 6901TIP3    H242339   2.391   4.590   8.978
 6902TIP3   OH242340   5.817   2.248   0.614
 6902TIP3    H142341   5.783   2.281   0.531
 6902TIP3    H242342   5.788   2.157   0.618
 6903TIP3   OH242343   3.027   1.843   0.858
 6903TIP3    H142344   2.998   1.934   0.856
 6903TIP3    H242345   2.947   1.792   0.848
 6904TIP3   OH242346   4.600   2.871   8.965
 6904TIP3    H142347   4.554   2.848   8.884
 6904TIP3    H242348   4.647   2.791   8.990
 6905TIP3   OH242349   5.440   1.950   1.703
 6905TIP3    H142350   5.473   2.027   1.656
 6905TIP3    H242351   5.347   1.968   1.716
 6906TIP3   OH242352   6.342   0.621   7.206
 6906TIP3    H142353   6.254   0.583   7.205
 6906TIP3    H242354   6.388   0.577   7.135
 6907TIP3   OH242355   4.741   1.728   8.689
 6907TIP3    H142356   4.660   1.676   8.689
 6907TIP3    H242357   4.720   1.802   8.746
 6908TIP3   OH242358   2.598   3.906   0.576
 6908TIP3    H142359   2.576   3.972   0.643
 6908TIP3    H242360   2.535   3.923   0.506
 6909TIP3   OH242361   5.177   6.744   1.922
 6909TIP3    H142362   5.128   6.754   2.004
 6909TIP3    H242363   5.209   6.831   1.902
 6910TIP3   OH242364   3.478   5.024   8.687
 6910TIP3    H142365   3.487   5.084   8.614
 6910TIP3    H242366   3.488   5.079   8.765
 6911TIP3   OH242367   4.271   6.491   1.627
 6911TIP3    H142368   4.290   6.498   1.721
 6911TIP3    H242369   4.296   6.576   1.591
 6912TIP3   OH242370   1.114   3.439   1.231
 6912TIP3    H142371   1.104   3.345   1.250
 6912TIP3    H242372   1.077   3.450   1.143
 6913TIP3   OH242373   2.833   6.532   6.461
 6913TIP3    H142374   2.791   6.448   6.445
 6913TIP3    H242375   2.791   6.566   6.540
 6914TIP3   OH242376   1.381   0.271   8.552
 6914TIP3    H142377   1.444   0.246   8.619
 6914TIP3    H242378   1.306   0.213   8.566
 6915TIP3   OH242379   1.236   0.121   8.285
 6915TIP3    H142380   1.280   0.109   8.201
 6915TIP3    H242381   1.291   0.074   8.348
 6916TIP3   OH242382   0.099   1.362   0.323
 6916TIP3    H142383   0.051   1.356   0.241
 6916TIP3    H242384   0.032   1.354   0.391
 6917TIP3   OH242385   4.251   1.101   8.013
 6917TIP3    H142386   4.298   1.167   8.065
 6917TIP3    H242387   4.262   1.130   7.922
 6918TIP3   OH242388   6.000   5.297   0.113
 6918TIP3    H142389   5.915   5.264   0.139
 6918TIP3    H242390   6.036   5.229   0.055
 6919TIP3   OH242391   1.497   1.405   0.618
 6919TIP3    H142392   1.515   1.494   0.588
 6919TIP3    H242393   1.545   1.348   0.558
 6920TIP3   OH242394   1.229   6.682   2.524
 6920TIP3    H142395   1.288   6.629   2.470
 6920TIP3    H242396   1.239   6.771   2.489
 6921TIP3   OH242397   3.831   4.143   1.326
 6921TIP3    H142398   3.807   4.067   1.273
 6921TIP3    H242399   3.828   4.111   1.416
 6922TIP3   OH242400   2.988   4.412   2.001
 6922TIP3    H142401   2.992   4.360   1.920
 6922TIP3    H242402   2.907   4.383   2.044
 6923TIP3   OH242403   1.939   0.399   8.320
 6923TIP3    H142404   1.985   0.323   8.285
 6923TIP3    H242405   1.867   0.362   8.371
 6924TIP3   OH242406   6.269   1.683   2.297
 6924TIP3    H142407   6.337   1.735   2.254
 6924TIP3    H242408   6.306   1.595   2.302
 6925TIP3   OH242409   2.110   1.015   1.438
 6925TIP3    H142410   2.036   1.075   1.448
 6925TIP3    H242411   2.074   0.943   1.386
 6926TIP3   OH242412   0.215   6.300   7.987
 6926TIP3    H142413   0.304   6.265   7.978
 6926TIP3    H242414   0.224   6.393   7.963
 6927TIP3   OH242415   5.919   4.616   1.471
 6927TIP3    H142416   5.926   4.688   1.534
 6927TIP3    H242417   5.831   4.625   1.435
 6928TIP3   OH242418   1.318   6.462   0.298
 6928TIP3    H142419   1.344   6.552   0.279
 6928TIP3    H242420   1.326   6.454   0.393
 6929TIP3   OH242421   4.495   1.858   0.352
 6929TIP3    H142422   4.427   1.824   0.410
 6929TIP3    H242423   4.557   1.902   0.410
 6930TIP3   OH242424   5.172   1.753   1.453
 6930TIP3    H142425   5.224   1.727   1.377
 6930TIP3    H242426   5.209   1.704   1.526
 6931TIP3   OH242427   0.113   1.330   0.620
 6931TIP3    H142428   0.033   1.373   0.591
 6931TIP3    H242429   0.086   1.240   0.639
 6932TIP3   OH242430   0.829   1.542   0.144
 6932TIP3    H142431   0.836   1.535   0.240
 6932TIP3    H242432   0.912   1.582   0.118
 6933TIP3   OH242433   3.334   4.818   7.422
 6933TIP3    H142434   3.417   4.845   7.460
 6933TIP3    H242435   3.300   4.753   7.483
 6934TIP3   OH242436   0.025   3.341   8.686
 6934TIP3    H142437   0.067   3.342   8.772
 6934TIP3    H242438   0.097   3.325   8.625
 6935TIP3   OH242439   4.862   2.279   0.956
 6935TIP3    H142440   4.957   2.282   0.967
 6935TIP3    H242441   4.838   2.368   0.930
 6936TIP3   OH242442   2.053   1.912   0.518
 6936TIP3    H142443   2.044   1.990   0.463
 6936TIP3    H242444   2.140   1.879   0.499
 6937TIP3   OH242445   6.547   1.331   6.403
 6937TIP3    H142446   6.517   1.255   6.353
 6937TIP3    H242447   6.629   1.303   6.443
 6938TIP3   OH242448   1.712   4.446   0.224
 6938TIP3    H142449   1.669   4.360   0.230
 6938TIP3    H242450   1.716   4.464   0.130
 6939TIP3   OH242451   5.360   5.852   6.410
 6939TIP3    H142452   5.424   5.781   6.416
 6939TIP3    H242453   5.276   5.807   6.401
 6940TIP3   OH242454   0.907   3.834   2.457
 6940TIP3    H142455   0.996   3.834   2.423
 6940TIP3    H242456   0.871   3.749   2.431
 6941TIP3   OH242457   4.274   0.840   1.078
 6941TIP3    H142458   4.180   0.839   1.063
 6941TIP3    H242459   4.302   0.926   1.047
 6942TIP3   OH242460   3.201   6.393   0.267
 6942TIP3    H142461   3.292   6.380   0.241
 6942TIP3    H242462   3.170   6.463   0.211
 6943TIP3   OH242463   3.675   2.633   1.009
 6943TIP3    H142464   3.653   2.664   1.097
 6943TIP3    H242465   3.770   2.618   1.012
 6944TIP3   OH242466   4.883   1.651   8.475
 6944TIP3    H142467   4.896   1.562   8.509
 6944TIP3    H242468   4.839   1.697   8.546
 6945TIP3   OH242469   3.124   0.878   6.053
 6945TIP3    H142470   3.096   0.892   5.963
 6945TIP3    H242471   3.067   0.934   6.106
 6946TIP3   OH242472   0.004   2.513   0.101
 6946TIP3    H142473  -0.030   2.577   0.038
 6946TIP3    H242474   0.055   2.565   0.163
 6947TIP3   OH242475   5.104   3.347   0.640
 6947TIP3    H142476   5.103   3.334   0.735
 6947TIP3    H242477   5.189   3.313   0.612
 6948TIP3   OH242478   5.927   4.827   0.580
 6948TIP3    H142479   5.854   4.810   0.521
 6948TIP3    H242480   5.887   4.872   0.655
 6949TIP3   OH242481   4.657   0.929   2.088
 6949TIP3    H142482   4.590   0.948   2.154
 6949TIP3    H242483   4.649   1.001   2.025
 6950TIP3   OH242484   2.097   6.249   1.098
 6950TIP3    H142485   2.163   6.246   1.028
 6950TIP3    H242486   2.013   6.244   1.052
 6951TIP3   OH242487   6.470   4.911   6.712
 6951TIP3    H142488   6.432   4.970   6.648
 6951TIP3    H242489   6.521   4.849   6.660
 6952TIP3   OH242490   6.365   0.219   6.488
 6952TIP3    H142491   6.415   0.280   6.543
 6952TIP3    H242492   6.337   0.272   6.413
 6953TIP3   OH242493   1.324   0.697   1.659
 6953TIP3    H142494   1.256   0.764   1.671
 6953TIP3    H242495   1.337   0.659   1.746
 6954TIP3   OH242496   4.075   1.960   1.466
 6954TIP3    H142497   4.105   2.039   1.512
 6954TIP3    H242498   3.986   1.982   1.439
 6955TIP3   OH242499   5.535   2.800   2.203
 6955TIP3    H142500   5.601   2.735   2.177
 6955TIP3    H242501   5.477   2.753   2.262
 6956TIP3   OH242502   3.820   1.911   1.386
 6956TIP3    H142503   3.757   1.843   1.411
 6956TIP3    H242504   3.833   1.900   1.292
 6957TIP3   OH242505   4.356   5.738   0.814
 6957TIP3    H142506   4.347   5.800   0.887
 6957TIP3    H242507   4.375   5.654   0.856
 6958TIP3   OH242508   5.543   1.299   0.503
 6958TIP3    H142509   5.522   1.382   0.547
 6958TIP3    H242510   5.463   1.275   0.458
 6959TIP3   OH242511   0.872   1.191   8.147
 6959TIP3    H142512   0.851   1.269   8.197
 6959TIP3    H242513   0.967   1.189   8.143
 6960TIP3   OH242514   6.216   0.745   7.987
 6960TIP3    H142515   6.280   0.802   7.944
 6960TIP3    H242516   6.261   0.660   7.994
 6961TIP3   OH242517   0.780   1.465   1.340
 6961TIP3    H142518   0.834   1.491   1.414
 6961TIP3    H242519   0.767   1.546   1.290
 6962TIP3   OH242520   1.861   4.946   6.538
 6962TIP3    H142521   1.948   4.982   6.556
 6962TIP3    H242522   1.864   4.919   6.446
 6963TIP3   OH242523   0.062   2.903   7.349
 6963TIP3    H142524   0.017   2.839   7.295
 6963TIP3    H242525   0.001   2.921   7.420
 6964TIP3   OH242526   4.521   2.616   8.316
 6964TIP3    H142527   4.606   2.625   8.273
 6964TIP3    H242528   4.543   2.592   8.406
 6965TIP3   OH242529   0.226   6.741   8.520
 6965TIP3    H142530   0.317   6.713   8.524
 6965TIP3    H242531   0.215   6.799   8.595
 6966TIP3   OH242532   3.981   4.876   0.139
 6966TIP3    H142533   4.019   4.831   0.064
 6966TIP3    H242534   3.890   4.847   0.141
 6967TIP3   OH242535   2.041   0.082   1.828
 6967TIP3    H142536   2.018   0.169   1.797
 6967TIP3    H242537   1.981   0.066   1.901
 6968TIP3   OH242538   2.853   6.113   8.796
 6968TIP3    H142539   2.928   6.133   8.852
 6968TIP3    H242540   2.890   6.063   8.724
 6969TIP3   OH242541   3.625   2.493   0.057
 6969TIP3    H142542   3.541   2.490   0.103
 6969TIP3    H242543   3.663   2.578   0.081
 6970TIP3   OH242544   4.451   6.573   6.671
 6970TIP3    H142545   4.487   6.527   6.594
 6970TIP3    H242546   4.416   6.654   6.635
 6971TIP3   OH242547   4.834   1.576   8.175
 6971TIP3    H142548   4.838   1.496   8.226
 6971TIP3    H242549   4.826   1.646   8.240
 6972TIP3   OH242550   3.051   1.080   0.356
 6972TIP3    H142551   2.995   1.004   0.374
 6972TIP3    H242552   3.094   1.059   0.273
 6973TIP3   OH242553   3.653   0.408   6.231
 6973TIP3    H142554   3.694   0.449   6.306
 6973TIP3    H242555   3.623   0.481   6.177
 6974TIP3   OH242556   1.971   4.080   7.346
 6974TIP3    H142557   2.036   4.076   7.416
 6974TIP3    H242558   2.016   4.125   7.274
 6975TIP3   OH242559   0.383   2.584   7.321
 6975TIP3    H142560   0.401   2.665   7.273
 6975TIP3    H242561   0.457   2.527   7.301
 6976TIP3   OH242562   3.092   0.986   8.554
 6976TIP3    H142563   3.128   1.062   8.599
 6976TIP3    H242564   2.999   0.987   8.574
 6977TIP3   OH242565   0.817   0.484   1.181
 6977TIP3    H142566   0.889   0.481   1.244
 6977TIP3    H242567   0.796   0.576   1.172
 6978TIP3   OH242568   3.447   2.559   0.875
 6978TIP3    H142569   3.386   2.620   0.916
 6978TIP3    H242570   3.531   2.577   0.917
 6979TIP3   OH242571   1.844   5.682   7.582
 6979TIP3    H142572   1.821   5.696   7.490
 6979TIP3    H242573   1.847   5.769   7.620
 6980TIP3   OH242574   0.226   4.680   6.626
 6980TIP3    H142575   0.274   4.758   6.599
 6980TIP3    H242576   0.273   4.607   6.585
 6981TIP3   OH242577   1.686   5.232   8.976
 6981TIP3    H142578   1.693   5.299   8.908
 6981TIP3    H242579   1.593   5.233   9.002
 6982TIP3   OH242580   6.005   0.171   1.047
 6982TIP3    H142581   5.931   0.202   0.995
 6982TIP3    H242582   6.021   0.242   1.110
 6983TIP3   OH242583   4.192   6.779   0.753
 6983TIP3    H142584   4.106   6.778   0.710
 6983TIP3    H242585   4.239   6.851   0.710
 6984TIP3   OH242586   2.527   2.492   2.084
 6984TIP3    H142587   2.466   2.421   2.064
 6984TIP3    H242588   2.524   2.549   2.007
 6985TIP3   OH242589   5.186   4.773   8.242
 6985TIP3    H142590   5.144   4.702   8.291
 6985TIP3    H242591   5.115   4.813   8.192
 6986TIP3   OH242592   6.606   4.899   7.851
 6986TIP3    H142593   6.585   4.933   7.938
 6986TIP3    H242594   6.529   4.849   7.825
 6987TIP3   OH242595   1.214   1.609   2.004
 6987TIP3    H142596   1.309   1.604   1.997
 6987TIP3    H242597   1.193   1.700   1.983
 6988TIP3   OH242598   5.464   3.304   7.672
 6988TIP3    H142599   5.464   3.343   7.584
 6988TIP3    H242600   5.500   3.372   7.728
 6989TIP3   OH242601   4.650   5.301   7.914
 6989TIP3    H142602   4.577   5.361   7.899
 6989TIP3    H242603   4.642   5.236   7.843
 6990TIP3   OH242604   2.329   1.996   7.753
 6990TIP3    H142605   2.277   1.947   7.817
 6990TIP3    H242606   2.277   1.995   7.673
 6991TIP3   OH242607   5.286   1.591   8.904
 6991TIP3    H142608   5.208   1.645   8.899
 6991TIP3    H242609   5.269   1.518   8.845
 6992TIP3   OH242610   4.595   5.569   1.800
 6992TIP3    H142611   4.600   5.633   1.729
 6992TIP3    H242612   4.511   5.587   1.843
 6993TIP3   OH242613   2.958   2.704   7.553
 6993TIP3    H142614   2.954   2.653   7.633
 6993TIP3    H242615   2.878   2.757   7.554
 6994TIP3   OH242616   4.342   3.437   8.939
 6994TIP3    H142617   4.382   3.350   8.947
 6994TIP3    H242618   4.416   3.498   8.942
 6995TIP3   OH242619   6.437   4.263   7.619
 6995TIP3    H142620   6.363   4.217   7.580
 6995TIP3    H242621   6.465   4.208   7.692
 6996TIP3   OH242622   6.419   5.299   8.351
 6996TIP3    H142623   6.459   5.213   8.362
 6996TIP3    H242624   6.325   5.283   8.359
 6997TIP3   OH242625   0.372   6.014   8.434
 6997TIP3    H142626   0.350   6.099   8.473
 6997TIP3    H242627   0.290   5.984   8.396
 6998TIP3   OH242628   5.557   0.653   1.829
 6998TIP3    H142629   5.469   0.668   1.796
 6998TIP3    H242630   5.596   0.591   1.767
 6999TIP3   OH242631   1.473   0.046   8.417
 6999TIP3    H142632   1.489   0.094   8.336
 6999TIP3    H242633   1.461   0.114   8.483
 7000TIP3   OH242634   4.060   4.245   6.875
 7000TIP3    H142635   4.104   4.254   6.790
 7000TIP3    H242636   3.971   4.218   6.853
 7001TIP3   OH242637   3.787   4.948   8.124
 7001TIP3    H142638   3.756   4.949   8.033
 7001TIP3    H242639   3.870   4.900   8.121
 7002TIP3   OH242640   0.492   3.572   1.574
 7002TIP3    H142641   0.447   3.614   1.647
 7002TIP3    H242642   0.576   3.544   1.610
 7003TIP3   OH242643   4.442   0.312   7.150
 7003TIP3    H142644   4.366   0.265   7.115
 7003TIP3    H242645   4.410   0.355   7.229
 7004TIP3   OH242646   1.034   1.265   1.337
 7004TIP3    H142647   1.008   1.224   1.420
 7004TIP3    H242648   0.958   1.250   1.279
 7005TIP3   OH242649   5.594   0.154   1.212
 7005TIP3    H142650   5.511   0.199   1.222
 7005TIP3    H242651   5.633   0.190   1.132
 7006TIP3   OH242652   3.626   0.552   7.778
 7006TIP3    H142653   3.575   0.569   7.857
 7006TIP3    H242654   3.631   0.457   7.772
 7007TIP3   OH242655   6.131   2.878   1.045
 7007TIP3    H142656   6.197   2.947   1.040
 7007TIP3    H242657   6.170   2.811   1.101
 7008TIP3   OH242658   0.319   4.322   7.507
 7008TIP3    H142659   0.369   4.287   7.433
 7008TIP3    H242660   0.376   4.310   7.583
 7009TIP3   OH242661   2.985   3.907   8.383
 7009TIP3    H142662   3.030   3.979   8.428
 7009TIP3    H242663   2.987   3.835   8.447
 7010TIP3   OH242664   0.031   0.155   7.758
 7010TIP3    H142665   0.042   0.103   7.837
 7010TIP3    H242666  -0.064   0.168   7.750
 7011TIP3   OH242667   0.593   0.220   6.898
 7011TIP3    H142668   0.506   0.191   6.871
 7011TIP3    H242669   0.647   0.208   6.820
 7012TIP3   OH242670   0.926   1.609   1.780
 7012TIP3    H142671   0.893   1.690   1.818
 7012TIP3    H242672   0.891   1.540   1.836
 7013TIP3   OH242673   4.431   2.422   0.280
 7013TIP3    H142674   4.520   2.394   0.301
 7013TIP3    H242675   4.398   2.354   0.221
 7014TIP3   OH242676   2.833   4.545   7.997
 7014TIP3    H142677   2.886   4.475   8.036
 7014TIP3    H242678   2.772   4.570   8.066
 7015TIP3   OH242679   3.892   0.644   7.721
 7015TIP3    H142680   3.913   0.722   7.772
 7015TIP3    H242681   3.800   0.626   7.741
 7016TIP3   OH242682   2.894   5.437   7.833
 7016TIP3    H142683   2.987   5.445   7.814
 7016TIP3    H242684   2.890   5.381   7.911
 7017TIP3   OH242685   3.727   6.372   0.487
 7017TIP3    H142686   3.742   6.438   0.419
 7017TIP3    H242687   3.659   6.409   0.542
 7018TIP3   OH242688   2.678   3.802   0.091
 7018TIP3    H142689   2.686   3.888   0.049
 7018TIP3    H242690   2.592   3.770   0.062
 7019TIP3   OH242691   1.016   1.302   8.923
 7019TIP3    H142692   0.960   1.358   8.869
 7019TIP3    H242693   1.078   1.264   8.861
 7020TIP3   OH242694   5.356   4.491   8.236
 7020TIP3    H142695   5.427   4.478   8.173
 7020TIP3    H242696   5.394   4.547   8.304
 7021TIP3   OH242697   2.210   3.554   1.293
 7021TIP3    H142698   2.121   3.534   1.322
 7021TIP3    H242699   2.220   3.506   1.210
 7022TIP3   OH242700   2.269   5.448   0.163
 7022TIP3    H142701   2.313   5.456   0.079
 7022TIP3    H242702   2.339   5.440   0.227
 7023TIP3   OH242703   5.716   4.989   1.128
 7023TIP3    H142704   5.628   4.965   1.156
 7023TIP3    H242705   5.773   4.958   1.199
 7024TIP3   OH242706   6.353   6.508   1.247
 7024TIP3    H142707   6.350   6.467   1.160
 7024TIP3    H242708   6.432   6.473   1.287
 7025TIP3   OH242709   0.048   1.165   6.974
 7025TIP3    H142710  -0.027   1.173   6.914
 7025TIP3    H242711   0.019   1.105   7.042
 7026TIP3   OH242712   3.864   0.957   8.066
 7026TIP3    H142713   3.779   0.914   8.058
 7026TIP3    H242714   3.914   0.926   7.990
 7027TIP3   OH242715   1.836   3.104   1.093
 7027TIP3    H142716   1.775   3.111   1.019
 7027TIP3    H242717   1.863   3.194   1.110
 7028TIP3   OH242718   1.469   0.135   7.517
 7028TIP3    H142719   1.420   0.200   7.466
 7028TIP3    H242720   1.470   0.057   7.460
 7029TIP3   OH242721   2.857   4.419   7.727
 7029TIP3    H142722   2.833   4.448   7.815
 7029TIP3    H242723   2.790   4.457   7.670
 7030TIP3   OH242724   2.562   1.294   7.068
 7030TIP3    H142725   2.488   1.312   7.126
 7030TIP3    H242726   2.639   1.314   7.120
 7031TIP3   OH242727   4.747   1.352   6.749
 7031TIP3    H142728   4.657   1.351   6.716
 7031TIP3    H242729   4.791   1.282   6.701
 7032TIP3   OH242730   0.811   3.115   0.093
 7032TIP3    H142731   0.887   3.072   0.130
 7032TIP3    H242732   0.789   3.063   0.016
 7033TIP3   OH242733   0.156   3.521   1.485
 7033TIP3    H142734   0.116   3.591   1.433
 7033TIP3    H242735   0.202   3.567   1.556
 7034TIP3   OH242736   1.672   4.698   0.320
 7034TIP3    H142737   1.580   4.722   0.310
 7034TIP3    H242738   1.676   4.607   0.292
 7035TIP3   OH242739   1.928   5.013   7.368
 7035TIP3    H142740   1.834   4.992   7.368
 7035TIP3    H242741   1.965   4.955   7.301
 7036TIP3   OH242742   1.890   1.827   0.315
 7036TIP3    H142743   1.925   1.846   0.402
 7036TIP3    H242744   1.904   1.908   0.266
 7037TIP3   OH242745   3.283   3.496   7.572
 7037TIP3    H142746   3.279   3.418   7.516
 7037TIP3    H242747   3.376   3.516   7.578
 7038TIP3   OH242748   3.735   6.710   8.339
 7038TIP3    H142749   3.696   6.787   8.297
 7038TIP3    H242750   3.723   6.639   8.275
 7039TIP3   OH242751   1.977   4.361   1.621
 7039TIP3    H142752   1.912   4.407   1.675
 7039TIP3    H242753   1.942   4.366   1.532
 7040TIP3   OH242754   0.334   0.674   1.654
 7040TIP3    H142755   0.320   0.700   1.563
 7040TIP3    H242756   0.424   0.642   1.656
 7041TIP3   OH242757   0.871   0.862   1.747
 7041TIP3    H142758   0.862   0.929   1.815
 7041TIP3    H242759   0.865   0.779   1.793
 7042TIP3   OH242760   6.114   4.335   1.603
 7042TIP3    H142761   6.043   4.385   1.644
 7042TIP3    H242762   6.168   4.307   1.677
 7043TIP3   OH242763   4.969   4.566   8.447
 7043TIP3    H142764   4.919   4.528   8.374
 7043TIP3    H242765   4.904   4.579   8.516
 7044TIP3   OH242766   3.432   4.062   1.105
 7044TIP3    H142767   3.353   4.041   1.155
 7044TIP3    H242768   3.402   4.126   1.040
 7045TIP3   OH242769   2.568   2.924   7.750
 7045TIP3    H142770   2.661   2.940   7.740
 7045TIP3    H242771   2.552   2.929   7.844
 7046TIP3   OH242772   3.405   3.490   0.702
 7046TIP3    H142773   3.454   3.500   0.784
 7046TIP3    H242774   3.469   3.453   0.641
 7047TIP3   OH242775   2.628   4.093   8.940
 7047TIP3    H142776   2.666   4.173   8.902
 7047TIP3    H242777   2.534   4.101   8.924
 7048TIP3   OH242778   4.293   1.679   8.484
 7048TIP3    H142779   4.215   1.671   8.429
 7048TIP3    H242780   4.261   1.721   8.564
 7049TIP3   OH242781   3.493   3.958   7.245
 7049TIP3    H142782   3.587   3.940   7.243
 7049TIP3    H242783   3.485   4.047   7.210
 7050TIP3   OH242784   4.710   0.248   7.075
 7050TIP3    H142785   4.713   0.217   7.165
 7050TIP3    H242786   4.617   0.259   7.056
 7051TIP3   OH242787   0.801   1.589   7.923
 7051TIP3    H142788   0.758   1.632   7.849
 7051TIP3    H242789   0.804   1.657   7.991
 7052TIP3   OH242790   4.480   2.497   2.416
 7052TIP3    H142791   4.467   2.535   2.329
 7052TIP3    H242792   4.491   2.573   2.474
 7053TIP3   OH242793   0.084   2.525   8.659
 7053TIP3    H142794   0.145   2.460   8.625
 7053TIP3    H242795   0.139   2.596   8.690
 7054TIP3   OH242796   0.434   5.750   2.327
 7054TIP3    H142797   0.401   5.829   2.369
 7054TIP3    H242798   0.522   5.738   2.364
 7055TIP3   OH242799   5.261   3.151   0.282
 7055TIP3    H142800   5.339   3.104   0.311
 7055TIP3    H242801   5.223   3.188   0.362
 7056TIP3   OH242802   2.570   3.667   7.348
 7056TIP3    H142803   2.530   3.754   7.347
 7056TIP3    H242804   2.509   3.613   7.399
 7057TIP3   OH242805   3.862   2.196   1.402
 7057TIP3    H142806   3.843   2.218   1.493
 7057TIP3    H242807   3.805   2.121   1.383
 7058TIP3   OH242808   1.663   5.413   8.772
 7058TIP3    H142809   1.675   5.440   8.681
 7058TIP3    H242810   1.579   5.367   8.773
 7059TIP3   OH242811   1.148   5.093   1.987
 7059TIP3    H142812   1.112   5.161   1.929
 7059TIP3    H242813   1.076   5.030   1.997
 7060TIP3   OH242814   0.295   5.016   2.587
 7060TIP3    H142815   0.312   4.922   2.577
 7060TIP3    H242816   0.366   5.047   2.644
 7061TIP3   OH242817   5.525   5.035   8.113
 7061TIP3    H142818   5.441   5.048   8.068
 7061TIP3    H242819   5.535   4.940   8.119
 7062TIP3   OH242820   6.100   1.326   8.405
 7062TIP3    H142821   6.107   1.391   8.335
 7062TIP3    H242822   6.111   1.377   8.486
 7063TIP3   OH242823   6.227   4.744   7.925
 7063TIP3    H142824   6.290   4.757   7.854
 7063TIP3    H242825   6.195   4.832   7.945
 7064TIP3   OH242826   3.759   1.080   7.768
 7064TIP3    H142827   3.816   1.004   7.758
 7064TIP3    H242828   3.786   1.119   7.852
 7065TIP3   OH242829   0.440   0.559   0.200
 7065TIP3    H142830   0.374   0.570   0.269
 7065TIP3    H242831   0.486   0.643   0.198
 7066TIP3   OH242832   4.764   3.587   0.441
 7066TIP3    H142833   4.811   3.549   0.515
 7066TIP3    H242834   4.773   3.522   0.371
 7067TIP3   OH242835   2.341   0.934   0.636
 7067TIP3    H142836   2.384   1.008   0.678
 7067TIP3    H242837   2.409   0.866   0.632
 7068TIP3   OH242838   1.816   2.252   6.979
 7068TIP3    H142839   1.885   2.301   6.936
 7068TIP3    H242840   1.737   2.303   6.963
 7069TIP3   OH242841   5.698   0.209   0.490
 7069TIP3    H142842   5.692   0.288   0.436
 7069TIP3    H242843   5.675   0.138   0.430
 7070TIP3   OH242844   6.245   5.688   6.828
 7070TIP3    H142845   6.283   5.740   6.757
 7070TIP3    H242846   6.163   5.654   6.792
 7071TIP3   OH242847   6.742   4.403   2.382
 7071TIP3    H142848   6.695   4.483   2.355
 7071TIP3    H242849   6.801   4.384   2.309
 7072TIP3   OH242850   4.560   1.509   6.397
 7072TIP3    H142851   4.513   1.517   6.480
 7072TIP3    H242852   4.583   1.416   6.392
 7073TIP3   OH242853   0.936   3.056   0.598
 7073TIP3    H142854   0.982   3.010   0.527
 7073TIP3    H242855   1.000   3.062   0.668
 7074TIP3   OH242856   2.383   3.263   7.290
 7074TIP3    H142857   2.329   3.311   7.228
 7074TIP3    H242858   2.343   3.280   7.375
 7075TIP3   OH242859   1.874   5.565   7.841
 7075TIP3    H142860   1.858   5.592   7.751
 7075TIP3    H242861   1.845   5.474   7.844
 7076TIP3   OH242862   1.606   5.350   0.829
 7076TIP3    H142863   1.670   5.317   0.892
 7076TIP3    H242864   1.653   5.351   0.746
 7077TIP3   OH242865   2.805   5.490   0.985
 7077TIP3    H142866   2.892   5.453   1.002
 7077TIP3    H242867   2.810   5.524   0.896
 7078TIP3   OH242868   3.317   1.622   7.164
 7078TIP3    H142869   3.383   1.590   7.226
 7078TIP3    H242870   3.355   1.606   7.078
 7079TIP3   OH242871   2.073   3.281   1.298
 7079TIP3    H142872   2.013   3.236   1.357
 7079TIP3    H242873   2.017   3.318   1.229
 7080TIP3   OH242874   3.921   6.521   1.898
 7080TIP3    H142875   3.983   6.485   1.961
 7080TIP3    H242876   3.915   6.454   1.830
 7081TIP3   OH242877   5.178   5.588   0.371
 7081TIP3    H142878   5.090   5.589   0.409
 7081TIP3    H242879   5.167   5.542   0.287
 7082TIP3   OH242880   4.755   0.726   8.068
 7082TIP3    H142881   4.817   0.667   8.023
 7082TIP3    H242882   4.725   0.675   8.144
 7083TIP3   OH242883   4.046   1.574   7.115
 7083TIP3    H142884   3.972   1.515   7.128
 7083TIP3    H242885   4.112   1.544   7.178
 7084TIP3   OH242886   5.437   3.847   0.910
 7084TIP3    H142887   5.416   3.755   0.924
 7084TIP3    H242888   5.368   3.879   0.851
 7085TIP3   OH242889   3.438   5.715   6.950
 7085TIP3    H142890   3.443   5.782   6.883
 7085TIP3    H242891   3.344   5.700   6.962
 7086TIP3   OH242892   5.968   6.314   1.778
 7086TIP3    H142893   5.960   6.283   1.688
 7086TIP3    H242894   5.917   6.394   1.781
 7087TIP3   OH242895   5.834   5.489   0.415
 7087TIP3    H142896   5.796   5.520   0.333
 7087TIP3    H242897   5.780   5.414   0.439
 7088TIP3   OH242898   3.389   3.685   6.823
 7088TIP3    H142899   3.321   3.648   6.879
 7088TIP3    H242900   3.387   3.631   6.744
 7089TIP3   OH242901   3.056   3.081   8.335
 7089TIP3    H142902   3.048   2.985   8.330
 7089TIP3    H242903   3.105   3.105   8.256
 7090TIP3   OH242904   1.400   2.328   7.965
 7090TIP3    H142905   1.494   2.312   7.971
 7090TIP3    H242906   1.383   2.398   8.028
 7091TIP3   OH242907   3.504   4.730   1.986
 7091TIP3    H142908   3.528   4.796   1.921
 7091TIP3    H242909   3.434   4.680   1.946
 7092TIP3   OH242910   3.980   0.651   7.092
 7092TIP3    H142911   3.912   0.672   7.028
 7092TIP3    H242912   3.970   0.558   7.108
 7093TIP3   OH242913   5.221   6.204   1.081
 7093TIP3    H142914   5.177   6.287   1.101
 7093TIP3    H242915   5.299   6.230   1.031
 7094TIP3   OH242916   5.440   1.765   8.756
 7094TIP3    H142917   5.384   1.755   8.679
 7094TIP3    H242918   5.407   1.702   8.819
 7095TIP3   OH242919   0.702   0.812   6.389
 7095TIP3    H142920   0.678   0.881   6.451
 7095TIP3    H242921   0.637   0.819   6.319
 7096TIP3   OH242922   3.944   1.623   0.036
 7096TIP3    H142923   3.900   1.637  -0.048
 7096TIP3    H242924   4.011   1.556   0.017
 7097TIP3   OH242925   0.401   3.407   1.051
 7097TIP3    H142926   0.431   3.487   1.092
 7097TIP3    H242927   0.364   3.435   0.967
 7098TIP3   OH242928   0.496   2.860   8.539
 7098TIP3    H142929   0.573   2.915   8.526
 7098TIP3    H242930   0.438   2.882   8.466
 7099TIP3   OH242931   0.529   4.229   1.581
 7099TIP3    H142932   0.468   4.209   1.510
 7099TIP3    H242933   0.572   4.309   1.554
 7100TIP3   OH242934   0.235   3.716   0.879
 7100TIP3    H142935   0.227   3.621   0.869
 7100TIP3    H242936   0.161   3.751   0.829
 7101TIP3   OH242937   2.772   5.785   6.677
 7101TIP3    H142938   2.761   5.809   6.585
 7101TIP3    H242939   2.835   5.712   6.676
 7102TIP3   OH242940   3.557   4.091   0.286
 7102TIP3    H142941   3.490   4.146   0.244
 7102TIP3    H242942   3.516   4.058   0.365
 7103TIP3   OH242943   5.507   1.614   1.453
 7103TIP3    H142944   5.552   1.558   1.389
 7103TIP3    H242945   5.446   1.665   1.401
 7104TIP3   OH242946   1.191   6.184   7.328
 7104TIP3    H142947   1.114   6.239   7.316
 7104TIP3    H242948   1.157   6.102   7.364
 7105TIP3   OH242949   5.168   6.777   8.650
 7105TIP3    H142950   5.178   6.778   8.745
 7105TIP3    H242951   5.117   6.699   8.631
 7106TIP3   OH242952   4.713   2.889   7.001
 7106TIP3    H142953   4.622   2.889   6.971
 7106TIP3    H242954   4.760   2.836   6.937
 7107TIP3   OH242955   5.435   0.184   1.608
 7107TIP3    H142956   5.392   0.106   1.644
 7107TIP3    H242957   5.392   0.257   1.652
 7108TIP3   OH242958   0.282   5.498   8.524
 7108TIP3    H142959   0.369   5.528   8.553
 7108TIP3    H242960   0.241   5.463   8.603
 7109TIP3   OH242961   4.059   2.938   0.810
 7109TIP3    H142962   4.065   2.924   0.905
 7109TIP3    H242963   4.084   3.029   0.798
 7110TIP3   OH242964   6.004   3.780   1.930
 7110TIP3    H142965   6.048   3.843   1.988
 7110TIP3    H242966   5.913   3.779   1.960
 7111TIP3   OH242967   5.081   6.364   1.552
 7111TIP3    H142968   5.060   6.278   1.589
 7111TIP3    H242969   5.136   6.406   1.617
 7112TIP3   OH242970   5.260   2.913   2.115
 7112TIP3    H142971   5.206   2.926   2.193
 7112TIP3    H242972   5.350   2.914   2.147
 7113TIP3   OH242973   4.218   4.027   2.190
 7113TIP3    H142974   4.143   4.086   2.196
 7113TIP3    H242975   4.181   3.947   2.152
 7114TIP3   OH242976   5.163   3.718   8.004
 7114TIP3    H142977   5.134   3.705   7.914
 7114TIP3    H242978   5.193   3.809   8.007
 7115TIP3   OH242979   1.859   4.504   8.513
 7115TIP3    H142980   1.868   4.594   8.544
 7115TIP3    H242981   1.805   4.461   8.580
 7116TIP3   OH242982   2.622   0.153   7.810
 7116TIP3    H142983   2.696   0.210   7.788
 7116TIP3    H242984   2.602   0.172   7.902
 7117TIP3   OH242985   4.388   1.957   1.735
 7117TIP3    H142986   4.410   1.981   1.825
 7117TIP3    H242987   4.358   2.039   1.695
 7118TIP3   OH242988   4.994   3.119   8.557
 7118TIP3    H142989   5.065   3.055   8.561
 7118TIP3    H242990   4.949   3.111   8.641
 7119TIP3   OH242991   6.330   5.159   1.606
 7119TIP3    H142992   6.338   5.225   1.537
 7119TIP3    H242993   6.237   5.135   1.606
 7120TIP3   OH242994   4.743   2.171   2.299
 7120TIP3    H142995   4.781   2.256   2.318
 7120TIP3    H242996   4.767   2.117   2.375
 7121TIP3   OH242997   4.687   6.217   7.849
 7121TIP3    H142998   4.771   6.262   7.852
 7121TIP3    H242999   4.622   6.287   7.845
 7122TIP3   OH243000   6.791   1.511   7.583
 7122TIP3    H143001   6.696   1.521   7.585
 7122TIP3    H243002   6.824   1.596   7.552
 7123TIP3   OH243003   1.120   4.002   1.406
 7123TIP3    H143004   1.054   4.068   1.426
 7123TIP3    H243005   1.090   3.922   1.449
 7124TIP3   OH243006   2.302   3.824   1.136
 7124TIP3    H143007   2.262   3.860   1.215
 7124TIP3    H243008   2.385   3.786   1.166
 7125TIP3   OH243009   2.587   6.555   8.593
 7125TIP3    H143010   2.570   6.615   8.520
 7125TIP3    H243011   2.621   6.612   8.662
 7126TIP3   OH243012   5.351   1.801   8.211
 7126TIP3    H143013   5.272   1.798   8.265
 7126TIP3    H243014   5.422   1.778   8.271
 7127TIP3   OH243015   1.717   6.174   6.985
 7127TIP3    H143016   1.774   6.131   6.922
 7127TIP3    H243017   1.628   6.161   6.951
 7128TIP3   OH243018   1.912   2.721   0.385
 7128TIP3    H143019   1.862   2.766   0.453
 7128TIP3    H243020   1.857   2.647   0.359
 7129TIP3   OH243021   5.960   5.909   0.791
 7129TIP3    H143022   5.939   5.962   0.714
 7129TIP3    H243023   6.055   5.895   0.785
 7130TIP3   OH243024   0.760   3.013   6.367
 7130TIP3    H143025   0.706   3.090   6.382
 7130TIP3    H243026   0.768   2.972   6.453
 7131TIP3   OH243027   4.558   1.881   7.740
 7131TIP3    H143028   4.473   1.926   7.733
 7131TIP3    H243029   4.535   1.793   7.770
 7132TIP3   OH243030   2.039   0.179   0.065
 7132TIP3    H143031   1.984   0.113   0.108
 7132TIP3    H243032   2.069   0.235   0.136
 7133TIP3   OH243033   3.167   0.202   1.443
 7133TIP3    H143034   3.177   0.110   1.468
 7133TIP3    H243035   3.160   0.249   1.527
 7134TIP3   OH243036   3.146   1.213   8.077
 7134TIP3    H143037   3.099   1.148   8.025
 7134TIP3    H243038   3.136   1.295   8.028
 7135TIP3   OH243039   5.272   0.084   8.079
 7135TIP3    H143040   5.223   0.138   8.141
 7135TIP3    H243041   5.292   0.004   8.128
 7136TIP3   OH243042   5.230   5.413   1.018
 7136TIP3    H143043   5.162   5.478   1.036
 7136TIP3    H243044   5.236   5.362   1.098
 7137TIP3   OH243045   6.658   5.672   1.344
 7137TIP3    H143046   6.689   5.730   1.414
 7137TIP3    H243047   6.736   5.649   1.295
 7138TIP3   OH243048   4.529   6.293   8.282
 7138TIP3    H143049   4.464   6.228   8.306
 7138TIP3    H243050   4.505   6.371   8.332
 7139TIP3   OH243051   4.139   3.362   2.431
 7139TIP3    H143052   4.195   3.426   2.475
 7139TIP3    H243053   4.201   3.308   2.381
 7140TIP3   OH243054   0.113   3.383   8.979
 7140TIP3    H143055   0.081   3.473   8.990
 7140TIP3    H243056   0.205   3.388   9.006
 7141TIP3   OH243057   0.377   0.578   1.271
 7141TIP3    H143058   0.435   0.636   1.221
 7141TIP3    H243059   0.289   0.605   1.246
 7142TIP3   OH243060   6.272   4.524   1.062
 7142TIP3    H143061   6.335   4.567   1.004
 7142TIP3    H243062   6.324   4.495   1.137
 7143TIP3   OH243063   4.943   3.940   2.553
 7143TIP3    H143064   4.863   3.889   2.543
 7143TIP3    H243065   4.945   3.997   2.477
 7144TIP3   OH243066   2.254   4.851   6.921
 7144TIP3    H143067   2.308   4.930   6.908
 7144TIP3    H243068   2.302   4.799   6.985
 7145TIP3   OH243069   6.168   3.707   1.415
 7145TIP3    H143070   6.253   3.710   1.371
 7145TIP3    H243071   6.104   3.716   1.344
 7146TIP3   OH243072   1.480   4.090   6.322
 7146TIP3    H143073   1.508   4.181   6.328
 7146TIP3    H243074   1.405   4.092   6.262
 7147TIP3   OH243075   4.642   4.348   2.425
 7147TIP3    H143076   4.668   4.428   2.471
 7147TIP3    H243077   4.624   4.285   2.495
 7148TIP3   OH243078   0.248   2.452   0.762
 7148TIP3    H143079   0.194   2.469   0.685
 7148TIP3    H243080   0.186   2.448   0.835
 7149TIP3   OH243081   4.378   0.976   1.614
 7149TIP3    H143082   4.408   1.057   1.573
 7149TIP3    H243083   4.403   0.985   1.706
 7150TIP3   OH243084   5.885   0.945   1.485
 7150TIP3    H143085   5.915   0.855   1.492
 7150TIP3    H243086   5.838   0.961   1.567
 7151TIP3   OH243087   3.553   6.280   8.826
 7151TIP3    H143088   3.545   6.189   8.799
 7151TIP3    H243089   3.578   6.276   8.918
 7152TIP3   OH243090   1.992   6.150   0.831
 7152TIP3    H143091   2.085   6.163   0.813
 7152TIP3    H243092   1.990   6.070   0.884
 7153TIP3   OH243093   3.632   2.303   7.998
 7153TIP3    H143094   3.651   2.381   7.945
 7153TIP3    H243095   3.541   2.281   7.976
 7154TIP3   OH243096   3.712   3.718   8.591
 7154TIP3    H143097   3.784   3.770   8.557
 7154TIP3    H243098   3.662   3.779   8.646
 7155TIP3   OH243099   0.449   4.927   2.161
 7155TIP3    H143100   0.415   4.995   2.219
 7155TIP3    H243101   0.501   4.871   2.219
 7156TIP3   OH243102   1.308   4.066   8.958
 7156TIP3    H143103   1.369   4.127   9.000
 7156TIP3    H243104   1.281   4.109   8.877
 7157TIP3   OH243105   2.687   0.018   0.323
 7157TIP3    H143106   2.662  -0.013   0.410
 7157TIP3    H243107   2.715  -0.061   0.277
 7158TIP3   OH243108   4.980   2.131   8.615
 7158TIP3    H143109   4.988   2.054   8.672
 7158TIP3    H243110   4.885   2.144   8.606
 7159TIP3   OH243111   1.513   4.343   2.318
 7159TIP3    H143112   1.478   4.263   2.281
 7159TIP3    H243113   1.450   4.368   2.386
 7160TIP3   OH243114   2.306   1.830   8.812
 7160TIP3    H143115   2.396   1.845   8.784
 7160TIP3    H243116   2.291   1.737   8.799
 7161TIP3   OH243117   2.293   2.544   1.323
 7161TIP3    H143118   2.307   2.599   1.246
 7161TIP3    H243119   2.363   2.569   1.384
 7162TIP3   OH243120   1.607   4.285   1.859
 7162TIP3    H143121   1.590   4.214   1.921
 7162TIP3    H243122   1.666   4.247   1.795
 7163TIP3   OH243123   2.012   4.174   1.081
 7163TIP3    H143124   2.043   4.258   1.048
 7163TIP3    H243125   2.070   4.155   1.155
 7164TIP3   OH243126   2.435   3.161   0.979
 7164TIP3    H143127   2.523   3.124   0.991
 7164TIP3    H243128   2.391   3.099   0.921
 7165TIP3   OH243129   1.921   2.916   1.781
 7165TIP3    H143130   1.890   2.827   1.797
 7165TIP3    H243131   2.005   2.905   1.736
 7166TIP3   OH243132   4.932   1.683   1.700
 7166TIP3    H143133   5.022   1.654   1.689
 7166TIP3    H243134   4.927   1.715   1.790
 7167TIP3   OH243135   6.205   4.618   7.134
 7167TIP3    H143136   6.200   4.529   7.169
 7167TIP3    H243137   6.116   4.637   7.106
 7168TIP3   OH243138   2.309   2.691   8.094
 7168TIP3    H143139   2.288   2.716   8.184
 7168TIP3    H243140   2.291   2.769   8.042
 7169TIP3   OH243141   0.748   0.262   1.458
 7169TIP3    H143142   0.683   0.332   1.447
 7169TIP3    H243143   0.703   0.197   1.513
 7170TIP3   OH243144   3.667   6.631   0.627
 7170TIP3    H143145   3.583   6.613   0.583
 7170TIP3    H243146   3.672   6.565   0.696
 7171TIP3   OH243147   6.650   3.264   0.708
 7171TIP3    H143148   6.701   3.246   0.629
 7171TIP3    H243149   6.573   3.208   0.700
 7172TIP3   OH243150   2.263   3.441   7.805
 7172TIP3    H143151   2.238   3.495   7.881
 7172TIP3    H243152   2.351   3.472   7.783
 7173TIP3   OH243153   1.061   3.764   1.516
 7173TIP3    H143154   1.083   3.678   1.482
 7173TIP3    H243155   0.965   3.765   1.518
 7174TIP3   OH243156   3.707   0.322   8.602
 7174TIP3    H143157   3.744   0.389   8.660
 7174TIP3    H243158   3.653   0.372   8.540
 7175TIP3   OH243159   3.785   3.048   8.276
 7175TIP3    H143160   3.697   3.068   8.245
 7175TIP3    H243161   3.773   2.981   8.343
 7176TIP3   OH243162   0.025   1.368   7.867
 7176TIP3    H143163  -0.034   1.439   7.841
 7176TIP3    H243164   0.024   1.307   7.794
 7177TIP3   OH243165   5.038   5.337   8.360
 7177TIP3    H143166   5.040   5.379   8.274
 7177TIP3    H243167   5.090   5.257   8.349
 7178TIP3   OH243168   6.774   3.602   1.824
 7178TIP3    H143169   6.799   3.518   1.863
 7178TIP3    H243170   6.704   3.635   1.881
 7179TIP3   OH243171   4.819   3.573   1.489
 7179TIP3    H143172   4.752   3.610   1.432
 7179TIP3    H243173   4.797   3.480   1.496
 7180TIP3   OH243174   6.277   0.733   0.209
 7180TIP3    H143175   6.260   0.824   0.182
 7180TIP3    H243176   6.369   0.732   0.234
 7181TIP3   OH243177   2.703   5.107   1.767
 7181TIP3    H143178   2.627   5.054   1.794
 7181TIP3    H243179   2.693   5.189   1.815
 7182TIP3   OH243180   0.177   2.122   8.227
 7182TIP3    H143181   0.168   2.182   8.153
 7182TIP3    H243182   0.210   2.041   8.189
 7183TIP3   OH243183   1.479   3.763   8.398
 7183TIP3    H143184   1.392   3.739   8.431
 7183TIP3    H243185   1.539   3.702   8.441
 7184TIP3   OH243186   5.264   4.908   0.074
 7184TIP3    H143187   5.183   4.887   0.028
 7184TIP3    H243188   5.270   4.843   0.144
 7185TIP3   OH243189   0.916   2.512   1.165
 7185TIP3    H143190   0.947   2.528   1.254
 7185TIP3    H243191   0.854   2.583   1.148
 7186TIP3   OH243192   3.887   6.219   0.822
 7186TIP3    H143193   3.914   6.128   0.809
 7186TIP3    H243194   3.933   6.267   0.754
 7187TIP3   OH243195   4.880   3.092   7.589
 7187TIP3    H143196   4.810   3.125   7.532
 7187TIP3    H243197   4.956   3.083   7.532
 7188LIG     C143198   3.422   3.628   8.033
 7188LIG     C243199   3.501   3.502   7.999
 7188LIG     C343200   3.555   3.505   7.857
 7188LIG      O43201   3.413   3.392   8.010
 7188LIG     H143202   3.336   3.640   7.963
 7188LIG     H243203   3.487   3.718   8.023
 7188LIG     H343204   3.382   3.625   8.137
 7188LIG     H443205   3.585   3.489   8.071
 7188LIG     H543206   3.623   3.591   7.843
 7188LIG     H643207   3.471   3.515   7.784
 7188LIG     H743208   3.610   3.411   7.834
 7188LIG     H843209   3.384   3.389   8.102
   6.79192   6.79192   8.98879
