Title
43194
    1CHL1    C3    1   3.301   3.063   5.870  0.7102  0.4877 -0.2344
    1CHL1    H3    2   3.410   3.083   5.870  1.3099 -2.2574 -0.9423
    1CHL1    O3    3   3.246   3.072   6.003 -0.5278 -0.0012 -0.0150
    1CHL1   H3'    4   3.184   2.999   6.012  0.1601 -0.8139 -1.5179
    1CHL1    C4    5   3.228   3.162   5.774 -0.0921  0.0330  0.0712
    1CHL1   H4A    6   3.121   3.132   5.773  0.1337 -0.7570 -0.5808
    1CHL1   H4B    7   3.239   3.265   5.816  0.3571  0.5608 -1.2853
    1CHL1    C5    8   3.272   3.161   5.633  0.1053 -0.3120 -0.8856
    1CHL1    C6    9   3.329   3.268   5.575  0.8352 -0.9477  0.6527
    1CHL1    H6   10   3.335   3.365   5.627 -1.3115 -0.9302  0.9948
    1CHL1    C7   11   3.383   3.277   5.432  0.4169 -0.1686 -1.2139
    1CHL1   H7A   12   3.353   3.372   5.382 -1.7660 -0.0772  0.1134
    1CHL1   H7B   13   3.492   3.277   5.452  0.5020 -0.1886 -1.6752
    1CHL1    C8   14   3.349   3.149   5.355 -0.0985  0.6137 -0.0572
    1CHL1    H8   15   3.241   3.150   5.331 -0.1493 -0.2189  0.1050
    1CHL1   C14   16   3.433   3.138   5.228 -0.5873 -0.0751 -0.0980
    1CHL1   H14   17   3.537   3.124   5.265 -0.0275 -0.1424 -1.6141
    1CHL1   C15   18   3.432   3.254   5.131  0.2481 -0.2834  0.1094
    1CHL1  H15A   19   3.330   3.299   5.124  0.0568 -0.6474  0.5618
    1CHL1  H15B   20   3.499   3.342   5.142 -0.5733  0.2043  1.5384
    1CHL1   C16   21   3.473   3.190   4.999  0.0837 -0.3755 -0.2894
    1CHL1  H16A   22   3.393   3.201   4.923 -0.6599  2.8554  0.8251
    1CHL1  H16B   23   3.568   3.236   4.963  0.1181  0.4324  0.8021
    1CHL1   C17   24   3.500   3.035   5.023 -0.2861  0.3570  0.2587
    1CHL1   H17   25   3.604   3.020   5.058 -0.1982 -1.0532 -0.5551
    1CHL1   C13   26   3.417   3.010   5.140  0.1753 -0.1512 -0.1954
    1CHL1   C18   27   3.268   2.995   5.106  0.3580  0.0912 -0.4214
    1CHL1  H18A   28   3.201   2.984   5.194  1.5251 -1.0077  0.3593
    1CHL1  H18B   29   3.216   3.080   5.056 -0.1514  0.3684  0.5504
    1CHL1  H18C   30   3.256   2.903   5.045 -1.1728 -1.4087  1.9759
    1CHL1   C12   31   3.462   2.894   5.222  0.1242  0.5361 -1.0722
    1CHL1  H12A   32   3.432   2.798   5.174 -0.5582  0.2965 -0.1993
    1CHL1  H12B   33   3.573   2.887   5.231  0.0632 -2.5715 -1.6463
    1CHL1   C11   34   3.394   2.896   5.362 -0.7298 -0.1531  1.6331
    1CHL1  H11A   35   3.304   2.830   5.357 -0.2224 -0.7509  0.0741
    1CHL1  H11B   36   3.461   2.829   5.420 -1.9264 -2.4604  0.4870
    1CHL1    C9   37   3.378   3.028   5.449 -0.4206 -0.5528  0.4008
    1CHL1    H9   38   3.479   3.044   5.493 -0.7229 -2.3483  1.9175
    1CHL1   C10   39   3.279   3.019   5.573  0.1994 -0.8040  0.1500
    1CHL1   C19   40   3.133   2.980   5.515  0.6301 -0.1264 -0.0942
    1CHL1  H19A   41   3.054   2.978   5.593 -1.6040 -1.7426 -2.2609
    1CHL1  H19B   42   3.100   3.048   5.434  1.5642 -2.6307 -2.7460
    1CHL1  H19C   43   3.138   2.876   5.476  1.2839 -0.6115  1.2242
    1CHL1    C1   44   3.331   2.915   5.671 -0.4539  0.4966 -0.8028
    1CHL1   H1A   45   3.309   2.817   5.625  0.4007  0.6606 -1.5871
    1CHL1   H1B   46   3.442   2.915   5.684 -0.6038  1.3581  0.7704
    1CHL1    C2   47   3.280   2.916   5.816  0.3079 -0.0200  0.5088
    1CHL1   H2A   48   3.327   2.836   5.876  1.0782 -0.6532 -0.8964
    1CHL1   H2B   49   3.174   2.882   5.817  0.4729 -0.5247  1.0915
    1CHL1   C20   50   3.478   2.959   4.891  0.0564 -0.1161 -0.6615
    1CHL1   H20   51   3.372   2.964   4.858 -0.2216 -1.9262 -0.1772
    1CHL1   C21   52   3.516   2.809   4.904 -0.0343  0.6032  0.1526
    1CHL1  H21A   53   3.449   2.750   4.969 -0.4085  0.1375 -0.6459
    1CHL1  H21B   54   3.618   2.786   4.942 -0.6855 -0.6217  1.2416
    1CHL1  H21C   55   3.508   2.750   4.810  2.7570  0.2917  0.0302
    1CHL1   C22   56   3.557   3.031   4.767  0.8040  0.6573  0.3404
    1CHL1  H22A   57   3.519   3.136   4.762  0.6432  0.6242  0.8410
    1CHL1  H22B   58   3.658   3.038   4.812  0.6787  1.9528  0.4724
    1CHL1   C23   59   3.552   2.965   4.632  0.4788  0.2356  0.3101
    1CHL1  H23A   60   3.597   2.863   4.641 -0.4003 -0.4134 -2.0744
    1CHL1  H23B   61   3.449   2.959   4.592  0.5091  1.8396 -0.0749
    1CHL1   C24   62   3.642   3.050   4.542  0.0381 -0.7273 -0.3563
    1CHL1  H24A   63   3.591   3.146   4.517 -0.3645 -1.1698 -1.2940
    1CHL1  H24B   64   3.738   3.067   4.595  0.5659 -1.8576 -0.9284
    1CHL1   C25   65   3.673   2.999   4.403 -0.1636  0.3742 -0.1769
    1CHL1   H25   66   3.706   2.894   4.419  1.3790  0.7567 -0.5955
    1CHL1   C26   67   3.558   3.008   4.306 -0.0616 -0.1602 -0.4984
    1CHL1  H26A   68   3.544   3.114   4.278 -2.2599 -0.6140 -1.2992
    1CHL1  H26B   69   3.570   2.944   4.216  0.9129 -2.0392  0.8851
    1CHL1  H26C   70   3.459   2.981   4.350 -0.0220 -0.0563 -0.3417
    1CHL1   C27   71   3.794   3.068   4.342 -0.6426  0.0714 -0.5223
    1CHL1  H27A   72   3.794   3.176   4.314  3.1032  0.0455 -1.1774
    1CHL1  H27B   73   3.878   3.060   4.414  2.2066  1.5093 -3.4216
    1CHL1  H27C   74   3.824   3.017   4.248 -0.8770 -0.7600 -0.1543
    2CHL1    C3   75   3.158   6.624   6.349  0.1119  0.2073 -0.3859
    2CHL1    H3   76   3.125   6.726   6.377  0.6748 -0.2244  2.1640
    2CHL1    O3   77   3.168   6.555   6.472  0.0777 -0.1336 -0.1497
    2CHL1   H3'   78   3.141   6.463   6.464 -1.6224  0.0513  2.3603
    2CHL1    C4   79   3.044   6.554   6.263  0.2273  0.3617  0.3993
    2CHL1   H4A   80   3.052   6.444   6.275  1.8369  0.4403  0.3756
    2CHL1   H4B   81   2.951   6.579   6.317 -0.5673 -1.7423  0.1152
    2CHL1    C5   82   3.051   6.590   6.118  0.4610  0.4295 -0.4865
    2CHL1    C6   83   2.940   6.635   6.054 -0.6944  0.3185  0.0821
    2CHL1    H6   84   2.845   6.653   6.107 -0.9873  0.4588 -0.4708
    2CHL1    C7   85   2.947   6.663   5.910 -0.1304 -0.0684  0.5674
    2CHL1   H7A   86   2.864   6.619   5.851  0.0394 -1.2339  1.1685
    2CHL1   H7B   87   2.933   6.772   5.893  0.3786 -0.3111 -1.7336
    2CHL1    C8   88   3.071   6.612   5.832  0.4998  0.4637  0.1843
    2CHL1    H8   89   3.051   6.505   5.810  1.0378  0.4060 -0.0632
    2CHL1   C14   90   3.085   6.694   5.698 -0.3547 -0.2480 -0.4130
    2CHL1   H14   91   3.102   6.798   5.735  0.1004 -1.4002  2.9568
    2CHL1   C15   92   2.964   6.712   5.603  0.0719 -0.1069  0.4360
    2CHL1  H15A   93   2.922   6.616   5.564 -0.2159  0.4463 -0.6791
    2CHL1  H15B   94   2.891   6.787   5.640  0.0525 -0.4932  1.1962
    2CHL1   C16   95   3.023   6.782   5.479 -0.1728 -0.6577  0.7742
    2CHL1  H16A   96   2.988   6.720   5.394  0.6686 -0.6331  0.4051
    2CHL1  H16B   97   2.977   6.883   5.479 -1.9125 -1.4232  0.5929
    2CHL1   C17   98   3.180   6.773   5.501  0.0328 -0.1732  0.0062
    2CHL1   H17   99   3.198   6.863   5.562 -0.2909  0.4813 -0.8351
    2CHL1   C13  100   3.202   6.666   5.614  0.2915  0.1057  0.9783
    2CHL1   C18  101   3.179   6.523   5.549  0.0733 -0.4527  0.2262
    2CHL1  H18A  102   3.088   6.515   5.485  2.0199 -2.1133 -2.5393
    2CHL1  H18B  103   3.269   6.495   5.491  0.0755  1.1154 -0.5754
    2CHL1  H18C  104   3.165   6.453   5.634  0.9619 -1.0480 -0.1104
    2CHL1   C12  105   3.334   6.671   5.697 -0.3569  0.0246  0.5318
    2CHL1  H12A  106   3.426   6.657   5.636  0.8097  2.9521  1.4330
    2CHL1  H12B  107   3.337   6.780   5.717 -0.5629  0.7120 -2.5639
    2CHL1   C11  108   3.317   6.589   5.823 -0.0364  0.4577 -0.5290
    2CHL1  H11A  109   3.298   6.480   5.807 -1.3380  0.0041  3.1531
    2CHL1  H11B  110   3.405   6.594   5.891 -1.7869 -0.3985  1.9425
    2CHL1    C9  111   3.197   6.636   5.908 -0.1573 -0.6052 -0.6423
    2CHL1    H9  112   3.208   6.745   5.927 -0.7365 -0.3254 -1.8406
    2CHL1   C10  113   3.186   6.576   6.052  0.5321  0.7797  0.1968
    2CHL1   C19  114   3.219   6.428   6.043 -0.6020 -0.4024 -0.4690
    2CHL1  H19A  115   3.189   6.374   6.136  0.5383  1.7301  1.2402
    2CHL1  H19B  116   3.157   6.380   5.964 -0.2014 -1.3262 -0.2349
    2CHL1  H19C  117   3.326   6.402   6.025 -0.3511 -0.2747  0.7103
    2CHL1    C1  118   3.286   6.656   6.139 -0.2972  0.6379  0.3150
    2CHL1   H1A  119   3.382   6.639   6.085 -1.3846 -0.3961 -1.4071
    2CHL1   H1B  120   3.260   6.763   6.133 -0.2215  0.6131 -0.6256
    2CHL1    C2  121   3.300   6.605   6.277  0.3469  0.0714  0.4173
    2CHL1   H2A  122   3.374   6.655   6.343 -0.8398  2.7471 -0.1370
    2CHL1   H2B  123   3.325   6.497   6.279  1.6107  0.3430  0.4216
    2CHL1   C20  124   3.280   6.773   5.386 -0.5824  0.2954  0.2317
    2CHL1   H20  125   3.332   6.675   5.386 -2.8602 -1.0561 -2.3250
    2CHL1   C21  126   3.385   6.883   5.411  0.4910  0.2967 -0.1441
    2CHL1  H21A  127   3.470   6.895   5.341  0.6003  1.0338  0.1096
    2CHL1  H21B  128   3.434   6.868   5.510  2.4731  0.7854 -1.0093
    2CHL1  H21C  129   3.329   6.978   5.414 -0.5705 -0.3281  0.7998
    2CHL1   C22  130   3.221   6.777   5.245 -0.1981  0.4233  0.8789
    2CHL1  H22A  131   3.145   6.698   5.223  1.2596 -0.7338 -0.2583
    2CHL1  H22B  132   3.155   6.866   5.238 -2.0361 -0.9603 -0.7014
    2CHL1   C23  133   3.328   6.780   5.133 -0.3422  0.0243 -0.9296
    2CHL1  H23A  134   3.383   6.876   5.138 -1.3169  0.5190  1.6612
    2CHL1  H23B  135   3.404   6.710   5.173  0.4487  1.0016 -0.6735
    2CHL1   C24  136   3.285   6.748   4.990  0.2701 -0.1513  0.1325
    2CHL1  H24A  137   3.383   6.739   4.939  0.4125  0.5481  0.2754
    2CHL1  H24B  138   3.232   6.650   4.985  2.1700 -1.1986 -0.4692
    2CHL1   C25  139   3.207   6.866   4.920  0.3046  0.9951  0.1908
    2CHL1   H25  140   3.120   6.888   4.984  1.3467  0.6138  1.7957
    2CHL1   C26  141   3.293   6.990   4.895 -0.2402  0.3158 -0.3586
    2CHL1  H26A  142   3.387   6.957   4.845 -0.9483 -0.2987 -1.2990
    2CHL1  H26B  143   3.246   7.068   4.831 -1.1609 -0.2382 -0.3748
    2CHL1  H26C  144   3.323   7.031   4.994 -1.8147 -0.3271  0.4112
    2CHL1   C27  145   3.152   6.826   4.784 -0.3290 -0.3937  0.3511
    2CHL1  H27A  146   3.092   6.733   4.793 -1.1665 -0.0111 -1.0871
    2CHL1  H27B  147   3.092   6.912   4.749  1.7859  1.1045  0.2101
    2CHL1  H27C  148   3.239   6.812   4.716  1.5675  0.3842  2.4977
    3CHL1    C3  149   4.222   2.752   6.080 -0.6100  0.0551 -0.4703
    3CHL1    H3  150   4.120   2.710   6.063 -0.2890 -0.9528 -0.0219
    3CHL1    O3  151   4.259   2.800   6.215  1.1221  0.2982  0.1424
    3CHL1   H3'  152   4.314   2.877   6.203  1.5647 -0.2884 -2.4021
    3CHL1    C4  153   4.314   2.633   6.040 -0.3141 -0.0507 -0.3504
    3CHL1   H4A  154   4.414   2.682   6.047  0.3599 -1.0452 -2.1799
    3CHL1   H4B  155   4.317   2.558   6.122  0.0310  0.0731 -0.2473
    3CHL1    C5  156   4.305   2.582   5.908  0.0928  0.5108  0.6894
    3CHL1    C6  157   4.298   2.450   5.887 -1.0551  0.1711  0.5203
    3CHL1    H6  158   4.306   2.382   5.974 -0.1869 -1.3111 -0.6745
    3CHL1    C7  159   4.283   2.393   5.750 -0.0421  0.2166  0.7354
    3CHL1   H7A  160   4.360   2.313   5.736 -0.7196 -0.5339  1.2329
    3CHL1   H7B  161   4.190   2.334   5.736 -0.7139  0.4397  3.6390
    3CHL1    C8  162   4.310   2.493   5.630  0.6955 -0.5307 -0.4321
    3CHL1    H8  163   4.420   2.501   5.629  0.6066  1.5205 -2.7027
    3CHL1   C14  164   4.260   2.437   5.503 -0.6334 -0.4355 -0.2972
    3CHL1   H14  165   4.149   2.426   5.499 -0.5424 -1.2067 -1.0943
    3CHL1   C15  166   4.308   2.299   5.463 -0.2782 -0.1071 -0.5066
    3CHL1  H15A  167   4.418   2.313   5.474 -0.1026 -0.7694 -1.3058
    3CHL1  H15B  168   4.272   2.212   5.521  0.2314  0.9050  1.3990
    3CHL1   C16  169   4.273   2.290   5.315 -0.1775  0.2507 -0.1008
    3CHL1  H16A  170   4.358   2.240   5.264  0.8650  0.3802  1.4725
    3CHL1  H16B  171   4.185   2.224   5.302  0.4045 -0.4546 -0.5690
    3CHL1   C17  172   4.241   2.428   5.268  0.0302  0.1571 -0.4450
    3CHL1   H17  173   4.131   2.436   5.280 -0.1427 -1.5324 -0.6567
    3CHL1   C13  174   4.291   2.527   5.383  0.3362 -0.1365 -0.2390
    3CHL1   C18  175   4.441   2.562   5.379 -0.6959 -0.8211  0.3712
    3CHL1  H18A  176   4.476   2.615   5.470 -0.3062 -0.4018 -0.0206
    3CHL1  H18B  177   4.502   2.470   5.364 -1.1206 -1.7227  3.5446
    3CHL1  H18C  178   4.458   2.620   5.286  0.2218  2.4693  2.4097
    3CHL1   C12  179   4.209   2.652   5.410 -0.8091 -0.6258 -0.5039
    3CHL1  H12A  180   4.228   2.722   5.325  1.1973  0.0420  0.4366
    3CHL1  H12B  181   4.102   2.625   5.421 -0.4011 -1.3035  2.8332
    3CHL1   C11  182   4.243   2.729   5.537 -0.3239  0.2378 -0.2313
    3CHL1  H11A  183   4.339   2.780   5.512  0.6007 -0.7878  1.0809
    3CHL1  H11B  184   4.162   2.804   5.548 -0.4314 -0.0612  1.2206
    3CHL1    C9  185   4.244   2.630   5.659 -0.3296  0.0490  0.2009
    3CHL1    H9  186   4.138   2.597   5.673 -0.8940  0.9394 -1.6711
    3CHL1   C10  187   4.294   2.689   5.793 -0.1443 -0.8289  0.5355
    3CHL1   C19  188   4.433   2.752   5.768  0.1841  0.0789 -0.0083
    3CHL1  H19A  189   4.508   2.682   5.727 -0.4813 -0.3694 -0.4770
    3CHL1  H19B  190   4.426   2.832   5.692 -3.7375 -1.3142 -1.3620
    3CHL1  H19C  191   4.476   2.791   5.863  0.0334  0.6250 -0.1560
    3CHL1    C1  192   4.202   2.810   5.842  0.0096  0.1146 -0.5647
    3CHL1   H1A  193   4.221   2.889   5.767 -2.0421  0.7659 -0.4624
    3CHL1   H1B  194   4.097   2.775   5.831 -0.7286  1.6711  1.0878
    3CHL1    C2  195   4.240   2.865   5.978 -0.0049  0.1504 -0.4053
    3CHL1   H2A  196   4.181   2.955   6.006  0.6074  0.5569 -0.4071
    3CHL1   H2B  197   4.345   2.899   5.973  0.0026 -0.0129 -2.3514
    3CHL1   C20  198   4.265   2.457   5.120 -1.0322  0.3598  0.4823
    3CHL1   H20  199   4.375   2.448   5.107 -1.1991 -1.3776  0.0619
    3CHL1   C21  200   4.220   2.600   5.075  0.7489 -0.4971  0.8127
    3CHL1  H21A  201   4.286   2.681   5.112  0.7469  0.2314 -0.7528
    3CHL1  H21B  202   4.112   2.614   5.098  0.5181 -2.8309  1.4311
    3CHL1  H21C  203   4.223   2.613   4.965  3.0764  1.0468  0.9881
    3CHL1   C22  204   4.196   2.350   5.029  0.3972 -0.9019  0.1124
    3CHL1  H22A  205   4.211   2.248   5.070 -0.0874 -0.4656  1.4106
    3CHL1  H22B  206   4.086   2.365   5.035  0.6332  3.3006 -2.4712
    3CHL1   C23  207   4.236   2.348   4.875  0.2051  0.0161 -0.3446
    3CHL1  H23A  208   4.235   2.443   4.818 -0.4098  0.3412  0.1903
    3CHL1  H23B  209   4.340   2.310   4.878 -0.2604 -1.3491 -0.8464
    3CHL1   C24  210   4.153   2.237   4.806 -0.3897  0.0181 -0.9838
    3CHL1  H24A  211   4.135   2.145   4.865  0.1820 -0.8189 -2.0739
    3CHL1  H24B  212   4.051   2.279   4.789 -0.7848 -1.0342 -1.3041
    3CHL1   C25  213   4.210   2.179   4.681 -0.4214  0.2679  0.6723
    3CHL1   H25  214   4.312   2.141   4.704 -0.9493 -1.1904  0.7383
    3CHL1   C26  215   4.124   2.056   4.640  0.1523  0.3135  0.0383
    3CHL1  H26A  216   4.161   1.963   4.688  1.6242 -0.0699 -1.7168
    3CHL1  H26B  217   4.022   2.084   4.673 -1.1171 -3.1259 -0.5433
    3CHL1  H26C  218   4.121   2.051   4.529  0.3291  1.0959 -0.0076
    3CHL1   C27  219   4.207   2.283   4.572  0.0147 -0.5252  0.0885
    3CHL1  H27A  220   4.104   2.295   4.534 -0.4719 -0.6093  1.3130
    3CHL1  H27B  221   4.238   2.380   4.616 -0.4698  0.4720 -1.6842
    3CHL1  H27C  222   4.274   2.248   4.490  3.2219 -0.3121  2.4113
    4CHL1    C3  223   4.481   4.031   5.629 -0.3094 -0.2680 -0.0546
    4CHL1    H3  224   4.382   3.981   5.633  0.5782 -2.0840  0.4790
    4CHL1    O3  225   4.529   4.003   5.761  0.6313  0.0352 -0.6095
    4CHL1   H3'  226   4.455   4.025   5.818 -0.3590 -0.0998 -1.8034
    4CHL1    C4  227   4.583   3.979   5.514 -0.3491 -0.0548 -0.0809
    4CHL1   H4A  228   4.681   4.024   5.541  0.2509 -2.6023  2.3855
    4CHL1   H4B  229   4.592   3.869   5.528  0.5258 -0.2910 -2.0556
    4CHL1    C5  230   4.528   4.027   5.379  0.1851 -0.9041 -0.7776
    4CHL1    C6  231   4.491   3.938   5.281  0.1129  0.1432 -0.1311
    4CHL1    H6  232   4.495   3.830   5.303  0.1242 -0.0641 -1.0963
    4CHL1    C7  233   4.449   3.975   5.146  0.1851  0.2092 -0.1768
    4CHL1   H7A  234   4.512   3.922   5.071  0.9079  1.4778 -0.4888
    4CHL1   H7B  235   4.339   3.957   5.141 -0.0798  1.8230 -0.7457
    4CHL1    C8  236   4.472   4.133   5.110  0.2228  0.5243  0.2240
    4CHL1    H8  237   4.582   4.135   5.097  0.3499 -1.3586  0.7513
    4CHL1   C14  238   4.399   4.175   4.984  0.0808 -0.0274 -0.5263
    4CHL1   H14  239   4.298   4.146   5.021  0.5503  0.0166  0.8610
    4CHL1   C15  240   4.405   4.091   4.851  0.2181  0.4040  0.2541
    4CHL1  H15A  241   4.503   4.040   4.841  0.2649  0.4272  0.5679
    4CHL1  H15B  242   4.325   4.014   4.857  0.3431  0.3576  2.6846
    4CHL1   C16  243   4.376   4.195   4.749 -0.7648 -0.1881  0.9566
    4CHL1  H16A  244   4.473   4.217   4.699 -1.2515  0.2391  0.1752
    4CHL1  H16B  245   4.309   4.166   4.666 -1.4310  1.0335  1.0439
    4CHL1   C17  246   4.327   4.327   4.817  0.4454  0.2955 -0.4074
    4CHL1   H17  247   4.222   4.302   4.844  1.0751 -2.6888 -0.3847
    4CHL1   C13  248   4.401   4.326   4.955  0.1559 -0.3312 -0.4891
    4CHL1   C18  249   4.549   4.358   4.919  0.3643 -0.0060 -0.4682
    4CHL1  H18A  250   4.550   4.467   4.897 -1.2297  0.5789  2.0186
    4CHL1  H18B  251   4.610   4.336   5.009 -0.1393 -0.3384 -0.2039
    4CHL1  H18C  252   4.592   4.288   4.845 -0.2209 -1.3881  0.4610
    4CHL1   C12  253   4.348   4.401   5.072 -0.3796 -0.5268 -0.5242
    4CHL1  H12A  254   4.350   4.510   5.049 -0.7875  0.1094  2.1678
    4CHL1  H12B  255   4.243   4.369   5.091  0.0396 -0.4588  2.3329
    4CHL1   C11  256   4.427   4.373   5.202 -0.1924  0.4074  0.3901
    4CHL1  H11A  257   4.530   4.410   5.182 -0.7185  1.5651 -0.2827
    4CHL1  H11B  258   4.404   4.436   5.291 -0.8521  1.2922 -0.3886
    4CHL1    C9  259   4.429   4.217   5.230 -0.9734  0.0185  0.0063
    4CHL1    H9  260   4.319   4.204   5.243 -0.8440 -1.6380 -0.3466
    4CHL1   C10  261   4.506   4.182   5.358  0.4885  0.5466 -0.2777
    4CHL1   C19  262   4.640   4.251   5.357 -0.5926 -0.0743  0.2184
    4CHL1  H19A  263   4.708   4.201   5.430  0.5288  0.7336 -0.2274
    4CHL1  H19B  264   4.697   4.240   5.262 -0.6143 -1.5038  0.3459
    4CHL1  H19C  265   4.619   4.357   5.386 -0.2649  0.0485  0.0108
    4CHL1    C1  266   4.414   4.227   5.476  0.0768 -0.1225 -0.2240
    4CHL1   H1A  267   4.392   4.336   5.480 -0.6163 -0.2647  3.2477
    4CHL1   H1B  268   4.317   4.175   5.465  0.0211  0.0729 -0.6672
    4CHL1    C2  269   4.463   4.187   5.613 -0.4939 -0.0407 -0.7274
    4CHL1   H2A  270   4.404   4.240   5.692 -0.1313 -0.2255 -0.3269
    4CHL1   H2B  271   4.566   4.226   5.621 -1.0536  2.0498 -2.7951
    4CHL1   C20  272   4.332   4.443   4.721  0.6854 -0.5349 -0.4977
    4CHL1   H20  273   4.438   4.464   4.698  0.5312 -1.3908 -2.1284
    4CHL1   C21  274   4.279   4.571   4.797  0.2270  0.3905  0.2549
    4CHL1  H21A  275   4.174   4.552   4.831 -1.2707  2.2398 -2.8595
    4CHL1  H21B  276   4.275   4.656   4.726  2.9495  0.0630 -0.3863
    4CHL1  H21C  277   4.348   4.595   4.880 -0.3563 -0.4448  1.0033
    4CHL1   C22  278   4.256   4.414   4.593 -1.1042 -0.0205 -0.0605
    4CHL1  H22A  279   4.294   4.326   4.536  0.0595 -0.6280  1.5943
    4CHL1  H22B  280   4.156   4.372   4.619 -1.4600  0.0816 -1.1822
    4CHL1   C23  281   4.237   4.531   4.499  0.9914 -0.2534  0.8113
    4CHL1  H23A  282   4.157   4.598   4.539  0.1606 -0.1640 -0.9023
    4CHL1  H23B  283   4.331   4.589   4.493  0.9839 -0.3983 -1.0205
    4CHL1   C24  284   4.190   4.489   4.359  0.0258  0.2441 -0.1663
    4CHL1  H24A  285   4.259   4.412   4.320  0.4291  1.0396 -1.0542
    4CHL1  H24B  286   4.093   4.436   4.369  0.4172 -0.4383  0.0738
    4CHL1   C25  287   4.177   4.607   4.258  0.0704 -0.0745  0.1983
    4CHL1   H25  288   4.092   4.667   4.299 -0.4169 -0.3107 -0.4498
    4CHL1   C26  289   4.301   4.697   4.238 -0.6367 -0.7006 -1.1662
    4CHL1  H26A  290   4.341   4.742   4.332  1.9858 -0.3968 -2.3299
    4CHL1  H26B  291   4.390   4.636   4.212  0.8898  0.8582  0.1805
    4CHL1  H26C  292   4.292   4.776   4.160 -0.4332 -0.0690 -0.5582
    4CHL1   C27  293   4.137   4.552   4.120 -0.5074  0.2651  0.7068
    4CHL1  H27A  294   4.129   4.633   4.045  0.1489 -0.1098  0.2247
    4CHL1  H27B  295   4.209   4.478   4.081  0.7376  1.1623  1.2236
    4CHL1  H27C  296   4.035   4.507   4.121 -0.1054 -0.7115 -0.2818
    5CHL1    C3  297   5.355   6.705   6.336  0.2964 -0.4501  0.0983
    5CHL1    H3  298   5.289   6.617   6.330  0.2213 -0.3205 -1.3156
    5CHL1    O3  299   5.394   6.729   6.473 -0.0899  0.8538 -0.1299
    5CHL1   H3'  300   5.359   6.655   6.522 -0.9148  1.7355  0.6417
    5CHL1    C4  301   5.483   6.681   6.254 -0.1957  0.2957  0.3122
    5CHL1   H4A  302   5.557   6.764   6.258 -0.2654  0.3903 -0.3209
    5CHL1   H4B  303   5.526   6.584   6.286 -1.2054 -0.4770 -0.6158
    5CHL1    C5  304   5.450   6.664   6.103  1.4547  0.5419 -0.7716
    5CHL1    C6  305   5.486   6.553   6.041  0.0102 -0.8821  0.2754
    5CHL1    H6  306   5.553   6.486   6.095  0.5920 -0.1614  0.4588
    5CHL1    C7  307   5.451   6.526   5.895 -0.3537 -0.4487  0.0345
    5CHL1   H7A  308   5.549   6.507   5.848  0.2037  0.4116  0.8036
    5CHL1   H7B  309   5.390   6.434   5.881  0.4852 -1.0666  0.3294
    5CHL1    C8  310   5.386   6.649   5.825  0.1580  0.6552 -0.7171
    5CHL1    H8  311   5.473   6.717   5.807  1.0898 -0.4392 -0.4389
    5CHL1   C14  312   5.318   6.619   5.692  0.2935  0.1804  0.1467
    5CHL1   H14  313   5.226   6.563   5.720  0.2592 -1.1406 -2.3855
    5CHL1   C15  314   5.388   6.532   5.591  0.1308  0.2775  0.2273
    5CHL1  H15A  315   5.491   6.574   5.585  0.4850 -0.1790  2.1287
    5CHL1  H15B  316   5.403   6.426   5.624 -0.7561 -0.8464 -2.7070
    5CHL1   C16  317   5.316   6.564   5.460 -0.0254 -0.2139  0.4424
    5CHL1  H16A  318   5.389   6.593   5.382 -0.8536 -0.3233 -0.3941
    5CHL1  H16B  319   5.262   6.472   5.430  0.1627  0.0172 -0.6218
    5CHL1   C17  320   5.219   6.681   5.488  0.5658 -0.3664 -0.2668
    5CHL1   H17  321   5.128   6.622   5.514 -0.6451  0.8747 -1.4753
    5CHL1   C13  322   5.260   6.741   5.624 -0.2960 -0.7461  0.0705
    5CHL1   C18  323   5.381   6.838   5.591 -0.0995 -0.3274 -0.0190
    5CHL1  H18A  324   5.463   6.857   5.664  1.1998 -0.1575 -1.4756
    5CHL1  H18B  325   5.429   6.783   5.507  1.6704 -2.9461  2.5162
    5CHL1  H18C  326   5.344   6.939   5.560 -3.2784 -1.5073 -0.4607
    5CHL1   C12  327   5.149   6.805   5.710 -0.5976  0.1293 -0.3641
    5CHL1  H12A  328   5.127   6.907   5.671  2.0267  2.3699  3.2779
    5CHL1  H12B  329   5.060   6.739   5.713  1.6642 -3.1099  2.2529
    5CHL1   C11  330   5.204   6.836   5.845  0.1030 -0.2687 -0.6093
    5CHL1  H11A  331   5.278   6.918   5.832  0.0671 -0.5718 -3.6790
    5CHL1  H11B  332   5.118   6.858   5.912  1.2445 -1.3329  1.2695
    5CHL1    C9  333   5.287   6.721   5.915 -0.0596 -0.0858  0.0743
    5CHL1    H9  334   5.217   6.640   5.945 -0.1331 -0.1633 -0.3028
    5CHL1   C10  335   5.349   6.771   6.048  1.1910 -0.8053  0.4650
    5CHL1   C19  336   5.444   6.897   6.018  0.4464  0.0959  0.6304
    5CHL1  H19A  337   5.521   6.895   5.938  2.1242  1.2795  2.1426
    5CHL1  H19B  338   5.396   6.996   6.004  0.0822  0.0694  1.5828
    5CHL1  H19C  339   5.505   6.905   6.111  0.6611  0.3901  0.4645
    5CHL1    C1  340   5.236   6.819   6.148 -0.2217 -0.0968  0.6666
    5CHL1   H1A  341   5.188   6.915   6.118  0.1408 -0.2935 -0.6447
    5CHL1   H1B  342   5.158   6.741   6.144  0.5117 -0.8943  1.5560
    5CHL1    C2  343   5.277   6.829   6.292  0.4399 -0.6979 -0.2001
    5CHL1   H2A  344   5.181   6.835   6.348 -0.4809  2.7245 -1.8554
    5CHL1   H2B  345   5.345   6.911   6.324  2.5664 -1.8056 -1.6565
    5CHL1   C20  346   5.194   6.782   5.365 -0.2805 -0.0976 -0.1966
    5CHL1   H20  347   5.282   6.841   5.332 -1.6488  1.3167 -1.4197
    5CHL1   C21  348   5.080   6.882   5.396 -0.1884  0.4066 -0.1568
    5CHL1  H21A  349   4.996   6.845   5.460 -0.3115  0.9538 -0.0023
    5CHL1  H21B  350   5.051   6.939   5.306  0.8256  0.7046 -0.3078
    5CHL1  H21C  351   5.128   6.960   5.458  2.9909 -3.7690  3.2559
    5CHL1   C22  352   5.161   6.706   5.225  0.3241  0.1058 -0.5493
    5CHL1  H22A  353   5.242   6.630   5.216 -1.8043 -2.2845 -0.4866
    5CHL1  H22B  354   5.068   6.647   5.238  1.1873 -0.9987  1.0186
    5CHL1   C23  355   5.162   6.798   5.102  0.5650 -0.5494 -0.4972
    5CHL1  H23A  356   5.083   6.876   5.104  0.5638 -0.4804 -2.0157
    5CHL1  H23B  357   5.259   6.852   5.102  0.0017  0.5098  0.6165
    5CHL1   C24  358   5.167   6.732   4.965 -0.4217  0.0937 -0.5394
    5CHL1  H24A  359   5.232   6.642   4.972 -0.1355  0.3220 -0.2091
    5CHL1  H24B  360   5.064   6.697   4.947 -0.1854 -2.1727  1.8704
    5CHL1   C25  361   5.212   6.833   4.852 -0.3941 -0.1762 -0.5716
    5CHL1   H25  362   5.173   6.936   4.862 -2.6064 -1.0076 -0.1981
    5CHL1   C26  363   5.364   6.851   4.847  0.4864 -0.0545  0.2061
    5CHL1  H26A  364   5.398   6.748   4.824  1.5919  0.2511  0.4009
    5CHL1  H26B  365   5.399   6.915   4.763 -0.0895 -0.9809 -0.7582
    5CHL1  H26C  366   5.401   6.885   4.946  0.2571 -1.7523  0.9090
    5CHL1   C27  367   5.157   6.777   4.717  0.6682 -0.1521 -0.0721
    5CHL1  H27A  368   5.180   6.855   4.641  0.3873 -1.4848 -1.5753
    5CHL1  H27B  369   5.201   6.679   4.692 -0.5948 -1.3215  1.9893
    5CHL1  H27C  370   5.048   6.766   4.737  0.8495 -0.1381  0.9714
    6CHL1    C3  371   2.607   2.210   5.931 -0.6850  0.4892 -0.7685
    6CHL1    H3  372   2.549   2.116   5.944  2.2235 -1.6721 -2.1542
    6CHL1    O3  373   2.615   2.270   6.065  0.1474 -0.1905  0.2578
    6CHL1   H3'  374   2.544   2.335   6.071 -0.0046 -0.2176 -1.1084
    6CHL1    C4  375   2.749   2.152   5.898  0.7422  0.0249  0.1723
    6CHL1   H4A  376   2.827   2.229   5.917  1.0732  0.3795 -2.2226
    6CHL1   H4B  377   2.772   2.074   5.973  0.8240  0.3448  0.4831
    6CHL1    C5  378   2.745   2.094   5.758 -0.3131  0.5321 -0.1305
    6CHL1    C6  379   2.784   1.966   5.730  0.0983  0.1992  0.5049
    6CHL1    H6  380   2.826   1.901   5.807  0.0840 -0.9670 -0.4425
    6CHL1    C7  381   2.783   1.904   5.592  0.4204 -1.4217 -0.5435
    6CHL1   H7A  382   2.867   1.833   5.584  1.0236 -0.8314  0.4335
    6CHL1   H7B  383   2.688   1.852   5.569 -0.8505  0.3918  0.3252
    6CHL1    C8  384   2.792   2.019   5.481  0.6048 -0.0889 -0.4890
    6CHL1    H8  385   2.891   2.070   5.477  1.5082 -1.8061 -1.0124
    6CHL1   C14  386   2.785   1.959   5.344  0.1123  0.2125  0.3645
    6CHL1   H14  387   2.683   1.918   5.329  0.9619 -1.9720  0.1628
    6CHL1   C15  388   2.893   1.841   5.320  0.6599 -0.2667  0.1315
    6CHL1  H15A  389   2.986   1.861   5.377 -0.4134  1.1538  1.4851
    6CHL1  H15B  390   2.848   1.745   5.352  1.9102 -0.6902  0.6735
    6CHL1   C16  391   2.894   1.825   5.169  0.1543  0.3500  0.6392
    6CHL1  H16A  392   2.996   1.846   5.130 -0.2119  1.0119  0.0192
    6CHL1  H16B  393   2.867   1.720   5.146 -0.2651  0.7471 -0.7769
    6CHL1   C17  394   2.797   1.937   5.117 -0.8578  0.0294 -0.5209
    6CHL1   H17  395   2.696   1.892   5.105 -1.1305  0.6475 -0.5736
    6CHL1   C13  396   2.793   2.051   5.223 -0.8598 -0.9173 -0.0515
    6CHL1   C18  397   2.925   2.141   5.214 -0.1228 -0.5318 -0.1797
    6CHL1  H18A  398   2.948   2.193   5.309  0.2145  0.9658 -1.0562
    6CHL1  H18B  399   3.019   2.087   5.188  0.1310 -0.6001  0.8374
    6CHL1  H18C  400   2.904   2.223   5.143  0.0084 -1.3805 -1.2280
    6CHL1   C12  401   2.664   2.136   5.236  0.3892  0.0642  0.1905
    6CHL1  H12A  402   2.663   2.213   5.156 -2.6780  0.0665  0.1179
    6CHL1  H12B  403   2.577   2.068   5.218  1.0870 -0.3755 -1.7191
    6CHL1   C11  404   2.655   2.206   5.372  0.1133 -0.7723 -0.4260
    6CHL1  H11A  405   2.737   2.280   5.375 -0.2108 -0.4378  1.3672
    6CHL1  H11B  406   2.559   2.260   5.384  0.8043  0.7036 -1.3207
    6CHL1    C9  407   2.675   2.116   5.504  0.0894 -0.1781  0.8319
    6CHL1    H9  408   2.588   2.048   5.514 -0.8533  0.9407  0.4662
    6CHL1   C10  409   2.687   2.187   5.644  0.6956 -0.2898  0.1515
    6CHL1   C19  410   2.784   2.303   5.630  0.2619  0.2538 -0.1692
    6CHL1  H19A  411   2.749   2.378   5.555 -0.7901  0.0032  0.0522
    6CHL1  H19B  412   2.795   2.356   5.727  0.1633  0.2653 -0.1640
    6CHL1  H19C  413   2.881   2.266   5.592  0.8851  0.2224  1.3871
    6CHL1    C1  414   2.548   2.248   5.690 -0.1082 -0.9447  0.4904
    6CHL1   H1A  415   2.537   2.329   5.615 -0.5357 -1.2832  0.1818
    6CHL1   H1B  416   2.465   2.174   5.689 -1.1961  0.2442  0.0155
    6CHL1    C2  417   2.553   2.313   5.836  0.3206 -0.0854 -0.1347
    6CHL1   H2A  418   2.457   2.360   5.868  0.7015  1.9370 -1.7421
    6CHL1   H2B  419   2.609   2.408   5.824 -0.1604  0.1101 -0.9034
    6CHL1   C20  420   2.840   1.978   4.975  0.6063  0.5601  0.7667
    6CHL1   H20  421   2.948   2.006   4.974  0.7262  0.0840 -0.2818
    6CHL1   C21  422   2.747   2.087   4.921  0.8129  0.4700  0.2940
    6CHL1  H21A  423   2.745   2.182   4.978  1.6832 -0.1496  1.3965
    6CHL1  H21B  424   2.646   2.041   4.919  1.6291 -1.3999 -0.2532
    6CHL1  H21C  425   2.765   2.100   4.812  2.8099 -1.1890  0.3565
    6CHL1   C22  426   2.824   1.853   4.879 -0.1463  0.4841  0.2240
    6CHL1  H22A  427   2.900   1.780   4.913 -0.6629  0.8621  2.3632
    6CHL1  H22B  428   2.725   1.804   4.891  0.9256 -2.2957 -1.4108
    6CHL1   C23  429   2.852   1.877   4.728  0.2825 -0.0049  0.6246
    6CHL1  H23A  430   2.774   1.933   4.673  0.4107 -2.2399 -2.0657
    6CHL1  H23B  431   2.950   1.925   4.711  0.3216 -0.3587 -0.2072
    6CHL1   C24  432   2.871   1.741   4.652 -0.7135  0.2932  0.6168
    6CHL1  H24A  433   2.925   1.671   4.720  0.2814 -0.7567 -1.1895
    6CHL1  H24B  434   2.774   1.693   4.627 -1.2383  0.9116  1.4300
    6CHL1   C25  435   2.964   1.766   4.532 -0.3799  0.4934 -0.6946
    6CHL1   H25  436   3.051   1.827   4.563  1.2557 -2.3749  0.8252
    6CHL1   C26  437   3.027   1.640   4.479 -0.0810  0.8750 -0.0068
    6CHL1  H26A  438   3.101   1.668   4.400  1.2346  3.0265  1.8408
    6CHL1  H26B  439   3.082   1.580   4.554 -0.5429 -1.1454 -1.2176
    6CHL1  H26C  440   2.943   1.580   4.441  0.5452 -1.8418  2.5408
    6CHL1   C27  441   2.885   1.836   4.428 -0.1393 -0.3109 -0.2926
    6CHL1  H27A  442   2.941   1.837   4.331 -1.8384  0.6495 -1.3077
    6CHL1  H27B  443   2.797   1.774   4.401 -1.2041  0.3294  1.5521
    6CHL1  H27C  444   2.853   1.940   4.453 -2.6803 -0.9079 -0.7898
    7CHL1    C3  445   6.709   3.778   6.009  0.0731  0.2618 -0.0446
    7CHL1    H3  446   6.795   3.845   5.985  2.6556 -2.7029  0.2074
    7CHL1    O3  447   6.680   3.772   6.149  0.3639  0.2713  0.7171
    7CHL1   H3'  448   6.597   3.724   6.157 -0.4080  0.1517 -4.3311
    7CHL1    C4  449   6.587   3.840   5.943 -0.1582 -0.5307 -0.1701
    7CHL1   H4A  450   6.492   3.794   5.977 -1.1945  2.3561  1.1849
    7CHL1   H4B  451   6.574   3.943   5.984  0.3186 -1.1721  1.6576
    7CHL1    C5  452   6.585   3.846   5.790 -0.0692  0.4649  0.3897
    7CHL1    C6  453   6.546   3.951   5.715  0.3162 -0.6511 -0.2897
    7CHL1    H6  454   6.518   4.045   5.764  0.1374 -0.2014 -1.2353
    7CHL1    C7  455   6.522   3.947   5.564 -0.7753 -1.5844 -0.1679
    7CHL1   H7A  456   6.427   3.992   5.526 -1.1722 -1.4794  0.9149
    7CHL1   H7B  457   6.605   4.009   5.524 -2.2678  0.4016 -0.3299
    7CHL1    C8  458   6.542   3.809   5.504 -0.3177 -0.1555 -0.1068
    7CHL1    H8  459   6.446   3.760   5.528 -0.4165 -1.8460 -3.4991
    7CHL1   C14  460   6.582   3.809   5.356  0.4399  0.2565 -0.9421
    7CHL1   H14  461   6.689   3.840   5.351  1.5774 -2.9798  0.7319
    7CHL1   C15  462   6.520   3.908   5.258 -0.2929  0.1548  0.1902
    7CHL1  H15A  463   6.414   3.887   5.279 -0.2225 -1.3952 -0.8424
    7CHL1  H15B  464   6.543   4.014   5.283  0.1762  0.2134 -0.4532
    7CHL1   C16  465   6.562   3.867   5.121 -0.1727 -0.8897  0.1003
    7CHL1  H16A  466   6.473   3.841   5.060 -0.3660 -0.4095  0.1760
    7CHL1  H16B  467   6.614   3.950   5.068 -0.6165 -0.0095  1.0052
    7CHL1   C17  468   6.627   3.724   5.136  0.1640  0.9003 -0.7103
    7CHL1   H17  469   6.738   3.733   5.140  0.3896 -1.3597 -0.6095
    7CHL1   C13  470   6.582   3.675   5.277 -0.1179  0.3254  0.2845
    7CHL1   C18  471   6.435   3.618   5.277 -0.1744 -0.0034  0.1349
    7CHL1  H18A  472   6.431   3.515   5.237  1.9327  0.1935 -0.6824
    7CHL1  H18B  473   6.394   3.618   5.380 -2.0638  4.6650 -0.3238
    7CHL1  H18C  474   6.365   3.687   5.224 -1.3312  0.9886  2.7802
    7CHL1   C12  475   6.678   3.582   5.352 -0.4266  0.4830 -0.2801
    7CHL1  H12A  476   6.676   3.477   5.316 -0.2584 -0.5615  2.5208
    7CHL1  H12B  477   6.779   3.626   5.335 -0.7624  2.0827  1.5432
    7CHL1   C11  478   6.648   3.574   5.506 -0.4353 -0.6410  0.1547
    7CHL1  H11A  479   6.549   3.529   5.529 -1.0391  0.4751 -0.1921
    7CHL1  H11B  480   6.725   3.513   5.557  0.3832 -0.5316 -0.9214
    7CHL1    C9  481   6.648   3.719   5.577  0.6014  0.4528  0.9237
    7CHL1    H9  482   6.748   3.765   5.570  0.6600  0.2798  0.6139
    7CHL1   C10  483   6.613   3.710   5.728 -0.0748 -0.1713  0.3755
    7CHL1   C19  484   6.492   3.612   5.762 -0.1572 -0.5394 -0.6638
    7CHL1  H19A  485   6.478   3.603   5.872  0.6830 -1.9193 -0.6397
    7CHL1  H19B  486   6.393   3.648   5.728 -0.0146  1.4916  0.9128
    7CHL1  H19C  487   6.515   3.510   5.724 -1.0204 -0.1322 -2.4052
    7CHL1    C1  488   6.744   3.662   5.801 -0.0340  0.3250  0.0057
    7CHL1   H1A  489   6.759   3.563   5.753  0.4666  0.4963 -0.2009
    7CHL1   H1B  490   6.828   3.731   5.779 -0.9126  1.2659 -0.5028
    7CHL1    C2  491   6.737   3.639   5.954  0.0208  0.4764  0.8178
    7CHL1   H2A  492   6.833   3.602   5.996 -0.1302  0.8994  1.5444
    7CHL1   H2B  493   6.654   3.568   5.974 -0.5451  1.0122  0.4147
    7CHL1   C20  494   6.605   3.630   5.019  0.4757 -0.7844 -0.1945
    7CHL1   H20  495   6.494   3.622   5.014  0.2380 -0.0527  2.6190
    7CHL1   C21  496   6.662   3.493   5.029  0.5745 -0.4664  0.4237
    7CHL1  H21A  497   6.611   3.451   5.118  2.1080 -0.6164  1.2549
    7CHL1  H21B  498   6.770   3.484   5.051  0.1085 -0.8495  2.7590
    7CHL1  H21C  499   6.631   3.441   4.936  1.1795 -0.8931  0.4576
    7CHL1   C22  500   6.632   3.697   4.880  0.4408  0.4772 -0.2689
    7CHL1  H22A  501   6.625   3.807   4.872 -3.6340  0.3466 -0.3220
    7CHL1  H22B  502   6.737   3.672   4.851  1.3624  1.8565  1.6565
    7CHL1   C23  503   6.534   3.647   4.769  0.8258  0.9467 -0.0534
    7CHL1  H23A  504   6.544   3.537   4.781 -0.4242  0.8844  0.5579
    7CHL1  H23B  505   6.430   3.678   4.792  0.2861 -1.5809  1.3509
    7CHL1   C24  506   6.575   3.683   4.624 -0.5148 -0.8447 -0.1406
    7CHL1  H24A  507   6.669   3.626   4.610  0.7754  0.9211  0.8746
    7CHL1  H24B  508   6.492   3.644   4.561 -1.7229  0.7627  0.3880
    7CHL1   C25  509   6.590   3.827   4.586  0.2296  0.4799  0.1721
    7CHL1   H25  510   6.671   3.879   4.641 -0.9899  1.1359  1.4310
    7CHL1   C26  511   6.626   3.837   4.431 -0.4938  0.5003 -0.0380
    7CHL1  H26A  512   6.560   3.775   4.366  1.6280 -1.0045 -0.9024
    7CHL1  H26B  513   6.622   3.938   4.386  1.6280  0.0289 -1.4718
    7CHL1  H26C  514   6.726   3.792   4.413 -0.6627  0.4744 -1.0056
    7CHL1   C27  515   6.462   3.903   4.614  0.1142 -0.7122 -0.6288
    7CHL1  H27A  516   6.367   3.863   4.573 -0.0653 -2.3119  1.2442
    7CHL1  H27B  517   6.440   3.926   4.720 -1.9285 -2.5927 -0.5794
    7CHL1  H27C  518   6.470   4.005   4.569 -0.0759 -0.7011 -0.6394
    8CHL1    C3  519   2.061   2.946   6.028  0.2557  0.0474 -0.4630
    8CHL1    H3  520   1.992   3.028   5.999 -1.1249 -1.2246 -0.8606
    8CHL1    O3  521   2.064   2.945   6.171  0.6081  0.7495  0.3447
    8CHL1   H3'  522   2.101   3.032   6.190 -0.8690  1.6127 -0.5460
    8CHL1    C4  523   2.018   2.811   5.963  0.0617  0.0438 -0.2248
    8CHL1   H4A  524   2.094   2.740   6.005 -0.4353 -0.8772 -0.8416
    8CHL1   H4B  525   1.916   2.800   6.004  0.4629  1.9037  1.4044
    8CHL1    C5  526   2.026   2.816   5.810  0.7194  0.3585  0.0708
    8CHL1    C6  527   1.914   2.792   5.740 -1.1671  0.1365 -0.4493
    8CHL1    H6  528   1.818   2.757   5.781  0.4283 -3.3582  0.6524
    8CHL1    C7  529   1.915   2.808   5.589  0.9845 -0.1447 -0.3559
    8CHL1   H7A  530   1.879   2.714   5.541  1.4501  0.5259 -2.0755
    8CHL1   H7B  531   1.849   2.895   5.566  0.3068 -0.7188 -0.6253
    8CHL1    C8  532   2.054   2.819   5.521 -0.8932  0.6915 -0.3799
    8CHL1    H8  533   2.099   2.718   5.530  0.7691  1.5081  1.2250
    8CHL1   C14  534   2.038   2.851   5.378 -0.2844  0.4706  0.1330
    8CHL1   H14  535   1.983   2.948   5.371  0.1855  0.7868  0.7500
    8CHL1   C15  536   1.949   2.752   5.289  0.3530  0.2084 -0.4579
    8CHL1  H15A  537   1.974   2.646   5.310  0.9141  0.3599 -0.3583
    8CHL1  H15B  538   1.842   2.777   5.308  0.7526 -0.0586  2.7741
    8CHL1   C16  539   1.989   2.794   5.147 -1.3993 -0.7647  0.3037
    8CHL1  H16A  540   2.032   2.715   5.080 -0.4528  2.5572 -3.4069
    8CHL1  H16B  541   1.897   2.841   5.106 -2.9288 -3.2467  0.7011
    8CHL1   C17  542   2.105   2.902   5.160  0.0027 -0.7585 -1.1058
    8CHL1   H17  543   2.063   3.005   5.161 -0.7785 -1.0729  0.0516
    8CHL1   C13  544   2.166   2.882   5.302 -1.0133  0.2658 -0.4499
    8CHL1   C18  545   2.260   2.762   5.293 -0.1083  0.0456  0.1471
    8CHL1  H18A  546   2.353   2.799   5.246 -0.4157 -0.3065 -0.7648
    8CHL1  H18B  547   2.287   2.728   5.396 -1.1722  2.6035  1.3660
    8CHL1  H18C  548   2.219   2.681   5.230 -0.1978  0.2240 -0.0241
    8CHL1   C12  549   2.246   2.996   5.374  0.3239 -0.6903  0.2340
    8CHL1  H12A  550   2.343   3.016   5.323  0.0118 -0.7712 -0.4076
    8CHL1  H12B  551   2.181   3.086   5.378 -0.1188 -1.0211  0.3985
    8CHL1   C11  552   2.278   2.953   5.524  0.3028  0.0328  0.2038
    8CHL1  H11A  553   2.353   2.872   5.509  0.1937  0.4280 -3.5187
    8CHL1  H11B  554   2.322   3.043   5.572  2.5754 -1.1635  0.5078
    8CHL1    C9  555   2.145   2.914   5.596 -0.2187 -0.4702 -1.2875
    8CHL1    H9  556   2.090   3.010   5.580 -0.2216  0.0816  1.5687
    8CHL1   C10  557   2.156   2.873   5.745  0.0871  0.0301  1.0024
    8CHL1   C19  558   2.262   2.761   5.743  0.3304  0.1022 -1.1535
    8CHL1  H19A  559   2.226   2.671   5.688 -0.3305 -0.7064  0.5399
    8CHL1  H19B  560   2.358   2.796   5.699 -0.5385  1.2184 -2.2235
    8CHL1  H19C  561   2.284   2.725   5.846 -0.2117  1.8130 -0.4203
    8CHL1    C1  562   2.213   2.990   5.829 -0.4184 -0.1787  0.2147
    8CHL1   H1A  563   2.315   3.023   5.801 -1.2046  1.8253 -0.4680
    8CHL1   H1B  564   2.153   3.081   5.807  1.1082  0.8787  0.2926
    8CHL1    C2  565   2.205   2.981   5.983  0.4408  0.4966 -0.3630
    8CHL1   H2A  566   2.237   3.077   6.028 -1.7188  0.1557  2.1460
    8CHL1   H2B  567   2.276   2.900   6.011 -1.6364 -1.0537  0.7322
    8CHL1   C20  568   2.191   2.906   5.037  0.2372  0.0176  0.1607
    8CHL1   H20  569   2.246   2.810   5.038 -4.1795 -2.7612  0.8724
    8CHL1   C21  570   2.296   3.018   5.047 -0.0423 -0.2979 -0.0763
    8CHL1  H21A  571   2.355   3.033   4.955 -0.0935 -0.5666 -0.1534
    8CHL1  H21B  572   2.372   3.007   5.128 -0.8517 -0.0183  0.7429
    8CHL1  H21C  573   2.242   3.112   5.072 -0.9621 -1.4294  2.6241
    8CHL1   C22  574   2.098   2.910   4.912  0.0955 -0.9738 -0.2350
    8CHL1  H22A  575   2.040   2.817   4.893  0.1831 -1.3751  1.2714
    8CHL1  H22B  576   2.036   3.001   4.919 -0.4152 -0.5222 -5.9575
    8CHL1   C23  577   2.173   2.927   4.774 -1.1048 -0.4277 -0.9255
    8CHL1  H23A  578   2.245   3.011   4.783 -1.5833 -0.0661 -0.4156
    8CHL1  H23B  579   2.220   2.833   4.737 -0.7663  0.3592 -2.5908
    8CHL1   C24  580   2.068   2.954   4.664  0.1730  0.8466 -0.2149
    8CHL1  H24A  581   1.987   2.878   4.660  1.6390 -0.8676  0.7693
    8CHL1  H24B  582   2.013   3.047   4.686 -1.3962 -0.2959  0.9207
    8CHL1   C25  583   2.134   2.958   4.524 -0.3837 -0.1525  0.0786
    8CHL1   H25  584   2.229   3.016   4.528 -1.8011  2.7399 -3.1357
    8CHL1   C26  585   2.169   2.816   4.469  0.4866 -0.3840 -0.4748
    8CHL1  H26A  586   2.084   2.747   4.490  0.3785 -0.2272 -0.3948
    8CHL1  H26B  587   2.188   2.813   4.359 -0.5501  1.3505 -0.7503
    8CHL1  H26C  588   2.262   2.775   4.512  0.9267  1.0231 -0.0151
    8CHL1   C27  589   2.030   3.017   4.422 -0.3506  0.6412  0.4685
    8CHL1  H27A  590   2.002   3.120   4.452  1.9376  1.7874 -1.0746
    8CHL1  H27B  591   2.075   3.018   4.321 -4.2816 -1.6939 -1.5271
    8CHL1  H27C  592   1.942   2.951   4.416 -2.3709  3.3134 -2.5066
    9CHL1    C3  593   0.184   2.352   6.001 -0.6357  0.0097 -0.0906
    9CHL1    H3  594   0.141   2.453   5.987 -2.2781 -0.7576 -0.8317
    9CHL1    O3  595   0.195   2.325   6.138  0.6574  0.8612  0.2545
    9CHL1   H3'  596   0.241   2.241   6.143  0.8172  0.8085 -1.6147
    9CHL1    C4  597   0.095   2.245   5.951 -0.2345  0.2380  0.3278
    9CHL1   H4A  598   0.123   2.140   5.976 -2.3133 -0.6357 -0.8463
    9CHL1   H4B  599  -0.001   2.253   6.005  1.2572  2.0213  2.9488
    9CHL1    C5  600   0.081   2.261   5.803  0.9718 -0.4203 -0.0508
    9CHL1    C6  601  -0.035   2.264   5.738  0.3499 -0.1295  0.6117
    9CHL1    H6  602  -0.132   2.267   5.790  0.7387 -2.3822  1.5577
    9CHL1    C7  603  -0.056   2.263   5.584  0.2165 -0.2424  0.3029
    9CHL1   H7A  604  -0.132   2.187   5.557 -0.5166  0.4455  0.3784
    9CHL1   H7B  605  -0.088   2.367   5.560  2.3747  0.1475 -1.2091
    9CHL1    C8  606   0.067   2.218   5.509 -0.5084 -0.2605  0.2861
    9CHL1    H8  607   0.073   2.107   5.514  1.3209 -0.2319 -0.3495
    9CHL1   C14  608   0.046   2.273   5.357  0.8126 -0.1052  0.5575
    9CHL1   H14  609   0.031   2.382   5.376  1.3311  0.0954 -0.1459
    9CHL1   C15  610  -0.081   2.247   5.270 -0.0595  0.3016 -0.1268
    9CHL1  H15A  611  -0.099   2.138   5.283 -1.5064  0.2785 -1.9930
    9CHL1  H15B  612  -0.178   2.285   5.307  1.0292  1.9661  1.1897
    9CHL1   C16  613  -0.044   2.281   5.133  0.0581  0.3312 -0.8938
    9CHL1  H16A  614  -0.050   2.191   5.067  0.3708 -1.9284  1.9714
    9CHL1  H16B  615  -0.110   2.357   5.086  0.5062  0.6275 -1.0555
    9CHL1   C17  616   0.110   2.311   5.137  0.1489 -0.1295  0.3522
    9CHL1   H17  617   0.120   2.422   5.142 -1.4852 -0.0017  1.9198
    9CHL1   C13  618   0.163   2.251   5.267 -0.3258 -0.4919 -0.0870
    9CHL1   C18  619   0.186   2.097   5.234  0.5593  0.3724  0.2653
    9CHL1  H18A  620   0.101   2.053   5.179  0.9398 -0.3879  0.2727
    9CHL1  H18B  621   0.282   2.094   5.177  0.5796  0.9576  0.2608
    9CHL1  H18C  622   0.193   2.045   5.332  0.2557 -0.9096 -0.3749
    9CHL1   C12  623   0.287   2.319   5.333  0.2114  0.4502 -0.1421
    9CHL1  H12A  624   0.374   2.293   5.268 -0.4219 -0.1962 -0.7443
    9CHL1  H12B  625   0.268   2.428   5.340  1.4014  0.5760  3.4404
    9CHL1   C11  626   0.317   2.287   5.485  0.6547  0.1065  0.4480
    9CHL1  H11A  627   0.351   2.181   5.486  1.5311  0.3664  2.4281
    9CHL1  H11B  628   0.409   2.340   5.519  0.4827  1.5115 -1.1315
    9CHL1    C9  629   0.193   2.289   5.575  0.3045  0.1026 -0.8271
    9CHL1    H9  630   0.159   2.395   5.578  0.0461  0.0494 -1.5741
    9CHL1   C10  631   0.212   2.252   5.726 -0.0472  0.5098 -0.1887
    9CHL1   C19  632   0.279   2.106   5.733  0.5804 -0.4877  0.8602
    9CHL1  H19A  633   0.383   2.110   5.696  0.3078  1.8353  0.1327
    9CHL1  H19B  634   0.270   2.063   5.835  2.8043 -2.5392  0.2762
    9CHL1  H19C  635   0.224   2.054   5.652  1.3727  0.5671 -0.3947
    9CHL1    C1  636   0.315   2.356   5.789 -0.2135  0.4753  0.3635
    9CHL1   H1A  637   0.417   2.335   5.749 -0.7082 -0.1432 -0.6066
    9CHL1   H1B  638   0.292   2.462   5.766 -0.5491  0.6826  1.5784
    9CHL1    C2  639   0.322   2.345   5.944 -0.9781  0.9405 -0.0449
    9CHL1   H2A  640   0.397   2.419   5.980 -0.1003 -0.3950  0.9551
    9CHL1   H2B  641   0.359   2.243   5.968 -1.2158  0.6530 -0.8800
    9CHL1   C20  642   0.179   2.284   4.998 -0.0487  0.3597 -0.2595
    9CHL1   H20  643   0.195   2.174   4.988  1.1333  0.6893 -2.4027
    9CHL1   C21  644   0.315   2.350   5.004  0.3348 -0.4953 -0.1119
    9CHL1  H21A  645   0.383   2.288   5.065  1.5949 -0.5217 -1.4877
    9CHL1  H21B  646   0.310   2.456   5.039  1.8864 -1.0010  1.8041
    9CHL1  H21C  647   0.362   2.348   4.904 -0.5973  0.1055 -0.5816
    9CHL1   C22  648   0.104   2.333   4.879  0.4716 -0.2871  0.2882
    9CHL1  H22A  649  -0.007   2.333   4.885  0.2509  0.8420 -2.3499
    9CHL1  H22B  650   0.126   2.439   4.853 -0.2753 -0.7023 -2.2391
    9CHL1   C23  651   0.128   2.248   4.753  0.0158 -0.6368  0.1401
    9CHL1  H23A  652   0.230   2.205   4.744  0.5086  0.6819 -0.9495
    9CHL1  H23B  653   0.063   2.162   4.776  0.8820 -1.4262 -0.2911
    9CHL1   C24  654   0.099   2.313   4.618  0.8592 -0.2971  0.3934
    9CHL1  H24A  655  -0.010   2.311   4.598  1.0359 -2.5932 -0.6616
    9CHL1  H24B  656   0.120   2.422   4.622 -1.3928  0.1847  0.6135
    9CHL1   C25  657   0.183   2.260   4.498  0.5240 -0.1169 -0.9585
    9CHL1   H25  658   0.290   2.279   4.521 -0.6777  3.3806  2.9247
    9CHL1   C26  659   0.165   2.112   4.471  0.4811 -0.0135  0.0166
    9CHL1  H26A  660   0.061   2.084   4.444 -0.5211  0.3688  3.1141
    9CHL1  H26B  661   0.233   2.072   4.393  1.2462  1.4529 -0.1103
    9CHL1  H26C  662   0.182   2.060   4.567 -0.2992  0.1613  0.2563
    9CHL1   C27  663   0.156   2.332   4.371  0.3176  0.2351  0.5432
    9CHL1  H27A  664   0.048   2.326   4.343  0.6516 -1.9500 -0.5122
    9CHL1  H27B  665   0.179   2.440   4.383 -1.0540  0.7657 -1.1126
    9CHL1  H27C  666   0.206   2.282   4.285  0.7177  0.6179  0.5515
   10CHL1    C3  667   1.436   2.603   6.013  0.5773 -0.6600  0.4180
   10CHL1    H3  668   1.420   2.710   5.987  3.8075 -0.5392 -1.6274
   10CHL1    O3  669   1.410   2.573   6.147 -0.0716  0.0464 -0.3736
   10CHL1   H3'  670   1.499   2.556   6.178 -0.3155  0.6700  0.6967
   10CHL1    C4  671   1.334   2.526   5.921 -0.8541  0.7491  0.0263
   10CHL1   H4A  672   1.328   2.426   5.969  0.5306 -0.0155 -1.3053
   10CHL1   H4B  673   1.241   2.583   5.944 -0.7510  0.6423  0.7271
   10CHL1    C5  674   1.369   2.519   5.774 -0.3651 -0.0214  0.1365
   10CHL1    C6  675   1.272   2.559   5.687 -0.1469  0.3321 -0.5641
   10CHL1    H6  676   1.171   2.569   5.729 -0.9694 -1.3580 -2.0214
   10CHL1    C7  677   1.290   2.584   5.542  0.1652 -1.1187 -0.7950
   10CHL1   H7A  678   1.206   2.544   5.481 -2.0767  0.5023  1.0553
   10CHL1   H7B  679   1.306   2.694   5.539  1.6548 -1.2501  0.7615
   10CHL1    C8  680   1.423   2.519   5.497  0.1369  0.4374  0.0296
   10CHL1    H8  681   1.401   2.411   5.487  3.3615 -0.1378 -2.6869
   10CHL1   C14  682   1.458   2.574   5.356  0.2433  0.5100  1.0898
   10CHL1   H14  683   1.479   2.682   5.370 -2.1370  1.3619 -1.0444
   10CHL1   C15  684   1.349   2.577   5.240 -0.7940  0.0217 -0.0102
   10CHL1  H15A  685   1.304   2.475   5.230  1.9257 -1.3044  0.3392
   10CHL1  H15B  686   1.277   2.659   5.257  0.2996  0.9364  0.2914
   10CHL1   C16  687   1.426   2.601   5.108 -0.1423  0.3732 -0.1632
   10CHL1  H16A  688   1.400   2.524   5.032 -0.5351  0.1688  0.1770
   10CHL1  H16B  689   1.419   2.702   5.061  0.9579  0.9345  0.8356
   10CHL1   C17  690   1.577   2.580   5.149  0.3254 -0.8753  0.0592
   10CHL1   H17  691   1.611   2.682   5.176 -3.1503  0.8507 -1.5306
   10CHL1   C13  692   1.577   2.504   5.292  0.4401 -0.3479  0.4533
   10CHL1   C18  693   1.561   2.353   5.264 -0.1659  0.3050 -0.3949
   10CHL1  H18A  694   1.483   2.339   5.186 -0.7573  1.6693 -0.0778
   10CHL1  H18B  695   1.659   2.312   5.232 -0.0755  0.5195 -0.3916
   10CHL1  H18C  696   1.532   2.293   5.353  2.6612  1.8055  1.6658
   10CHL1   C12  697   1.700   2.529   5.379 -0.1219 -0.4286 -0.7296
   10CHL1  H12A  698   1.780   2.471   5.328 -1.8945 -3.4531 -0.3582
   10CHL1  H12B  699   1.725   2.637   5.382  1.3128 -0.7113 -1.5349
   10CHL1   C11  700   1.677   2.497   5.526  0.1856  0.4489 -0.5933
   10CHL1  H11A  701   1.672   2.386   5.521  1.3183  0.2046  2.1005
   10CHL1  H11B  702   1.760   2.524   5.595 -1.0679  0.3659  1.0262
   10CHL1    C9  703   1.540   2.548   5.586  0.2519  0.4399 -0.1628
   10CHL1    H9  704   1.540   2.660   5.583 -0.1811  0.4261 -0.8180
   10CHL1   C10  705   1.517   2.497   5.730  0.0974 -0.0802  0.6892
   10CHL1   C19  706   1.536   2.344   5.755  0.8466  0.1518 -0.0888
   10CHL1  H19A  707   1.477   2.286   5.680  1.8590  0.9121 -1.5382
   10CHL1  H19B  708   1.647   2.335   5.747  1.1110  2.1545  0.6775
   10CHL1  H19C  709   1.512   2.314   5.859  0.1053 -0.3755 -0.4065
   10CHL1    C1  710   1.607   2.586   5.825  0.2520 -0.1249  0.6249
   10CHL1   H1A  711   1.713   2.557   5.810  0.8595  1.5174  1.5298
   10CHL1   H1B  712   1.593   2.695   5.809  0.1206 -0.1425  0.6175
   10CHL1    C2  713   1.577   2.562   5.971  0.4934  0.8830 -0.7498
   10CHL1   H2A  714   1.648   2.623   6.031  0.2586 -1.3571  2.0544
   10CHL1   H2B  715   1.595   2.461   6.016 -0.2425  1.3847  0.7496
   10CHL1   C20  716   1.653   2.521   5.030 -0.5387  0.3833  0.5125
   10CHL1   H20  717   1.610   2.421   5.007  2.8553 -0.6137 -2.4125
   10CHL1   C21  718   1.799   2.499   5.060  0.6527  0.1975  0.4816
   10CHL1  H21A  719   1.846   2.581   5.118  2.0720 -1.0552  1.1756
   10CHL1  H21B  720   1.860   2.492   4.968  0.4411 -0.3462  0.3797
   10CHL1  H21C  721   1.795   2.403   5.116 -1.2046  1.0948  2.0382
   10CHL1   C22  722   1.634   2.599   4.903 -0.1431  0.0132  0.2726
   10CHL1  H22A  723   1.530   2.636   4.891  0.2446  1.2684  0.7044
   10CHL1  H22B  724   1.701   2.687   4.896 -0.5614  0.2938 -0.2594
   10CHL1   C23  725   1.664   2.521   4.769 -0.6010 -0.4104 -0.9351
   10CHL1  H23A  726   1.773   2.501   4.776 -0.6122 -0.1601  0.1870
   10CHL1  H23B  727   1.608   2.426   4.782 -0.1932 -0.3583  1.7667
   10CHL1   C24  728   1.629   2.595   4.644 -0.2302  0.2535  0.6368
   10CHL1  H24A  729   1.519   2.581   4.631  0.0803 -0.6484 -1.4250
   10CHL1  H24B  730   1.649   2.705   4.644 -1.6352  0.5750 -1.0630
   10CHL1   C25  731   1.699   2.548   4.513 -0.7525  0.3256  1.3379
   10CHL1   H25  732   1.802   2.586   4.528 -0.3607 -0.8635  1.7066
   10CHL1   C26  733   1.700   2.393   4.490  0.1716 -0.1486 -0.7228
   10CHL1  H26A  734   1.758   2.347   4.573 -0.8840  0.1008  0.1678
   10CHL1  H26B  735   1.600   2.347   4.486 -0.6758  1.6612 -1.3949
   10CHL1  H26C  736   1.758   2.373   4.397 -3.0466 -0.2581 -2.8610
   10CHL1   C27  737   1.632   2.626   4.398  0.2289 -0.0348  0.2192
   10CHL1  H27A  738   1.531   2.589   4.370 -1.1857  3.7630 -0.2724
   10CHL1  H27B  739   1.612   2.729   4.433 -2.0725 -0.4297  0.2631
   10CHL1  H27C  740   1.697   2.625   4.308  3.7033 -0.0674  2.5369
   11CHL1    C3  741   4.749   2.371   6.256 -0.1818  1.1444  0.4594
   11CHL1    H3  742   4.802   2.273   6.249 -0.0694  1.1984  0.5434
   11CHL1    O3  743   4.708   2.404   6.385  0.3211  0.1310 -0.8202
   11CHL1   H3'  744   4.677   2.496   6.386  1.1111  0.3932 -0.2317
   11CHL1    C4  745   4.841   2.480   6.204 -0.1567  0.4447  0.8553
   11CHL1   H4A  746   4.793   2.580   6.210 -1.1151  0.1004 -0.6926
   11CHL1   H4B  747   4.937   2.481   6.260  0.5847  3.0026 -0.2794
   11CHL1    C5  748   4.871   2.461   6.057  0.5831  0.2967  0.3383
   11CHL1    C6  749   5.007   2.449   6.020  0.3399  0.8881  0.0484
   11CHL1    H6  750   5.083   2.459   6.100 -0.9317 -0.4790  1.4860
   11CHL1    C7  751   5.053   2.427   5.882 -0.7320 -0.4643  0.5982
   11CHL1   H7A  752   5.142   2.487   5.855 -0.0447 -2.4598 -2.0089
   11CHL1   H7B  753   5.077   2.319   5.870  1.1451 -0.0457  0.1403
   11CHL1    C8  754   4.939   2.456   5.775 -0.2247  0.2124 -0.6243
   11CHL1    H8  755   4.923   2.565   5.757 -2.4194  0.5071  2.3101
   11CHL1   C14  756   4.975   2.374   5.649  0.5967  0.0186 -0.5312
   11CHL1   H14  757   4.962   2.267   5.675  0.0472 -0.2994 -2.0461
   11CHL1   C15  758   5.120   2.395   5.590  0.0085  0.1565  0.6086
   11CHL1  H15A  759   5.137   2.505   5.580 -1.9569  0.6393  1.9830
   11CHL1  H15B  760   5.197   2.353   5.657  0.6129  0.2745 -0.0071
   11CHL1   C16  761   5.106   2.327   5.449  1.0055 -0.3792 -0.2312
   11CHL1  H16A  762   5.160   2.389   5.373  0.2534 -1.4885 -1.7362
   11CHL1  H16B  763   5.146   2.224   5.454  1.1727 -0.2583  3.0599
   11CHL1   C17  764   4.952   2.316   5.426  0.1063  0.1087  0.3196
   11CHL1   H17  765   4.921   2.213   5.454 -1.9881  0.0402 -1.8737
   11CHL1   C13  766   4.880   2.393   5.532  0.2791 -0.3522 -0.4976
   11CHL1   C18  767   4.863   2.544   5.487  0.4084 -0.1581  0.5182
   11CHL1  H18A  768   4.807   2.602   5.563  0.2968  0.9937 -0.4207
   11CHL1  H18B  769   4.959   2.599   5.475  0.2232 -0.0040 -0.3131
   11CHL1  H18C  770   4.799   2.558   5.397  1.4618  1.4409 -0.0225
   11CHL1   C12  771   4.741   2.339   5.576 -0.3860 -0.1817  0.0163
   11CHL1  H12A  772   4.663   2.355   5.499  0.0151 -0.3442 -0.4376
   11CHL1  H12B  773   4.760   2.229   5.578  0.2611 -0.0771 -0.1533
   11CHL1   C11  774   4.692   2.390   5.714 -0.2691 -0.2619 -0.1432
   11CHL1  H11A  775   4.644   2.490   5.706 -1.3199 -0.6392  1.0930
   11CHL1  H11B  776   4.616   2.316   5.749 -0.9417 -0.0251 -1.0646
   11CHL1    C9  777   4.803   2.395   5.827 -0.1444  0.1316  0.8590
   11CHL1    H9  778   4.830   2.292   5.858  0.0638  0.0007  0.2439
   11CHL1   C10  779   4.754   2.447   5.958  0.0548 -0.5435 -0.0356
   11CHL1   C19  780   4.680   2.580   5.943 -0.2589 -0.3551 -0.3252
   11CHL1  H19A  781   4.722   2.631   5.854 -3.4810 -0.0491 -1.8180
   11CHL1  H19B  782   4.573   2.566   5.917 -1.1698 -1.0420  3.2882
   11CHL1  H19C  783   4.678   2.633   6.040 -1.7688 -0.5885 -0.2135
   11CHL1    C1  784   4.661   2.341   6.023  0.9405  0.5552 -0.1316
   11CHL1   H1A  785   4.568   2.332   5.964  1.3165 -2.6380 -0.4034
   11CHL1   H1B  786   4.712   2.242   6.015  2.0978  0.9533  1.6535
   11CHL1    C2  787   4.624   2.370   6.168  0.5674  0.1011 -0.7926
   11CHL1   H2A  788   4.563   2.283   6.200  2.2826 -1.3388 -1.2703
   11CHL1   H2B  789   4.565   2.462   6.191 -0.6744 -0.9896  0.6158
   11CHL1   C20  790   4.909   2.330   5.279  0.5178 -0.2708  0.0382
   11CHL1   H20  791   4.919   2.436   5.246  0.2971 -0.4156 -0.4992
   11CHL1   C21  792   4.757   2.302   5.264 -0.4388 -0.5964 -0.3868
   11CHL1  H21A  793   4.743   2.203   5.313  0.2430  0.8134  2.9843
   11CHL1  H21B  794   4.731   2.310   5.157 -1.7783  0.9619  0.0086
   11CHL1  H21C  795   4.691   2.376   5.314 -0.6187 -0.6220 -0.5845
   11CHL1   C22  796   4.998   2.250   5.183 -1.0361  0.1043  0.3324
   11CHL1  H22A  797   4.943   2.273   5.089  1.9234  0.4765 -1.4148
   11CHL1  H22B  798   5.098   2.291   5.158 -1.9800  1.2879 -1.8400
   11CHL1   C23  799   4.992   2.095   5.203 -0.0916 -0.6297  0.7748
   11CHL1  H23A  800   5.047   2.077   5.297 -0.9941 -0.5037  1.3399
   11CHL1  H23B  801   4.890   2.053   5.220 -0.7246  0.8639  0.8246
   11CHL1   C24  802   5.063   2.013   5.100 -0.7336 -0.2125 -0.0647
   11CHL1  H24A  803   5.025   2.036   4.998 -0.5850 -0.9347 -0.2862
   11CHL1  H24B  804   5.168   2.049   5.098 -1.1123  0.9263 -2.2024
   11CHL1   C25  805   5.055   1.867   5.129  0.0781  1.0431  0.6965
   11CHL1   H25  806   4.950   1.843   5.156  0.0030 -0.9275 -1.0674
   11CHL1   C26  807   5.070   1.775   5.004  0.0780  0.2381 -0.2838
   11CHL1  H26A  808   5.003   1.814   4.925 -2.5691 -1.3885  1.0108
   11CHL1  H26B  809   5.172   1.781   4.960 -0.1192 -0.9022 -0.9550
   11CHL1  H26C  810   5.054   1.668   5.030 -0.5794  0.4623  0.2641
   11CHL1   C27  811   5.138   1.817   5.248 -0.1036  0.7087  0.1381
   11CHL1  H27A  812   5.249   1.820   5.244 -0.0747  1.8915  1.3021
   11CHL1  H27B  813   5.109   1.876   5.338 -0.3191  1.7165 -0.5766
   11CHL1  H27C  814   5.101   1.714   5.268  2.1655 -0.8591 -2.8708
   12CHL1    C3  815   5.130   3.981   5.595 -0.3810  0.2332 -0.3912
   12CHL1    H3  816   5.118   4.091   5.584 -0.0128  0.2892 -0.2415
   12CHL1    O3  817   5.132   3.947   5.739 -0.1590 -0.2858  0.3175
   12CHL1   H3'  818   5.186   3.868   5.733  0.6095  0.2350  0.2078
   12CHL1    C4  819   5.010   3.913   5.525  0.5609  0.0467  0.2329
   12CHL1   H4A  820   5.007   3.804   5.545 -3.4716 -0.4391 -1.9882
   12CHL1   H4B  821   4.919   3.949   5.577 -1.3282 -0.8806 -2.2518
   12CHL1    C5  822   5.016   3.956   5.376 -0.3228 -0.0572 -0.0710
   12CHL1    C6  823   4.914   4.014   5.319 -0.3438 -0.3848  0.1195
   12CHL1    H6  824   4.820   4.036   5.373  0.0677  0.0324  0.6861
   12CHL1    C7  825   4.903   4.039   5.171  0.3607  0.3594  0.4597
   12CHL1   H7A  826   4.806   4.012   5.125  1.2731 -1.3743 -0.5563
   12CHL1   H7B  827   4.907   4.149   5.155 -0.2597  0.1724 -1.2308
   12CHL1    C8  828   5.017   3.974   5.088  0.5409  0.1225 -0.6073
   12CHL1    H8  829   4.977   3.871   5.082 -0.9308  0.3466  2.7251
   12CHL1   C14  830   5.020   4.047   4.960 -0.5381 -0.0023  0.6741
   12CHL1   H14  831   5.031   4.154   4.987 -0.4333 -0.4482  2.5451
   12CHL1   C15  832   4.894   4.037   4.873  0.1111 -0.7143 -0.1860
   12CHL1  H15A  833   4.860   3.934   4.850  1.4370 -1.0539 -0.6992
   12CHL1  H15B  834   4.809   4.105   4.895 -0.0669 -1.4212  1.4473
   12CHL1   C16  835   4.938   4.085   4.734  0.0323 -0.4506  0.5027
   12CHL1  H16A  836   4.909   4.009   4.659  1.0564 -0.4694  0.1132
   12CHL1  H16B  837   4.899   4.187   4.716  3.1830  0.6635 -0.8541
   12CHL1   C17  838   5.096   4.105   4.746 -0.9375  0.1816  0.0169
   12CHL1   H17  839   5.101   4.207   4.789 -2.5539  0.3800 -0.2305
   12CHL1   C13  840   5.135   4.006   4.866  0.1767  0.6257 -0.0422
   12CHL1   C18  841   5.122   3.859   4.821  0.8877  0.4259  0.1804
   12CHL1  H18A  842   5.036   3.831   4.757  1.6866 -2.0254  0.0524
   12CHL1  H18B  843   5.212   3.845   4.757  0.4611  2.0457 -0.8216
   12CHL1  H18C  844   5.118   3.791   4.909 -2.5683  1.3706  0.9065
   12CHL1   C12  845   5.272   4.024   4.942  0.0934  0.0250  0.4579
   12CHL1  H12A  846   5.353   3.999   4.870 -0.8074 -0.6071 -0.3643
   12CHL1  H12B  847   5.286   4.133   4.960 -1.3477  0.3973 -0.5341
   12CHL1   C11  848   5.276   3.948   5.074  0.0894 -0.3361 -0.3705
   12CHL1  H11A  849   5.252   3.843   5.046  1.5903 -0.2787 -2.1310
   12CHL1  H11B  850   5.369   3.942   5.134  0.1543  1.8726 -0.1563
   12CHL1    C9  851   5.148   3.986   5.160 -0.4134 -0.4130 -0.2523
   12CHL1    H9  852   5.165   4.095   5.176  0.5036 -0.5988  0.0740
   12CHL1   C10  853   5.144   3.918   5.303 -0.0548  0.3573  0.3843
   12CHL1   C19  854   5.161   3.765   5.285 -0.3296  0.5501 -0.4025
   12CHL1  H19A  855   5.181   3.713   5.381  1.3947 -0.3027 -1.1776
   12CHL1  H19B  856   5.082   3.713   5.225 -2.3897 -0.4860  2.9248
   12CHL1  H19C  857   5.256   3.743   5.232 -0.4176  1.5424 -1.0060
   12CHL1    C1  858   5.256   3.985   5.386 -0.5271  1.0722 -0.4906
   12CHL1   H1A  859   5.355   3.972   5.337  1.0349  0.3398  2.5859
   12CHL1   H1B  860   5.227   4.092   5.395 -0.7493  0.9078  1.1487
   12CHL1    C2  861   5.263   3.940   5.533  0.3580  0.2127 -0.3752
   12CHL1   H2A  862   5.348   3.985   5.589 -0.3891  2.4835 -0.9844
   12CHL1   H2B  863   5.277   3.830   5.525 -0.5831  0.2294 -3.0817
   12CHL1   C20  864   5.164   4.086   4.609  0.4194 -0.5162  0.3099
   12CHL1   H20  865   5.196   3.980   4.596 -2.3378 -1.2974 -0.7140
   12CHL1   C21  866   5.293   4.171   4.614  0.5037  0.2728 -0.2675
   12CHL1  H21A  867   5.271   4.276   4.586 -0.0820  0.1458 -0.2900
   12CHL1  H21B  868   5.366   4.138   4.536  0.2724 -1.6727  0.2855
   12CHL1  H21C  869   5.352   4.170   4.708 -0.9798  0.8176  0.7092
   12CHL1   C22  870   5.084   4.116   4.480 -0.1769  0.3049 -0.0245
   12CHL1  H22A  871   4.993   4.054   4.463  0.8401 -0.8902 -1.3860
   12CHL1  H22B  872   5.052   4.222   4.487 -0.6781  0.1886 -0.4950
   12CHL1   C23  873   5.153   4.111   4.346 -0.4438 -0.2189  0.0783
   12CHL1  H23A  874   5.193   4.209   4.311  1.7408 -0.1917  2.3954
   12CHL1  H23B  875   5.247   4.052   4.347 -1.2095 -1.6431 -2.3546
   12CHL1   C24  876   5.067   4.047   4.237 -0.8076 -1.2228 -0.0308
   12CHL1  H24A  877   4.997   3.978   4.288 -1.1881 -0.1183  0.9876
   12CHL1  H24B  878   5.002   4.127   4.196  0.2811 -0.2871  0.0084
   12CHL1   C25  879   5.151   3.992   4.119  0.3411  1.1021  0.3771
   12CHL1   H25  880   5.234   3.947   4.177 -1.7767  0.6010  3.2974
   12CHL1   C26  881   5.078   3.881   4.044  0.6767  0.2353  0.4293
   12CHL1  H26A  882   5.035   3.809   4.117 -1.5667  0.4729 -0.5619
   12CHL1  H26B  883   4.994   3.931   3.990  1.4534  1.5231  0.3607
   12CHL1  H26C  884   5.131   3.831   3.960 -3.2842 -2.6629 -0.6211
   12CHL1   C27  885   5.217   4.094   4.030  0.1419 -0.0041  0.2619
   12CHL1  H27A  886   5.155   4.115   3.940 -0.4561  0.1408  0.7044
   12CHL1  H27B  887   5.235   4.189   4.085 -0.7031  1.5398 -1.9937
   12CHL1  H27C  888   5.317   4.057   3.998  0.0759  0.4884 -0.5456
   13CHL1    C3  889   4.776   1.377   6.543 -0.8672 -0.3226  0.5172
   13CHL1    H3  890   4.700   1.458   6.541 -1.0906 -0.5258  0.8794
   13CHL1    O3  891   4.805   1.343   6.675  0.0439 -0.1512  0.1888
   13CHL1   H3'  892   4.871   1.273   6.682  1.0445  0.5098 -1.8991
   13CHL1    C4  893   4.724   1.254   6.465  0.0570  0.0244  0.3586
   13CHL1   H4A  894   4.796   1.171   6.479 -0.9034 -0.6373  1.6212
   13CHL1   H4B  895   4.628   1.215   6.504 -0.2993  1.2738  0.8021
   13CHL1    C5  896   4.693   1.307   6.325 -0.0039  0.3772 -0.3238
   13CHL1    C6  897   4.576   1.308   6.267 -0.5869 -0.2579  0.2155
   13CHL1    H6  898   4.490   1.260   6.316  0.6315 -1.0997  1.5987
   13CHL1    C7  899   4.551   1.351   6.127 -0.1490  0.6407 -0.4137
   13CHL1   H7A  900   4.484   1.274   6.085  0.9805 -0.9091  0.5081
   13CHL1   H7B  901   4.503   1.451   6.124 -0.7817  0.3138 -1.7585
   13CHL1    C8  902   4.676   1.360   6.041  0.0998  0.0258  0.2609
   13CHL1    H8  903   4.704   1.255   6.021 -0.0840  0.3576 -1.9541
   13CHL1   C14  904   4.657   1.432   5.901  0.1376 -0.2941  0.1850
   13CHL1   H14  905   4.625   1.536   5.926  0.0134 -0.0211 -1.0510
   13CHL1   C15  906   4.544   1.396   5.809  0.2472  0.4561  0.1221
   13CHL1  H15A  907   4.545   1.285   5.798 -1.0237  0.4787 -0.3674
   13CHL1  H15B  908   4.452   1.432   5.860 -0.5591  3.0599 -2.9101
   13CHL1   C16  909   4.563   1.456   5.673 -0.0559 -0.6900  0.8794
   13CHL1  H16A  910   4.531   1.385   5.594  0.5233  0.0076 -0.0144
   13CHL1  H16B  911   4.506   1.552   5.669  0.9471 -0.0722 -3.3808
   13CHL1   C17  912   4.711   1.505   5.671 -1.0024  0.0286  0.1063
   13CHL1   H17  913   4.709   1.615   5.683  3.1722  0.1136  1.6319
   13CHL1   C13  914   4.776   1.448   5.802 -0.3136 -0.6726 -0.0277
   13CHL1   C18  915   4.830   1.309   5.760 -0.3824  0.3536 -0.3425
   13CHL1  H18A  916   4.854   1.250   5.851 -0.1634  0.8252 -0.0855
   13CHL1  H18B  917   4.761   1.253   5.695 -1.2239 -0.0325  0.8421
   13CHL1  H18C  918   4.920   1.326   5.698 -1.5896 -0.7188 -2.4740
   13CHL1   C12  919   4.885   1.526   5.882  0.5111  0.1170  0.8615
   13CHL1  H12A  920   4.985   1.525   5.833  0.6542  0.5694  1.1393
   13CHL1  H12B  921   4.837   1.626   5.893 -1.8619 -1.0133  1.3546
   13CHL1   C11  922   4.914   1.455   6.022 -0.6576  0.1769  0.1813
   13CHL1  H11A  923   4.973   1.362   6.004 -0.0121  0.6877 -0.4179
   13CHL1  H11B  924   4.985   1.526   6.068  0.4313 -0.2056 -0.8406
   13CHL1    C9  925   4.792   1.433   6.117  0.3853  0.9372  0.4564
   13CHL1    H9  926   4.745   1.532   6.136 -2.4779 -0.3391  0.5480
   13CHL1   C10  927   4.823   1.369   6.251 -0.2471  0.3499 -0.2173
   13CHL1   C19  928   4.921   1.249   6.248 -0.5250  0.5947  0.9131
   13CHL1  H19A  929   4.950   1.214   6.349  1.0681 -0.4414  0.1494
   13CHL1  H19B  930   4.875   1.169   6.186  1.1850  0.7993 -0.7259
   13CHL1  H19C  931   5.020   1.284   6.211 -0.2781  0.6161  1.5792
   13CHL1    C1  932   4.880   1.479   6.336 -0.1590 -0.5635 -0.3145
   13CHL1   H1A  933   4.984   1.496   6.300 -0.4324 -1.6980 -1.7819
   13CHL1   H1B  934   4.827   1.576   6.324  1.3016  0.3831  0.5703
   13CHL1    C2  935   4.898   1.447   6.488  0.1467  0.4435 -0.3529
   13CHL1   H2A  936   4.910   1.541   6.546  1.0441 -0.1625  0.4816
   13CHL1   H2B  937   4.988   1.384   6.506  0.5716  1.2123  0.2772
   13CHL1   C20  938   4.796   1.493   5.537  0.5228 -0.1607  0.5892
   13CHL1   H20  939   4.818   1.385   5.523  0.5331 -0.3073  1.6678
   13CHL1   C21  940   4.929   1.574   5.549 -0.7849 -0.0940 -0.0158
   13CHL1  H21A  941   4.982   1.607   5.457 -0.9121 -0.3626 -0.1879
   13CHL1  H21B  942   5.002   1.530   5.619  0.5171  1.4824 -0.3183
   13CHL1  H21C  943   4.904   1.668   5.604  2.6306  1.9341 -1.6142
   13CHL1   C22  944   4.717   1.549   5.415 -0.4888  0.1391  0.5151
   13CHL1  H22A  945   4.615   1.506   5.424 -0.6316 -0.3231 -2.2985
   13CHL1  H22B  946   4.716   1.660   5.420  0.6272  0.2029 -0.1052
   13CHL1   C23  947   4.753   1.490   5.273  1.7657  0.0418 -0.3224
   13CHL1  H23A  948   4.847   1.537   5.239  2.3070 -0.5377  0.3507
   13CHL1  H23B  949   4.763   1.379   5.272 -0.2013 -0.2275  1.3722
   13CHL1   C24  950   4.634   1.518   5.175 -0.2913 -0.3871 -0.3123
   13CHL1  H24A  951   4.536   1.487   5.219 -0.6500  1.8189  0.5917
   13CHL1  H24B  952   4.632   1.629   5.169  0.8606 -0.2800  0.7704
   13CHL1   C25  953   4.650   1.471   5.030 -0.6560 -0.1172  0.8300
   13CHL1   H25  954   4.555   1.498   4.978 -1.0317 -0.5068  1.3071
   13CHL1   C26  955   4.769   1.546   4.971  0.9118  0.0160 -0.5441
   13CHL1  H26A  956   4.862   1.520   5.026 -0.8037  0.0073  2.6364
   13CHL1  H26B  957   4.774   1.513   4.865 -1.3258  1.1809 -1.0776
   13CHL1  H26C  958   4.762   1.657   4.976  2.4123  0.1623 -1.2351
   13CHL1   C27  959   4.658   1.316   5.015 -0.3455 -0.3470 -0.1352
   13CHL1  H27A  960   4.569   1.267   5.060 -0.9102  0.1118 -0.7265
   13CHL1  H27B  961   4.650   1.284   4.909 -2.4906 -2.3665  0.5522
   13CHL1  H27C  962   4.757   1.283   5.052 -1.4120 -2.5154  0.9490
   14CHL1    C3  963   2.350   6.390   6.132 -0.0823 -0.3975  0.7659
   14CHL1    H3  964   2.395   6.470   6.069 -2.9689 -0.2977 -1.3153
   14CHL1    O3  965   2.341   6.448   6.264  0.2887  0.1368  0.1859
   14CHL1   H3'  966   2.300   6.384   6.322  1.2900  1.1720  2.1073
   14CHL1    C4  967   2.210   6.338   6.094  0.4482  0.3014 -0.1447
   14CHL1   H4A  968   2.154   6.286   6.174 -0.4436  2.2778  0.5881
   14CHL1   H4B  969   2.144   6.426   6.077  1.0089  1.2666  2.3669
   14CHL1    C5  970   2.214   6.252   5.968  0.7264  0.3275  0.0175
   14CHL1    C6  971   2.124   6.285   5.871 -0.8547 -0.5501  0.3126
   14CHL1    H6  972   2.056   6.370   5.883  1.5446  1.4027  0.7942
   14CHL1    C7  973   2.113   6.225   5.737  0.0280  0.1688 -1.0448
   14CHL1   H7A  974   2.008   6.202   5.707 -0.0482  1.2596 -1.6279
   14CHL1   H7B  975   2.153   6.292   5.658  0.1118 -0.2810 -1.3916
   14CHL1    C8  976   2.198   6.092   5.727 -0.7071  0.3766 -0.1863
   14CHL1    H8  977   2.141   6.012   5.779 -1.7826  1.7776  0.8813
   14CHL1   C14  978   2.240   6.055   5.588 -0.3976 -0.2594  0.0926
   14CHL1   H14  979   2.311   6.138   5.566 -1.2316 -0.0275 -1.9583
   14CHL1   C15  980   2.123   6.061   5.485 -0.7622 -0.3503  0.3057
   14CHL1  H15A  981   2.028   6.014   5.517 -2.3574  2.0110 -0.6941
   14CHL1  H15B  982   2.093   6.164   5.457 -0.3703 -0.6412 -1.2762
   14CHL1   C16  983   2.188   5.980   5.367  0.7366 -0.8202 -0.4103
   14CHL1  H16A  984   2.111   5.903   5.343 -2.2772  1.3479  1.6747
   14CHL1  H16B  985   2.189   6.053   5.284 -0.8291  0.6060  0.7540
   14CHL1   C17  986   2.322   5.924   5.412 -0.1783  0.4150  0.5599
   14CHL1   H17  987   2.395   6.004   5.387 -1.5669  2.5297  2.7690
   14CHL1   C13  988   2.319   5.926   5.568  0.3418 -0.3329  0.3488
   14CHL1   C18  989   2.247   5.810   5.626  0.0993  0.6943  0.5925
   14CHL1  H18A  990   2.148   5.801   5.576  0.4456 -2.3042  0.2403
   14CHL1  H18B  991   2.307   5.718   5.606  0.4314  1.2785 -1.2667
   14CHL1  H18C  992   2.240   5.808   5.737  0.1028  1.9582  0.6269
   14CHL1   C12  993   2.452   5.946   5.640 -0.2087 -0.4774  0.4030
   14CHL1  H12A  994   2.514   5.854   5.632 -1.2109 -1.1384  0.1206
   14CHL1  H12B  995   2.503   6.033   5.595 -0.9938 -0.1890  0.0607
   14CHL1   C11  996   2.433   5.977   5.790 -0.7398 -0.4930 -0.0142
   14CHL1  H11A  997   2.394   5.889   5.846  1.4602 -1.1481  0.5787
   14CHL1  H11B  998   2.534   5.993   5.833 -1.5404  0.3192  1.6468
   14CHL1    C9  999   2.338   6.104   5.807  0.4934  0.1688 -0.0308
   14CHL1    H9 1000   2.394   6.186   5.757  1.1283 -2.2174 -3.5922
   14CHL1   C10 1001   2.325   6.150   5.960 -0.2349 -0.0106 -0.0903
   14CHL1   C19 1002   2.276   6.027   6.048  1.1952 -0.1651  0.5583
   14CHL1  H19A 1003   2.192   5.975   5.997  2.5477 -2.6970  0.7384
   14CHL1  H19B 1004   2.356   5.951   6.061  0.7361 -0.3390  2.5940
   14CHL1  H19C 1005   2.260   6.060   6.153  1.5245  2.0429 -0.0245
   14CHL1    C1 1006   2.465   6.200   6.012  1.1490  0.1320  0.1139
   14CHL1   H1A 1007   2.522   6.105   6.023  0.1639 -0.5022 -0.0760
   14CHL1   H1B 1008   2.510   6.268   5.936  1.0828  0.7929  0.6568
   14CHL1    C2 1009   2.451   6.272   6.144 -0.7589  0.0206  1.1082
   14CHL1   H2A 1010   2.548   6.318   6.173 -0.4473 -0.0753  0.2253
   14CHL1   H2B 1011   2.414   6.207   6.227 -2.1193  0.9036  1.2258
   14CHL1   C20 1012   2.367   5.802   5.332  0.3280 -0.5276 -0.4662
   14CHL1   H20 1013   2.306   5.717   5.369  0.1049  0.0081  0.4377
   14CHL1   C21 1014   2.520   5.783   5.358  0.6492 -0.4803  0.4857
   14CHL1  H21A 1015   2.544   5.724   5.449 -0.0944 -0.0925  0.9510
   14CHL1  H21B 1016   2.575   5.879   5.366 -2.2675  1.4286 -0.4953
   14CHL1  H21C 1017   2.568   5.734   5.271 -1.0305  1.4218 -1.6445
   14CHL1   C22 1018   2.348   5.814   5.181  0.9549  0.4648 -0.1930
   14CHL1  H22A 1019   2.389   5.724   5.130  0.0715 -0.8444  1.3025
   14CHL1  H22B 1020   2.238   5.814   5.163  0.6550  0.9953  1.5191
   14CHL1   C23 1021   2.410   5.927   5.109  0.2018 -0.1453 -0.1478
   14CHL1  H23A 1022   2.358   6.018   5.146 -0.2372 -0.2543 -0.4965
   14CHL1  H23B 1023   2.518   5.934   5.136 -0.1425 -4.3827  3.4897
   14CHL1   C24 1024   2.378   5.934   4.959 -0.1966 -0.3606 -0.2251
   14CHL1  H24A 1025   2.439   5.850   4.919  1.3286  0.0874  1.0422
   14CHL1  H24B 1026   2.271   5.906   4.946 -0.3287  0.0782 -0.1144
   14CHL1   C25 1027   2.427   6.067   4.904 -0.4420  0.0578  0.5001
   14CHL1   H25 1028   2.386   6.146   4.970  0.2791  1.3822 -0.5652
   14CHL1   C26 1029   2.577   6.081   4.906  0.2387  0.0197  0.2559
   14CHL1  H26A 1030   2.602   6.187   4.888  1.2633 -0.1760  0.4506
   14CHL1  H26B 1031   2.617   6.055   5.007 -1.8156 -1.0427  0.8594
   14CHL1  H26C 1032   2.630   6.030   4.823  2.0196  2.8130 -0.4504
   14CHL1   C27 1033   2.370   6.097   4.758  0.1716 -0.3829  0.4157
   14CHL1  H27A 1034   2.391   6.203   4.732  2.3121 -1.1729 -1.4169
   14CHL1  H27B 1035   2.418   6.029   4.684 -2.0100 -0.6524 -0.8340
   14CHL1  H27C 1036   2.261   6.077   4.750 -1.1370  4.6570  1.8208
   15CHL1    C3 1037   3.765   5.322   6.109 -0.1210 -0.4123  0.5737
   15CHL1    H3 1038   3.825   5.416   6.103 -1.3419  0.5330  2.3520
   15CHL1    O3 1039   3.774   5.264   6.239 -0.1497 -0.2657 -0.3373
   15CHL1   H3' 1040   3.708   5.195   6.252 -0.6339 -0.3075 -2.6518
   15CHL1    C4 1041   3.623   5.364   6.092  0.6098 -0.4916  0.6683
   15CHL1   H4A 1042   3.568   5.270   6.112  0.1490  0.2232  3.1414
   15CHL1   H4B 1043   3.587   5.432   6.172  1.5238  0.5741  0.2084
   15CHL1    C5 1044   3.571   5.407   5.961  0.4226  0.0067  0.4137
   15CHL1    C6 1045   3.491   5.515   5.946  0.4380  0.1191 -0.1916
   15CHL1    H6 1046   3.465   5.569   6.038 -3.1407  0.7949 -1.4566
   15CHL1    C7 1047   3.429   5.558   5.809 -0.0902 -0.9110  0.1461
   15CHL1   H7A 1048   3.320   5.582   5.819 -0.0141 -1.1595  1.9923
   15CHL1   H7B 1049   3.483   5.649   5.776 -0.1911 -0.6187  0.7656
   15CHL1    C8 1050   3.449   5.447   5.707 -0.0231  0.7532  0.1414
   15CHL1    H8 1051   3.362   5.382   5.731 -0.9251  2.2820  1.2162
   15CHL1   C14 1052   3.429   5.499   5.566 -0.0588  0.1742 -0.3172
   15CHL1   H14 1053   3.514   5.566   5.544 -0.6826  1.0789 -0.0417
   15CHL1   C15 1054   3.307   5.589   5.537  0.0165 -0.0523 -0.4574
   15CHL1  H15A 1055   3.218   5.534   5.577  0.7151 -2.2136 -1.6900
   15CHL1  H15B 1056   3.307   5.689   5.584 -0.4436 -1.3409  2.5357
   15CHL1   C16 1057   3.304   5.597   5.388  0.2162  0.0485 -0.1774
   15CHL1  H16A 1058   3.201   5.566   5.358  0.6456 -0.7611 -0.8702
   15CHL1  H16B 1059   3.314   5.702   5.351 -0.9484 -0.5384 -2.3577
   15CHL1   C17 1060   3.401   5.496   5.323  0.2021 -0.1021 -0.0548
   15CHL1   H17 1061   3.495   5.554   5.310 -1.2628  2.6555  0.7005
   15CHL1   C13 1062   3.431   5.400   5.448  0.5245  0.0267  0.1745
   15CHL1   C18 1063   3.326   5.290   5.473 -0.5654  0.6598 -0.2138
   15CHL1  H18A 1064   3.342   5.203   5.405 -1.4602  1.2169 -1.1650
   15CHL1  H18B 1065   3.337   5.252   5.576  0.5429  1.0400 -0.1666
   15CHL1  H18C 1066   3.224   5.328   5.451 -0.4015  1.2368 -0.0043
   15CHL1   C12 1067   3.581   5.341   5.451  0.1678 -0.6043 -0.0950
   15CHL1  H12A 1068   3.579   5.255   5.380 -0.1013 -0.0749 -0.7398
   15CHL1  H12B 1069   3.670   5.401   5.426  0.4297 -1.2581 -0.7815
   15CHL1   C11 1070   3.610   5.289   5.589 -0.3028 -0.0199 -0.0599
   15CHL1  H11A 1071   3.540   5.203   5.595 -0.5822 -0.0628 -2.7419
   15CHL1  H11B 1072   3.717   5.256   5.590  0.0556  0.7569 -3.1062
   15CHL1    C9 1073   3.588   5.376   5.715  1.2265  0.6568 -0.5896
   15CHL1    H9 1074   3.664   5.456   5.708  0.3016  1.4841 -1.4297
   15CHL1   C10 1075   3.611   5.309   5.851 -0.6810  0.0041  0.2440
   15CHL1   C19 1076   3.517   5.182   5.857 -0.2182 -0.0265  0.1383
   15CHL1  H19A 1077   3.417   5.202   5.815 -0.7497 -0.2569  1.2579
   15CHL1  H19B 1078   3.573   5.110   5.793  0.6518  0.4172  0.3757
   15CHL1  H19C 1079   3.521   5.129   5.955 -3.5966 -1.0713 -0.1737
   15CHL1    C1 1080   3.765   5.272   5.866  0.0025 -0.8142  0.6265
   15CHL1   H1A 1081   3.778   5.188   5.794  1.8179 -3.3678  3.6783
   15CHL1   H1B 1082   3.833   5.359   5.854  0.0891 -0.2217  4.2628
   15CHL1    C2 1083   3.812   5.221   6.003 -0.3089  0.2023  0.0917
   15CHL1   H2A 1084   3.923   5.211   6.000 -0.3129  0.2853 -1.4925
   15CHL1   H2B 1085   3.761   5.126   6.029  0.6710  0.0803  1.6791
   15CHL1   C20 1086   3.361   5.427   5.189 -0.3548  0.4543 -0.4468
   15CHL1   H20 1087   3.268   5.370   5.209  0.2500 -0.2121  0.6391
   15CHL1   C21 1088   3.472   5.322   5.153  0.6875 -0.6725  0.9402
   15CHL1  H21A 1089   3.569   5.377   5.162  0.8476 -0.7924 -0.0117
   15CHL1  H21B 1090   3.473   5.279   5.051  0.5123  1.8675 -0.2017
   15CHL1  H21C 1091   3.462   5.230   5.214 -4.9614 -0.4928  0.7666
   15CHL1   C22 1092   3.339   5.536   5.081 -0.1563 -0.0150  0.7684
   15CHL1  H22A 1093   3.267   5.610   5.123  1.4166  1.5220  0.9107
   15CHL1  H22B 1094   3.434   5.586   5.052  0.9917 -0.3962  3.5605
   15CHL1   C23 1095   3.289   5.479   4.941  0.3051 -0.5067 -0.4297
   15CHL1  H23A 1096   3.266   5.564   4.874 -1.9311 -2.9855 -3.1000
   15CHL1  H23B 1097   3.377   5.422   4.903  0.2155 -1.3897  0.6538
   15CHL1   C24 1098   3.170   5.382   4.943  0.6173  0.3162  0.7220
   15CHL1  H24A 1099   3.197   5.295   5.006  0.3886 -1.0245 -0.9528
   15CHL1  H24B 1100   3.089   5.443   4.989 -0.6430 -1.7723  1.3692
   15CHL1   C25 1101   3.128   5.336   4.800  0.2721  0.6248  0.2666
   15CHL1   H25 1102   3.136   5.421   4.728 -1.7564  0.0004 -0.7461
   15CHL1   C26 1103   3.222   5.219   4.771  0.6905  0.1771 -0.2511
   15CHL1  H26A 1104   3.329   5.247   4.783  0.1843  2.4330 -0.5043
   15CHL1  H26B 1105   3.191   5.133   4.835 -1.0060  1.5097  0.8183
   15CHL1  H26C 1106   3.220   5.181   4.666 -0.8658 -0.6949  0.0626
   15CHL1   C27 1107   2.982   5.284   4.794 -0.1746 -0.5859  0.1367
   15CHL1  H27A 1108   2.954   5.247   4.693  1.0551 -0.2208 -0.3509
   15CHL1  H27B 1109   2.966   5.198   4.863 -1.0633 -0.8751 -0.4130
   15CHL1  H27C 1110   2.908   5.357   4.833  0.8614  0.8075 -0.4258
   16CHL1    C3 1111   2.573   6.769   6.177 -0.6171 -0.0670 -0.6913
   16CHL1    H3 1112   2.618   6.673   6.144  0.4574 -0.0924  0.7591
   16CHL1    O3 1113   2.600   6.775   6.323 -0.3402  0.2429 -0.2721
   16CHL1   H3' 1114   2.560   6.851   6.364  1.4428  0.6663  0.8030
   16CHL1    C4 1115   2.634   6.889   6.118  0.1867 -0.4746  0.6948
   16CHL1   H4A 1116   2.589   6.978   6.167 -3.4449 -1.5699 -0.3542
   16CHL1   H4B 1117   2.744   6.892   6.137  0.3180 -0.3097 -0.0346
   16CHL1    C5 1118   2.613   6.908   5.967 -0.4589  0.5068 -0.2204
   16CHL1    C6 1119   2.707   6.944   5.885 -0.4234  0.0885  0.6738
   16CHL1    H6 1120   2.813   6.942   5.915  0.3656  1.4843 -1.6958
   16CHL1    C7 1121   2.678   6.985   5.741 -1.3383  0.4171 -0.3881
   16CHL1   H7A 1122   2.740   7.075   5.722 -1.4357  0.3574 -1.0162
   16CHL1   H7B 1123   2.733   6.916   5.674 -0.8888 -1.2078  1.5452
   16CHL1    C8 1124   2.529   6.996   5.705 -0.6943 -0.6590  0.3225
   16CHL1    H8 1125   2.485   7.096   5.727 -1.7901 -0.6103 -1.8523
   16CHL1   C14 1126   2.515   6.968   5.550  0.3292 -0.3868 -0.2697
   16CHL1   H14 1127   2.542   6.863   5.529  3.4592  0.6061 -1.8191
   16CHL1   C15 1128   2.605   7.052   5.459  0.1006  0.1523  0.3884
   16CHL1  H15A 1129   2.620   7.147   5.515 -0.8256  0.1373  0.6767
   16CHL1  H15B 1130   2.695   6.990   5.440  0.7488  1.0827  0.3259
   16CHL1   C16 1131   2.526   7.052   5.325 -0.4947  0.7785  0.4338
   16CHL1  H16A 1132   2.491   7.157   5.318  1.6359  1.4449 -1.2571
   16CHL1  H16B 1133   2.593   7.017   5.244 -1.1484  0.6722 -0.0604
   16CHL1   C17 1134   2.399   6.959   5.343  0.0897 -0.1576 -0.3097
   16CHL1   H17 1135   2.436   6.857   5.324  0.3262  0.2804 -2.4260
   16CHL1   C13 1136   2.371   6.971   5.495  0.0872  0.3439 -0.5316
   16CHL1   C18 1137   2.305   7.107   5.522  0.0909 -0.1915 -0.1067
   16CHL1  H18A 1138   2.366   7.189   5.481 -0.0877  0.8472  1.6111
   16CHL1  H18B 1139   2.202   7.103   5.479  0.3055  0.2361 -0.6647
   16CHL1  H18C 1140   2.285   7.136   5.627 -0.4412  1.2454 -0.5875
   16CHL1   C12 1141   2.301   6.858   5.568  0.2068 -0.1922 -0.0345
   16CHL1  H12A 1142   2.197   6.836   5.535  0.5250 -1.3154 -0.3418
   16CHL1  H12B 1143   2.355   6.768   5.529  0.7320  0.2709 -0.3970
   16CHL1   C11 1144   2.301   6.873   5.721 -0.0502 -0.4856 -0.8716
   16CHL1  H11A 1145   2.241   6.960   5.755 -0.2138 -0.5356 -1.0270
   16CHL1  H11B 1146   2.255   6.790   5.779 -2.1228 -0.6072 -2.5908
   16CHL1    C9 1147   2.443   6.891   5.774 -0.3313  0.4397 -0.4232
   16CHL1    H9 1148   2.491   6.793   5.751 -1.4290 -0.4172  0.7752
   16CHL1   C10 1149   2.460   6.896   5.926 -0.7480  0.0204  0.7263
   16CHL1   C19 1150   2.386   7.022   5.971  0.2761 -0.2593  0.5479
   16CHL1  H19A 1151   2.277   7.010   5.959  0.2190  0.1522  0.6408
   16CHL1  H19B 1152   2.412   7.058   6.074 -2.5757  0.6616  1.0201
   16CHL1  H19C 1153   2.415   7.108   5.906  4.2269 -1.3164  0.6349
   16CHL1    C1 1154   2.391   6.778   6.003 -0.0526  0.0513 -0.1605
   16CHL1   H1A 1155   2.281   6.776   5.988  0.0186  3.0389 -1.6846
   16CHL1   H1B 1156   2.427   6.684   5.954 -1.5956  0.1261 -1.4934
   16CHL1    C2 1157   2.426   6.770   6.155 -0.3103  0.0240 -0.0507
   16CHL1   H2A 1158   2.369   6.688   6.203 -2.7615  2.3393  1.2514
   16CHL1   H2B 1159   2.393   6.861   6.208 -1.2821 -1.7296  2.5718
   16CHL1   C20 1160   2.288   7.003   5.247 -0.6048 -0.4218 -0.2527
   16CHL1   H20 1161   2.274   7.109   5.279  1.4247 -0.6738  1.7628
   16CHL1   C21 1162   2.158   6.922   5.268  0.5824  0.4562  0.0974
   16CHL1  H21A 1163   2.182   6.814   5.264 -0.1920  0.1544  2.1707
   16CHL1  H21B 1164   2.082   6.941   5.189 -1.7648  0.2580  2.1600
   16CHL1  H21C 1165   2.114   6.946   5.368  1.5928  0.1422  0.6319
   16CHL1   C22 1166   2.338   7.009   5.102  0.1799 -0.1932  0.2591
   16CHL1  H22A 1167   2.238   7.020   5.055 -0.5229  0.4401  1.8324
   16CHL1  H22B 1168   2.405   7.097   5.091  1.6839 -0.7028  3.8240
   16CHL1   C23 1169   2.411   6.879   5.059  0.7067  0.8383 -0.1931
   16CHL1  H23A 1170   2.516   6.878   5.095  0.2560 -1.2297  1.2166
   16CHL1  H23B 1171   2.364   6.787   5.099  1.6152 -0.7047 -2.4616
   16CHL1   C24 1172   2.434   6.865   4.906  0.1259 -0.3096  0.4768
   16CHL1  H24A 1173   2.341   6.865   4.845  0.6386  0.2773 -0.3298
   16CHL1  H24B 1174   2.482   6.962   4.879  2.3831 -1.6176 -0.5260
   16CHL1   C25 1175   2.521   6.752   4.859  0.0795  0.5103  0.2575
   16CHL1   H25 1176   2.612   6.743   4.922 -0.8800 -0.1638  1.5797
   16CHL1   C26 1177   2.449   6.617   4.873  0.3553 -0.1288  0.1428
   16CHL1  H26A 1178   2.415   6.590   4.976 -2.6759 -0.5172 -0.8588
   16CHL1  H26B 1179   2.350   6.626   4.824  0.9667  3.2875 -0.6884
   16CHL1  H26C 1180   2.494   6.530   4.820  0.6562 -1.4477  2.4199
   16CHL1   C27 1181   2.562   6.774   4.712  0.4718 -0.0198 -0.1125
   16CHL1  H27A 1182   2.627   6.691   4.677  0.1474 -1.0230  1.5755
   16CHL1  H27B 1183   2.470   6.776   4.648 -0.2853 -1.4273  0.8870
   16CHL1  H27C 1184   2.610   6.874   4.705  3.6627 -1.4201  0.1958
   17CHL1    C3 1185   3.185   1.261   6.228  0.3043 -0.7002  0.1796
   17CHL1    H3 1186   3.081   1.283   6.197  1.1345 -0.1527 -2.5421
   17CHL1    O3 1187   3.207   1.287   6.365  0.0592  0.1700 -0.4404
   17CHL1   H3' 1188   3.206   1.200   6.406  1.2722  0.2237 -0.2708
   17CHL1    C4 1189   3.205   1.112   6.207 -0.5790 -0.5838  0.2192
   17CHL1   H4A 1190   3.311   1.082   6.224 -0.4074 -1.5636 -2.1529
   17CHL1   H4B 1191   3.142   1.052   6.276 -1.3722 -1.4700 -1.2299
   17CHL1    C5 1192   3.190   1.078   6.066 -0.2254 -0.8382  0.2952
   17CHL1    C6 1193   3.107   0.983   6.029 -0.0738  0.2009 -0.6828
   17CHL1    H6 1194   3.047   0.938   6.110  0.3429  2.5194  1.0069
   17CHL1    C7 1195   3.086   0.932   5.892  0.3442 -0.3737 -0.2753
   17CHL1   H7A 1196   3.087   0.821   5.895  1.8249 -0.4137 -1.2460
   17CHL1   H7B 1197   2.984   0.952   5.853  0.4579 -1.0784 -0.9483
   17CHL1    C8 1198   3.187   0.992   5.794 -0.3245  0.4156  0.1308
   17CHL1    H8 1199   3.278   0.931   5.811 -0.8351 -1.1503 -2.3665
   17CHL1   C14 1200   3.151   0.970   5.646  0.3298 -0.5627 -0.3702
   17CHL1   H14 1201   3.069   1.043   5.631 -0.1660  0.1104  4.2005
   17CHL1   C15 1202   3.090   0.833   5.594  0.1423 -0.2243 -0.0238
   17CHL1  H15A 1203   3.135   0.753   5.657 -0.8092  0.3328  1.4232
   17CHL1  H15B 1204   2.980   0.818   5.597  0.3475 -2.0743 -0.8128
   17CHL1   C16 1205   3.142   0.814   5.454  0.1270 -0.7098  0.7038
   17CHL1  H16A 1206   3.220   0.736   5.441 -2.0238 -3.0615  1.2319
   17CHL1  H16B 1207   3.056   0.783   5.391  0.3461 -0.8506  0.4754
   17CHL1   C17 1208   3.200   0.954   5.415 -0.6263  0.2852  0.6486
   17CHL1   H17 1209   3.106   1.012   5.404 -1.9000 -1.4029  2.0989
   17CHL1   C13 1210   3.262   1.008   5.547 -0.3764 -0.0444 -0.3743
   17CHL1   C18 1211   3.390   0.934   5.583 -0.8654  0.0864 -0.1348
   17CHL1  H18A 1212   3.471   0.972   5.517 -0.8521  0.5359  0.1403
   17CHL1  H18B 1213   3.431   0.957   5.683  0.8998 -0.1740 -0.7549
   17CHL1  H18C 1214   3.393   0.823   5.572  1.0480 -0.1359  1.9331
   17CHL1   C12 1215   3.282   1.157   5.557 -0.2736  0.5475  0.4672
   17CHL1  H12A 1216   3.355   1.194   5.482 -3.2344 -0.4584 -3.1660
   17CHL1  H12B 1217   3.186   1.204   5.531 -1.3116 -0.9559  1.4001
   17CHL1   C11 1218   3.315   1.199   5.704  0.2421  0.2722 -0.0594
   17CHL1  H11A 1219   3.421   1.181   5.732 -0.0148  0.5064  1.1028
   17CHL1  H11B 1220   3.297   1.308   5.712 -0.7533  0.2782 -1.8173
   17CHL1    C9 1221   3.228   1.134   5.817  0.2748 -0.3111 -0.2213
   17CHL1    H9 1222   3.134   1.193   5.817  0.1986 -0.3297 -2.9228
   17CHL1   C10 1223   3.280   1.157   5.966  0.2477 -0.3052 -0.3143
   17CHL1   C19 1224   3.423   1.107   5.978 -0.3315  0.2962 -0.1286
   17CHL1  H19A 1225   3.455   1.126   6.082  1.3305  0.1136 -0.5727
   17CHL1  H19B 1226   3.426   0.997   5.961 -0.2552  0.3927 -0.7853
   17CHL1  H19C 1227   3.494   1.162   5.913  0.8216 -0.8123  0.1421
   17CHL1    C1 1228   3.270   1.309   5.996 -0.1181  0.7883 -0.2626
   17CHL1   H1A 1229   3.351   1.356   5.936  1.5818 -1.7199 -0.0903
   17CHL1   H1B 1230   3.167   1.337   5.966 -0.6423 -1.2275 -0.4833
   17CHL1    C2 1231   3.286   1.339   6.145  0.2668 -0.0764  0.8886
   17CHL1   H2A 1232   3.263   1.444   6.173 -0.3423 -0.3022  1.2410
   17CHL1   H2B 1233   3.388   1.312   6.180  1.2694 -1.1401 -2.4763
   17CHL1   C20 1234   3.293   0.966   5.288 -0.0210 -0.7464 -0.5316
   17CHL1   H20 1235   3.396   0.947   5.325  0.2092  4.6549  2.6269
   17CHL1   C21 1236   3.284   1.110   5.228  0.2117  0.3026  0.4900
   17CHL1  H21A 1237   3.182   1.120   5.185  0.4328  1.6374  0.2447
   17CHL1  H21B 1238   3.347   1.116   5.137 -0.6268  1.1067 -0.0627
   17CHL1  H21C 1239   3.298   1.191   5.302 -0.9911  0.5488  0.4669
   17CHL1   C22 1240   3.258   0.859   5.180  0.4695  0.6042 -0.0082
   17CHL1  H22A 1241   3.243   0.759   5.224 -0.4336  0.9892  0.5805
   17CHL1  H22B 1242   3.157   0.877   5.138  0.4542  0.8472  0.1290
   17CHL1   C23 1243   3.366   0.835   5.067 -0.4221 -0.2699 -0.6877
   17CHL1  H23A 1244   3.398   0.923   5.007  0.7162 -1.0082 -1.1980
   17CHL1  H23B 1245   3.454   0.800   5.126 -0.8793  1.6904  1.3020
   17CHL1   C24 1246   3.325   0.727   4.959 -0.6936 -0.2675  0.0895
   17CHL1  H24A 1247   3.288   0.640   5.016  0.6889 -0.9806 -0.0465
   17CHL1  H24B 1248   3.248   0.773   4.893 -0.0314  1.8842  0.7260
   17CHL1   C25 1249   3.439   0.701   4.860 -0.1457  0.9099  0.4815
   17CHL1   H25 1250   3.480   0.802   4.839  0.5964  0.5897  0.3568
   17CHL1   C26 1251   3.552   0.617   4.926  1.3345 -0.3274 -0.2711
   17CHL1  H26A 1252   3.610   0.571   4.842  0.7696  1.1189 -1.5018
   17CHL1  H26B 1253   3.618   0.683   4.987  0.1468  0.4943  0.1544
   17CHL1  H26C 1254   3.516   0.531   4.986  0.4031 -0.5646 -1.1388
   17CHL1   C27 1255   3.389   0.634   4.727  0.5969 -0.1322 -0.2450
   17CHL1  H27A 1256   3.474   0.604   4.662 -1.4311 -2.1254 -2.1685
   17CHL1  H27B 1257   3.328   0.543   4.746 -0.1560  0.5974  0.9464
   17CHL1  H27C 1258   3.315   0.701   4.678  0.6553  0.5132  0.5335
   18CHL1    C3 1259   3.807   2.526   6.018  0.2122 -0.1064  0.4930
   18CHL1    H3 1260   3.859   2.618   5.984 -1.4840 -0.8103 -5.0393
   18CHL1    O3 1261   3.785   2.530   6.154 -0.3077  0.5899  0.2269
   18CHL1   H3' 1262   3.863   2.573   6.190  0.6731 -1.4640  0.7432
   18CHL1    C4 1263   3.666   2.514   5.958 -0.4966  1.0882 -0.2825
   18CHL1   H4A 1264   3.628   2.417   5.998  1.8134  0.1443 -0.2118
   18CHL1   H4B 1265   3.599   2.593   6.001 -1.9597 -0.0940 -0.2991
   18CHL1    C5 1266   3.671   2.506   5.808  0.1579  0.5885  0.3337
   18CHL1    C6 1267   3.615   2.604   5.734  0.1680 -0.2249  0.2294
   18CHL1    H6 1268   3.563   2.688   5.781 -0.6911 -0.9194  0.5382
   18CHL1    C7 1269   3.607   2.605   5.587 -0.3974  0.5134  0.1615
   18CHL1   H7A 1270   3.510   2.647   5.553 -1.1808  0.2955  1.9887
   18CHL1   H7B 1271   3.694   2.668   5.560  2.1007 -1.6205  2.5712
   18CHL1    C8 1272   3.642   2.460   5.530  0.6896  0.0650 -0.0226
   18CHL1    H8 1273   3.552   2.402   5.558  0.7837  0.2074  0.5892
   18CHL1   C14 1274   3.666   2.462   5.381  0.3472 -0.1753 -0.8454
   18CHL1   H14 1275   3.751   2.532   5.363  0.0155  0.1684 -1.0959
   18CHL1   C15 1276   3.553   2.518   5.291 -0.5228 -0.0705 -0.8637
   18CHL1  H15A 1277   3.457   2.470   5.320  0.4863 -2.7475 -1.6572
   18CHL1  H15B 1278   3.537   2.627   5.300 -1.7276 -0.3263  0.5649
   18CHL1   C16 1279   3.588   2.471   5.145 -0.3724  0.0669 -0.1084
   18CHL1  H16A 1280   3.496   2.418   5.113 -0.3092  0.0799 -0.3141
   18CHL1  H16B 1281   3.623   2.552   5.077  1.2597 -0.2372  0.3500
   18CHL1   C17 1282   3.710   2.378   5.155 -0.1787 -0.3016  0.5974
   18CHL1   H17 1283   3.805   2.436   5.151  0.4296 -1.3292 -0.2983
   18CHL1   C13 1284   3.711   2.334   5.306 -0.2396 -0.7834  0.2312
   18CHL1   C18 1285   3.594   2.237   5.337 -0.1644 -0.4168  0.1261
   18CHL1  H18A 1286   3.621   2.132   5.314  2.5888  0.4988 -1.2701
   18CHL1  H18B 1287   3.570   2.224   5.444 -0.5951 -0.5408  0.0163
   18CHL1  H18C 1288   3.498   2.249   5.282 -1.2553 -0.8946  1.8385
   18CHL1   C12 1289   3.847   2.297   5.372 -0.7400 -0.1517  0.2770
   18CHL1  H12A 1290   3.882   2.201   5.328 -1.7276 -0.1352 -0.5833
   18CHL1  H12B 1291   3.931   2.367   5.353 -0.7724 -0.5630 -1.4863
   18CHL1   C11 1292   3.840   2.283   5.527  0.5189  0.2214  0.2283
   18CHL1  H11A 1293   3.791   2.188   5.556  0.7552  0.2567  0.7405
   18CHL1  H11B 1294   3.946   2.288   5.560  0.4944  1.7417  0.1746
   18CHL1    C9 1295   3.774   2.409   5.593 -0.0933 -0.0638  0.1667
   18CHL1    H9 1296   3.849   2.488   5.572 -0.0373 -0.5075 -1.3879
   18CHL1   C10 1297   3.763   2.395   5.749 -0.4065  0.0535 -0.3600
   18CHL1   C19 1298   3.698   2.257   5.782  0.5020 -0.1848 -0.4205
   18CHL1  H19A 1299   3.606   2.257   5.719  0.0549  0.9850  0.2137
   18CHL1  H19B 1300   3.770   2.175   5.759 -1.0049 -1.2245 -1.6409
   18CHL1  H19C 1301   3.667   2.231   5.885 -0.3934 -2.8261 -1.2772
   18CHL1    C1 1302   3.907   2.407   5.821  0.3083 -0.1181  0.5173
   18CHL1   H1A 1303   3.954   2.311   5.792 -1.8798 -0.6703 -1.4787
   18CHL1   H1B 1304   3.952   2.500   5.780 -0.9954  0.0927 -0.5209
   18CHL1    C2 1305   3.897   2.414   5.978  0.4713 -0.1622  0.3336
   18CHL1   H2A 1306   4.005   2.419   6.007  0.7122 -2.2842 -0.0378
   18CHL1   H2B 1307   3.855   2.316   6.008  1.3721 -0.4246  0.7731
   18CHL1   C20 1308   3.705   2.269   5.042  0.0312  0.6522 -0.7821
   18CHL1   H20 1309   3.606   2.218   5.053  0.1082  0.8412  1.2154
   18CHL1   C21 1310   3.808   2.162   5.068 -0.4204 -0.6335 -0.2153
   18CHL1  H21A 1311   3.787   2.117   5.167  1.5160  1.6909  1.3615
   18CHL1  H21B 1312   3.910   2.206   5.065 -1.1274  1.1031  0.1287
   18CHL1  H21C 1313   3.814   2.080   4.993 -1.2168  0.2381 -1.2658
   18CHL1   C22 1314   3.711   2.332   4.903 -0.6519  0.1683 -0.2632
   18CHL1  H22A 1315   3.652   2.425   4.890 -1.6563 -0.6866 -2.2770
   18CHL1  H22B 1316   3.817   2.363   4.890 -0.8420  3.0468  3.3562
   18CHL1   C23 1317   3.667   2.227   4.799  0.9911  0.3688 -0.0184
   18CHL1  H23A 1318   3.724   2.133   4.817 -0.6371 -0.1722  3.0396
   18CHL1  H23B 1319   3.559   2.200   4.798  1.0906 -0.2325  1.9427
   18CHL1   C24 1320   3.705   2.274   4.664  0.3124  0.1715  0.8282
   18CHL1  H24A 1321   3.659   2.374   4.653 -1.8679 -0.8430  0.1236
   18CHL1  H24B 1322   3.815   2.274   4.650 -0.0288  0.1570 -2.8119
   18CHL1   C25 1323   3.645   2.195   4.539 -0.3446  0.6004 -0.4267
   18CHL1   H25 1324   3.541   2.178   4.576 -0.1524  1.8024  0.7663
   18CHL1   C26 1325   3.636   2.266   4.405  0.1532 -0.1233 -0.5400
   18CHL1  H26A 1326   3.573   2.217   4.328 -1.4697  1.2734 -0.1923
   18CHL1  H26B 1327   3.588   2.366   4.415 -1.8095 -1.0504 -0.1161
   18CHL1  H26C 1328   3.733   2.295   4.361  0.6265  0.0313  0.5587
   18CHL1   C27 1329   3.711   2.055   4.526 -1.0041 -0.1203  1.1709
   18CHL1  H27A 1330   3.813   2.082   4.490 -1.5329  1.8119  1.0171
   18CHL1  H27B 1331   3.713   1.994   4.619  1.9968 -0.5372  0.9173
   18CHL1  H27C 1332   3.665   1.991   4.448  0.1875  0.2855  0.0934
   19CHL1    C3 1333   4.037   2.060   6.124 -0.4815  0.1890  0.3892
   19CHL1    H3 1334   3.982   2.155   6.108 -0.8751 -0.0890  0.0711
   19CHL1    O3 1335   4.049   2.049   6.269 -1.0080 -0.7349 -0.7339
   19CHL1   H3' 1336   4.120   1.985   6.279 -1.4553 -0.8621  2.6160
   19CHL1    C4 1337   3.952   1.940   6.086  0.4514  0.3238 -0.1988
   19CHL1   H4A 1338   3.989   1.846   6.133  1.6190  0.7922 -0.1353
   19CHL1   H4B 1339   3.857   1.953   6.141  1.1123 -2.9924  1.9944
   19CHL1    C5 1340   3.935   1.932   5.932  0.0424 -0.0194  0.5981
   19CHL1    C6 1341   3.811   1.927   5.874 -0.2030  0.2279  0.0846
   19CHL1    H6 1342   3.717   1.921   5.932  0.0855  0.8247  0.6245
   19CHL1    C7 1343   3.798   1.900   5.727  0.4302  0.2184  0.1857
   19CHL1   H7A 1344   3.724   1.818   5.711 -2.9436  3.4142 -2.0443
   19CHL1   H7B 1345   3.759   1.986   5.670 -2.8206 -1.2126  0.0206
   19CHL1    C8 1346   3.932   1.851   5.661  0.0678 -0.1175  0.1801
   19CHL1    H8 1347   3.950   1.742   5.671 -1.1214 -0.2023  1.6473
   19CHL1   C14 1348   3.915   1.872   5.507 -0.0726 -0.2549 -0.0626
   19CHL1   H14 1349   3.904   1.983   5.502  3.1431  0.3365  2.5226
   19CHL1   C15 1350   3.790   1.811   5.441 -0.1269  0.6690  0.3229
   19CHL1  H15A 1351   3.763   1.713   5.486  2.3857  0.4507  1.4817
   19CHL1  H15B 1352   3.706   1.881   5.460 -0.2743  0.4935  0.3218
   19CHL1   C16 1353   3.827   1.805   5.295  0.3975  0.0532 -0.0248
   19CHL1  H16A 1354   3.819   1.703   5.253  0.1593  0.0591  0.0074
   19CHL1  H16B 1355   3.762   1.869   5.231  0.2595  1.4110  1.4139
   19CHL1   C17 1356   3.974   1.858   5.283  0.4314 -0.1847  0.5155
   19CHL1   H17 1357   3.965   1.969   5.277  1.6512  0.0312  1.9247
   19CHL1   C13 1358   4.031   1.831   5.423  1.2141  0.7240 -0.6168
   19CHL1   C18 1359   4.054   1.675   5.434 -0.1989  0.8721  0.1265
   19CHL1  H18A 1360   4.070   1.634   5.536 -0.4450 -1.1820 -0.6076
   19CHL1  H18B 1361   3.984   1.608   5.379  0.3779 -2.3426  2.9795
   19CHL1  H18C 1362   4.157   1.655   5.398 -1.2574 -1.7338 -1.7574
   19CHL1   C12 1363   4.161   1.909   5.469  0.1635  0.1080 -0.5154
   19CHL1  H12A 1364   4.249   1.877   5.409 -2.7693 -4.4015 -2.9695
   19CHL1  H12B 1365   4.141   2.015   5.443 -1.7444  0.0269  0.4574
   19CHL1   C11 1366   4.182   1.896   5.617  0.0441  0.1429  0.1534
   19CHL1  H11A 1367   4.223   1.795   5.638 -0.4758  0.3162  2.1101
   19CHL1  H11B 1368   4.259   1.973   5.642  0.2182  1.1854 -3.0741
   19CHL1    C9 1369   4.053   1.927   5.703  0.2195 -0.6424  1.3867
   19CHL1    H9 1370   4.029   2.033   5.682  0.1792 -0.9647 -0.3273
   19CHL1   C10 1371   4.074   1.927   5.853 -0.5363  0.5232 -0.5660
   19CHL1   C19 1372   4.140   1.789   5.884 -0.1829 -1.1655  0.1666
   19CHL1  H19A 1373   4.140   1.765   5.993  1.2342  0.6702  0.6237
   19CHL1  H19B 1374   4.079   1.709   5.836 -1.5558 -0.1350  0.1478
   19CHL1  H19C 1375   4.242   1.777   5.841  0.1124 -0.1726  0.5771
   19CHL1    C1 1376   4.157   2.042   5.907 -1.2909 -0.1983  0.0522
   19CHL1   H1A 1377   4.257   2.034   5.859 -1.5992 -2.4132 -0.3351
   19CHL1   H1B 1378   4.109   2.132   5.865 -1.5508  0.1668  1.1005
   19CHL1    C2 1379   4.173   2.051   6.059 -0.3548  0.0832  0.7513
   19CHL1   H2A 1380   4.234   2.142   6.074 -0.3709  0.2481 -0.1475
   19CHL1   H2B 1381   4.234   1.965   6.096 -0.0751  0.3209  0.8533
   19CHL1   C20 1382   4.050   1.801   5.157 -0.2633 -0.1869  0.1297
   19CHL1   H20 1383   4.053   1.690   5.162  1.3042 -0.2060 -0.6000
   19CHL1   C21 1384   4.195   1.859   5.160  1.4623  0.3816  0.4520
   19CHL1  H21A 1385   4.199   1.961   5.205  2.3101  0.1859  0.8469
   19CHL1  H21B 1386   4.238   1.866   5.057  0.5927  0.0058  0.0590
   19CHL1  H21C 1387   4.259   1.798   5.227 -1.0672 -1.8260  0.9824
   19CHL1   C22 1388   3.978   1.843   5.026 -0.3772  0.5655  0.5685
   19CHL1  H22A 1389   3.869   1.831   5.037 -0.2628 -2.6456 -0.7049
   19CHL1  H22B 1390   4.009   1.947   5.000 -0.0673  0.3596  0.0862
   19CHL1   C23 1391   4.016   1.760   4.902  0.1708 -0.3010  0.3717
   19CHL1  H23A 1392   4.117   1.798   4.876 -0.6083  2.1172  0.5633
   19CHL1  H23B 1393   4.008   1.650   4.917 -2.0126 -0.1304  0.7986
   19CHL1   C24 1394   3.922   1.786   4.778 -0.0959 -0.1168  0.0577
   19CHL1  H24A 1395   3.817   1.766   4.809 -0.6037  1.7986 -0.2757
   19CHL1  H24B 1396   3.933   1.889   4.738  0.0942 -0.9291 -2.1125
   19CHL1   C25 1397   3.951   1.697   4.658 -0.0025 -0.2632  0.0375
   19CHL1   H25 1398   4.060   1.699   4.635 -0.0207  0.7133  0.0021
   19CHL1   C26 1399   3.907   1.551   4.674 -0.6201 -0.4503  0.6080
   19CHL1  H26A 1400   3.797   1.543   4.659 -1.4511  1.8256  4.1378
   19CHL1  H26B 1401   3.958   1.496   4.592  0.9190  0.2440  1.0681
   19CHL1  H26C 1402   3.935   1.512   4.774  0.2338 -1.0020  0.1701
   19CHL1   C27 1403   3.894   1.744   4.521 -0.0250 -0.0013  0.3822
   19CHL1  H27A 1404   3.937   1.682   4.439 -0.2421  0.5420 -0.1536
   19CHL1  H27B 1405   3.784   1.752   4.519 -0.0975  0.7574  3.3751
   19CHL1  H27C 1406   3.923   1.850   4.506 -1.2639  0.3921  0.7073
   20CHL1    C3 1407   6.215   1.873   6.326 -1.1320  0.2706 -0.0730
   20CHL1    H3 1408   6.190   1.776   6.373 -0.9074  0.1405 -0.2218
   20CHL1    O3 1409   6.235   1.984   6.415  0.0480  0.2503 -0.1724
   20CHL1   H3' 1410   6.279   2.056   6.369  2.5706 -0.8172  0.4122
   20CHL1    C4 1411   6.353   1.857   6.253  0.0347  0.1671  0.0874
   20CHL1   H4A 1412   6.377   1.957   6.212 -0.4954 -0.1376 -1.0060
   20CHL1   H4B 1413   6.427   1.821   6.328  1.8183  0.8098 -1.2836
   20CHL1    C5 1414   6.351   1.753   6.140  0.3450 -0.4293 -0.0944
   20CHL1    C6 1415   6.423   1.639   6.137  0.5404 -0.2002  0.3088
   20CHL1    H6 1416   6.486   1.612   6.222 -0.9686  0.6728  1.7533
   20CHL1    C7 1417   6.428   1.552   6.018  0.4038  0.3268  0.2520
   20CHL1   H7A 1418   6.534   1.529   5.993  1.4047  2.3050  2.3777
   20CHL1   H7B 1419   6.375   1.456   6.036  1.6363 -0.3932  0.1932
   20CHL1    C8 1420   6.361   1.608   5.886 -0.3217 -0.6415  0.5065
   20CHL1    H8 1421   6.436   1.681   5.849  0.5853 -1.0159  1.5619
   20CHL1   C14 1422   6.334   1.510   5.773  0.0435 -0.8219  0.2305
   20CHL1   H14 1423   6.259   1.438   5.812  0.5204 -1.0786  0.6859
   20CHL1   C15 1424   6.456   1.427   5.727 -0.1827 -0.6978  0.0539
   20CHL1  H15A 1425   6.543   1.491   5.700  0.0646 -0.8893  0.3882
   20CHL1  H15B 1426   6.496   1.352   5.798 -0.2964 -3.2639 -2.4043
   20CHL1   C16 1427   6.402   1.367   5.592 -0.7214  0.2987 -0.3349
   20CHL1  H16A 1428   6.486   1.364   5.519 -1.8136  0.3282 -1.6159
   20CHL1  H16B 1429   6.358   1.267   5.609 -0.2654  0.4548  2.2701
   20CHL1   C17 1430   6.276   1.447   5.539  0.0194  0.5177  0.2132
   20CHL1   H17 1431   6.192   1.380   5.565 -0.6657  0.8202 -1.1581
   20CHL1   C13 1432   6.273   1.571   5.642  0.1165 -0.3854  0.0333
   20CHL1   C18 1433   6.366   1.679   5.591 -0.2801  0.0844 -0.1412
   20CHL1  H18A 1434   6.393   1.759   5.665  2.5493 -1.2096  0.3748
   20CHL1  H18B 1435   6.468   1.641   5.568  1.0277  1.3691  2.9063
   20CHL1  H18C 1436   6.317   1.734   5.508 -1.7459 -1.6851 -0.4825
   20CHL1   C12 1437   6.134   1.635   5.676 -0.0705  1.1249  0.2753
   20CHL1  H12A 1438   6.098   1.673   5.577  1.1019 -0.0598 -0.6238
   20CHL1  H12B 1439   6.073   1.547   5.704  1.9112 -0.1995  0.5945
   20CHL1   C11 1440   6.143   1.734   5.790 -0.1259 -0.2956 -0.2760
   20CHL1  H11A 1441   6.190   1.824   5.746 -1.5114 -0.1652 -1.5248
   20CHL1  H11B 1442   6.040   1.761   5.822  1.1626  2.3500  2.1281
   20CHL1    C9 1443   6.229   1.684   5.916  0.2748  0.0520 -0.6966
   20CHL1    H9 1444   6.167   1.598   5.949  0.5210  0.0855 -0.1377
   20CHL1   C10 1445   6.245   1.789   6.024  0.0160 -0.4006  0.6220
   20CHL1   C19 1446   6.285   1.928   5.951  0.0795 -0.1621 -0.3815
   20CHL1  H19A 1447   6.322   1.996   6.031 -2.5889 -1.6020  2.3225
   20CHL1  H19B 1448   6.368   1.913   5.880 -0.9838 -2.3939 -1.2448
   20CHL1  H19C 1449   6.196   1.979   5.908  0.8555  1.1694 -0.4614
   20CHL1    C1 1450   6.110   1.810   6.099 -0.0457 -0.4350 -0.0134
   20CHL1   H1A 1451   6.027   1.854   6.040  1.9471  2.7831 -0.6277
   20CHL1   H1B 1452   6.083   1.715   6.151  1.6614  0.2095  2.2237
   20CHL1    C2 1453   6.109   1.910   6.221  0.4378 -0.3003 -0.6580
   20CHL1   H2A 1454   6.006   1.908   6.262  0.2936 -1.1120 -1.0428
   20CHL1   H2B 1455   6.125   2.010   6.174 -0.8158  0.5979  0.7391
   20CHL1   C20 1456   6.268   1.483   5.389  0.2105 -0.1720 -0.3369
   20CHL1   H20 1457   6.357   1.543   5.360 -0.8830  0.9733 -1.4302
   20CHL1   C21 1458   6.132   1.550   5.348 -0.2857 -0.0537 -0.5618
   20CHL1  H21A 1459   6.115   1.549   5.239  0.2308  0.5544 -0.6590
   20CHL1  H21B 1460   6.150   1.656   5.375 -3.0975  0.6403 -1.1297
   20CHL1  H21C 1461   6.040   1.522   5.403 -1.5379  0.6441 -2.2483
   20CHL1   C22 1462   6.294   1.355   5.298 -0.4100 -0.6199  0.3982
   20CHL1  H22A 1463   6.359   1.285   5.355 -1.7351 -1.4842  0.8788
   20CHL1  H22B 1464   6.198   1.303   5.278  0.0518 -1.6535  0.8171
   20CHL1   C23 1465   6.368   1.393   5.162 -0.4749  0.5659 -0.2198
   20CHL1  H23A 1466   6.318   1.478   5.110  2.5383  3.6804  1.5658
   20CHL1  H23B 1467   6.465   1.434   5.196 -0.6586 -1.2804  2.9256
   20CHL1   C24 1468   6.391   1.277   5.060  0.3236  0.1905  0.7245
   20CHL1  H24A 1469   6.390   1.181   5.114 -3.9898 -0.7857 -0.6264
   20CHL1  H24B 1470   6.303   1.285   4.992  0.9400  1.0939 -0.0007
   20CHL1   C25 1471   6.523   1.298   4.984 -0.3115  0.2212  0.0719
   20CHL1   H25 1472   6.589   1.345   5.060 -0.2221 -2.3459  1.7182
   20CHL1   C26 1473   6.583   1.161   4.939  0.4627 -0.2076  0.1656
   20CHL1  H26A 1474   6.652   1.164   4.852  0.0551 -1.0573 -0.2029
   20CHL1  H26B 1475   6.647   1.109   5.013  0.6923  1.6024  1.2872
   20CHL1  H26C 1476   6.501   1.094   4.905  0.4975  0.0475 -0.4493
   20CHL1   C27 1477   6.502   1.395   4.865 -0.4967  0.2596 -0.0290
   20CHL1  H27A 1478   6.485   1.500   4.898 -2.1725  0.2963 -0.9264
   20CHL1  H27B 1479   6.597   1.399   4.807 -1.2713 -0.6012 -1.4121
   20CHL1  H27C 1480   6.423   1.369   4.791 -0.0134 -1.3085 -0.0254
   21CHL1    C3 1481   6.072   0.692   6.007 -0.6456 -0.2160  0.4551
   21CHL1    H3 1482   6.025   0.783   5.964  0.6023  0.1581 -0.1451
   21CHL1    O3 1483   6.069   0.713   6.150 -0.0662 -0.3425 -0.0308
   21CHL1   H3' 1484   6.163   0.725   6.164  0.4392 -0.9569 -2.4630
   21CHL1    C4 1485   5.993   0.562   5.971  0.3793 -0.6773  0.5030
   21CHL1   H4A 1486   6.043   0.473   6.015  1.0791 -1.2296 -1.3050
   21CHL1   H4B 1487   5.885   0.568   5.997  0.0311 -0.5761 -0.8678
   21CHL1    C5 1488   6.008   0.535   5.823  0.0613  0.3423  0.1622
   21CHL1    C6 1489   5.896   0.520   5.749 -0.5217 -0.2520  0.2777
   21CHL1    H6 1490   5.795   0.524   5.792 -1.5631 -2.4905 -1.7001
   21CHL1    C7 1491   5.907   0.487   5.605  0.2189  0.4581 -0.1525
   21CHL1   H7A 1492   5.833   0.405   5.589  0.1087  0.7869 -1.4316
   21CHL1   H7B 1493   5.861   0.570   5.548 -1.7177  0.4476  1.2774
   21CHL1    C8 1494   6.051   0.466   5.549  0.0149  0.1472  0.0016
   21CHL1    H8 1495   6.072   0.358   5.563 -0.6048 -0.1770 -1.4238
   21CHL1   C14 1496   6.055   0.490   5.397  0.5721  0.9889  0.1707
   21CHL1   H14 1497   6.041   0.598   5.374  1.4227  1.3911  1.4411
   21CHL1   C15 1498   5.947   0.422   5.310 -0.3443  0.1081 -0.5635
   21CHL1  H15A 1499   5.947   0.319   5.353  0.8160  0.6781  0.8891
   21CHL1  H15B 1500   5.845   0.466   5.311 -0.3487  0.2770  2.5965
   21CHL1   C16 1501   6.006   0.429   5.167  0.0055  0.1387 -0.6734
   21CHL1  H16A 1502   5.991   0.333   5.112  0.7265 -0.7460  0.6258
   21CHL1  H16B 1503   5.950   0.513   5.120 -0.8236 -0.8165 -1.4551
   21CHL1   C17 1504   6.159   0.469   5.182  0.0711  0.5081 -0.2292
   21CHL1   H17 1505   6.165   0.579   5.169  1.4257  0.4800 -0.0258
   21CHL1   C13 1506   6.190   0.443   5.330  0.2397  0.1666 -0.3309
   21CHL1   C18 1507   6.206   0.289   5.347  0.1754  0.6051  0.1686
   21CHL1  H18A 1508   6.291   0.265   5.280 -0.3502 -0.9599  0.0099
   21CHL1  H18B 1509   6.226   0.267   5.454  0.5526 -1.6982 -0.3171
   21CHL1  H18C 1510   6.120   0.226   5.314 -0.0806  0.6293  0.7714
   21CHL1   C12 1511   6.299   0.528   5.397  0.1000  0.6265 -0.6389
   21CHL1  H12A 1512   6.403   0.496   5.373 -0.2393 -1.2072  0.1227
   21CHL1  H12B 1513   6.283   0.636   5.376 -0.4140  0.6808  0.0035
   21CHL1   C11 1514   6.292   0.526   5.554 -0.5610  0.2088 -0.9692
   21CHL1  H11A 1515   6.322   0.426   5.591  0.3969  1.6142  2.5039
   21CHL1  H11B 1516   6.358   0.599   5.605 -2.1163  0.4329  0.8454
   21CHL1    C9 1517   6.157   0.556   5.611  0.3232 -0.2386 -0.1603
   21CHL1    H9 1518   6.137   0.663   5.589  0.2198 -0.3564 -0.6599
   21CHL1   C10 1519   6.157   0.538   5.769 -0.2945 -0.2159  0.4362
   21CHL1   C19 1520   6.234   0.418   5.819 -0.6108  0.4298 -0.0868
   21CHL1  H19A 1521   6.165   0.331   5.805  0.9086 -1.1071  1.4828
   21CHL1  H19B 1522   6.334   0.395   5.778 -0.5216 -0.1812  0.4468
   21CHL1  H19C 1523   6.228   0.414   5.930  0.7113 -0.1462 -0.0217
   21CHL1    C1 1524   6.229   0.662   5.822  0.0002  0.1764  0.4452
   21CHL1   H1A 1525   6.338   0.660   5.798  0.0612  0.6031  0.6619
   21CHL1   H1B 1526   6.182   0.749   5.771 -0.6485 -1.1540 -1.3074
   21CHL1    C2 1527   6.220   0.692   5.972 -0.3182  0.0834 -0.3427
   21CHL1   H2A 1528   6.288   0.772   6.010  0.8041 -1.8823  2.0928
   21CHL1   H2B 1529   6.255   0.601   6.025  0.2017 -0.0251 -0.8600
   21CHL1   C20 1530   6.251   0.409   5.065 -0.6502  0.3784  0.6475
   21CHL1   H20 1531   6.255   0.298   5.064 -0.9163  0.3110 -2.4191
   21CHL1   C21 1532   6.390   0.460   5.095  0.2502  0.1646  0.4092
   21CHL1  H21A 1533   6.465   0.438   5.017 -0.6256  0.4995 -0.5622
   21CHL1  H21B 1534   6.426   0.403   5.183  1.4763 -0.2226 -0.3177
   21CHL1  H21C 1535   6.381   0.569   5.117 -0.7592  0.4962 -1.4515
   21CHL1   C22 1536   6.197   0.459   4.933 -0.1396  0.7132  0.6843
   21CHL1  H22A 1537   6.093   0.425   4.913  0.3609  0.7372 -2.4077
   21CHL1  H22B 1538   6.186   0.570   4.930 -0.2743  0.6927  0.3111
   21CHL1   C23 1539   6.281   0.405   4.817 -0.6697 -0.1066  0.0912
   21CHL1  H23A 1540   6.387   0.440   4.818 -0.3745 -0.9830  0.8524
   21CHL1  H23B 1541   6.284   0.294   4.815  0.6353 -0.1555  2.0119
   21CHL1   C24 1542   6.230   0.459   4.686  0.2975 -0.1496  0.4390
   21CHL1  H24A 1543   6.136   0.402   4.673 -0.8060  1.5667  0.5058
   21CHL1  H24B 1544   6.212   0.569   4.692  0.9012 -0.1388  2.5770
   21CHL1   C25 1545   6.324   0.437   4.561  0.7114  0.0912 -0.1285
   21CHL1   H25 1546   6.406   0.510   4.569  2.2779 -1.7419  1.6309
   21CHL1   C26 1547   6.383   0.298   4.552  0.7334  0.4184 -0.6961
   21CHL1  H26A 1548   6.300   0.227   4.536 -0.1519  1.4634 -0.8654
   21CHL1  H26B 1549   6.456   0.268   4.474 -0.5189 -3.5047 -0.5355
   21CHL1  H26C 1550   6.430   0.266   4.647 -3.5578 -1.2682  1.1100
   21CHL1   C27 1551   6.246   0.455   4.430 -0.5242 -0.6065  0.0277
   21CHL1  H27A 1552   6.203   0.558   4.431  1.5499  0.3273  0.6478
   21CHL1  H27B 1553   6.319   0.466   4.347  1.1272  0.1922  1.5129
   21CHL1  H27C 1554   6.175   0.373   4.407 -2.1342  0.5112  0.8207
   22CHL1    C3 1555   3.769   6.380   6.313 -0.3399 -0.2036 -0.4265
   22CHL1    H3 1556   3.704   6.291   6.313  0.4123 -0.8095  1.4403
   22CHL1    O3 1557   3.789   6.417   6.449 -0.1365  0.5348  0.0820
   22CHL1   H3' 1558   3.881   6.439   6.465  0.4393  1.0983 -3.2057
   22CHL1    C4 1559   3.907   6.357   6.249 -0.3311 -0.0114  0.4694
   22CHL1   H4A 1560   3.969   6.449   6.260  0.5602 -0.6513  0.9396
   22CHL1   H4B 1561   3.963   6.277   6.301 -1.3863 -0.8288  0.3755
   22CHL1    C5 1562   3.884   6.326   6.106  0.3885  0.3573 -0.2524
   22CHL1    C6 1563   3.933   6.213   6.052  0.0255  0.3323  0.1701
   22CHL1    H6 1564   3.999   6.140   6.104 -0.1630 -0.6042 -0.8688
   22CHL1    C7 1565   3.927   6.181   5.908 -0.2709 -0.1317 -0.6486
   22CHL1   H7A 1566   4.019   6.127   5.878 -1.0424 -1.6734 -0.3294
   22CHL1   H7B 1567   3.844   6.108   5.895  0.3776 -1.3118  1.5071
   22CHL1    C8 1568   3.884   6.309   5.833 -0.5118  0.1801  0.4126
   22CHL1    H8 1569   3.970   6.378   5.817 -0.7970  0.4582  0.0678
   22CHL1   C14 1570   3.839   6.274   5.687 -1.1929  0.8796  0.3944
   22CHL1   H14 1571   3.745   6.216   5.693  0.1316 -1.5155 -0.5204
   22CHL1   C15 1572   3.946   6.184   5.609  0.5314 -0.1933 -0.6040
   22CHL1  H15A 1573   4.045   6.223   5.641  0.0641 -0.2496  1.0505
   22CHL1  H15B 1574   3.940   6.074   5.620 -1.6102 -0.2797 -2.0433
   22CHL1   C16 1575   3.920   6.213   5.462  0.2125 -0.4072 -0.4203
   22CHL1  H16A 1576   4.009   6.237   5.400 -0.5375 -0.6653 -1.6186
   22CHL1  H16B 1577   3.878   6.117   5.425  0.3283 -0.5354 -0.2238
   22CHL1   C17 1578   3.805   6.324   5.453  0.2596  0.7491 -0.1546
   22CHL1   H17 1579   3.704   6.278   5.447 -1.6347  4.5698 -0.5516
   22CHL1   C13 1580   3.811   6.391   5.596  0.5419 -0.4520  1.1557
   22CHL1   C18 1581   3.935   6.488   5.577 -0.0587 -0.9009  0.1565
   22CHL1  H18A 1582   4.004   6.455   5.498  0.7345 -0.2034  0.5422
   22CHL1  H18B 1583   3.889   6.581   5.537 -0.7141 -1.2005  0.1977
   22CHL1  H18C 1584   3.997   6.509   5.667 -0.6134 -1.9308  0.8047
   22CHL1   C12 1585   3.689   6.464   5.649  0.4866  0.2668  0.0077
   22CHL1  H12A 1586   3.660   6.561   5.602 -1.0665  0.2792  0.9260
   22CHL1  H12B 1587   3.603   6.394   5.641 -0.0391  1.0414 -1.7877
   22CHL1   C11 1588   3.725   6.500   5.798  0.5365  0.4672 -0.2997
   22CHL1  H11A 1589   3.792   6.589   5.789 -0.9664  1.5460 -1.3551
   22CHL1  H11B 1590   3.630   6.544   5.834 -0.9792 -1.8602 -1.2094
   22CHL1    C9 1591   3.770   6.379   5.889  0.3115 -0.2042 -0.4558
   22CHL1    H9 1592   3.685   6.309   5.905  0.6852 -0.1190  2.5928
   22CHL1   C10 1593   3.799   6.433   6.029 -0.7783  0.4786  0.3998
   22CHL1   C19 1594   3.883   6.562   6.019 -0.2933  0.5877 -0.0299
   22CHL1  H19A 1595   3.828   6.652   5.984 -1.5433 -0.7436 -1.6330
   22CHL1  H19B 1596   3.904   6.593   6.124 -3.2753 -0.3164  0.9064
   22CHL1  H19C 1597   3.978   6.540   5.966 -1.1106 -0.1010 -1.2451
   22CHL1    C1 1598   3.666   6.455   6.097 -0.4409 -0.6001 -0.0136
   22CHL1   H1A 1599   3.608   6.539   6.053  0.4453  0.3218  0.5401
   22CHL1   H1B 1600   3.606   6.362   6.103 -0.1980 -0.9065 -1.7446
   22CHL1    C2 1601   3.694   6.494   6.243 -0.3987 -0.6308 -0.6217
   22CHL1   H2A 1602   3.590   6.495   6.283 -0.9009  1.3366 -1.7962
   22CHL1   H2B 1603   3.732   6.598   6.256  2.1272 -1.7349  1.5757
   22CHL1   C20 1604   3.809   6.407   5.318  0.4016  1.0605  0.0946
   22CHL1   H20 1605   3.866   6.503   5.320 -1.9209  2.5425 -0.3093
   22CHL1   C21 1606   3.667   6.460   5.290 -0.1514 -0.5159 -1.0085
   22CHL1  H21A 1607   3.620   6.527   5.365  1.9545  0.0154 -0.0899
   22CHL1  H21B 1608   3.601   6.371   5.289  0.1284 -0.7220 -1.5222
   22CHL1  H21C 1609   3.659   6.510   5.191 -1.3856 -2.3349 -1.8744
   22CHL1   C22 1610   3.849   6.321   5.198 -0.0614  0.3877 -0.4715
   22CHL1  H22A 1611   3.954   6.288   5.211  0.1547  1.4627  0.6616
   22CHL1  H22B 1612   3.801   6.221   5.188  2.5107 -0.9591 -0.0027
   22CHL1   C23 1613   3.842   6.389   5.062  0.1803 -0.1779  0.5270
   22CHL1  H23A 1614   3.740   6.419   5.029  0.0132  0.4930  1.6015
   22CHL1  H23B 1615   3.896   6.485   5.078  0.0504  0.5101 -2.4962
   22CHL1   C24 1616   3.904   6.304   4.952  0.3117 -0.1594 -0.0880
   22CHL1  H24A 1617   4.005   6.280   4.991 -0.6569  0.6807  3.2546
   22CHL1  H24B 1618   3.840   6.215   4.934 -1.4097  1.1722 -0.8299
   22CHL1   C25 1619   3.901   6.375   4.817  0.2929 -0.6113  0.9968
   22CHL1   H25 1620   3.792   6.391   4.799  1.0769  1.7782 -2.7156
   22CHL1   C26 1621   3.968   6.518   4.815  0.2685 -0.2512  0.2766
   22CHL1  H26A 1622   3.986   6.558   4.713  1.3716  0.8410  0.8849
   22CHL1  H26B 1623   3.902   6.579   4.879  0.2462 -0.2411  0.2438
   22CHL1  H26C 1624   4.071   6.503   4.853  0.6612  0.2103 -0.5619
   22CHL1   C27 1625   3.948   6.282   4.707  0.3867  0.4782  0.3205
   22CHL1  H27A 1626   3.922   6.324   4.608  0.4993 -2.1363 -0.9092
   22CHL1  H27B 1627   4.058   6.276   4.718  0.7460  5.1537  1.3341
   22CHL1  H27C 1628   3.901   6.182   4.718  0.0179  0.6025 -0.0909
   23CHL1    C3 1629   2.247   3.900   5.762  0.2688 -0.4919  0.6007
   23CHL1    H3 1630   2.167   3.972   5.790  0.1763 -0.7462  1.0044
   23CHL1    O3 1631   2.311   3.855   5.877  0.1726  0.3154 -0.7413
   23CHL1   H3' 1632   2.251   3.791   5.917  1.2192  0.8753  1.9372
   23CHL1    C4 1633   2.173   3.786   5.690 -0.2973  0.0220 -0.4706
   23CHL1   H4A 1634   2.253   3.714   5.662 -1.4071 -0.2578 -3.2822
   23CHL1   H4B 1635   2.108   3.737   5.766  0.4306 -0.6572 -0.2735
   23CHL1    C5 1636   2.117   3.818   5.559  0.8634 -0.6243 -1.0535
   23CHL1    C6 1637   1.986   3.790   5.531 -0.1372  0.3213  0.4017
   23CHL1    H6 1638   1.930   3.728   5.602  0.8935  2.0354  2.8568
   23CHL1    C7 1639   1.921   3.837   5.398  0.1438 -0.2966 -0.2749
   23CHL1   H7A 1640   1.845   3.762   5.366  0.5674 -1.6626  1.7005
   23CHL1   H7B 1641   1.869   3.932   5.422  0.0756 -0.7896  1.7063
   23CHL1    C8 1642   2.031   3.850   5.287  0.0469 -0.1423 -0.0134
   23CHL1    H8 1643   2.060   3.744   5.272  0.5794  0.0539 -0.3875
   23CHL1   C14 1644   1.976   3.900   5.158 -0.4176 -1.2277  0.0971
   23CHL1   H14 1645   1.939   4.003   5.178 -2.0494 -1.6627 -0.4471
   23CHL1   C15 1646   1.856   3.817   5.112  0.3441  0.3955  0.5785
   23CHL1  H15A 1647   1.870   3.707   5.111 -0.5501  0.1681 -3.5232
   23CHL1  H15B 1648   1.768   3.841   5.175 -0.3040 -1.3506  0.4038
   23CHL1   C16 1649   1.839   3.861   4.964 -0.3714  0.1721 -0.1997
   23CHL1  H16A 1650   1.836   3.771   4.898 -0.4541  1.0860 -1.4942
   23CHL1  H16B 1651   1.752   3.929   4.946  0.5467  1.4170 -0.0249
   23CHL1   C17 1652   1.967   3.948   4.928  0.1147 -0.1674  0.1309
   23CHL1   H17 1653   1.929   4.050   4.952  1.5621 -0.3702  3.8414
   23CHL1   C13 1654   2.063   3.913   5.041 -0.3700  0.1555 -0.4571
   23CHL1   C18 1655   2.122   3.776   5.004  0.1609  0.6736  0.1688
   23CHL1  H18A 1656   2.047   3.704   4.964 -0.3127  0.9971  0.4675
   23CHL1  H18B 1657   2.191   3.797   4.920 -1.5032  1.5846 -1.0329
   23CHL1  H18C 1658   2.175   3.732   5.091 -1.4799 -2.0182 -0.0788
   23CHL1   C12 1659   2.177   4.004   5.091 -0.2501 -0.3351  0.8145
   23CHL1  H12A 1660   2.250   4.007   5.007 -2.3418  0.6331 -1.0852
   23CHL1  H12B 1661   2.134   4.104   5.114  0.0837 -0.5982  2.7898
   23CHL1   C11 1662   2.250   3.963   5.218 -0.5186  0.6991  0.2352
   23CHL1  H11A 1663   2.318   3.880   5.189 -1.4883  0.0960 -0.3933
   23CHL1  H11B 1664   2.322   4.041   5.251  0.3909  0.7582 -1.7866
   23CHL1    C9 1665   2.151   3.932   5.334  0.3998  0.3381  0.5357
   23CHL1    H9 1666   2.110   4.033   5.355 -1.4661 -0.0618 -0.9652
   23CHL1   C10 1667   2.222   3.880   5.460  0.6376  0.3153  0.0418
   23CHL1   C19 1668   2.329   3.771   5.428  0.0602  0.5697 -0.6097
   23CHL1  H19A 1669   2.408   3.824   5.371  0.0914 -0.2447 -1.3527
   23CHL1  H19B 1670   2.384   3.725   5.513 -0.8501 -0.4388 -0.5509
   23CHL1  H19C 1671   2.281   3.700   5.357  0.6255  0.4957 -0.9282
   23CHL1    C1 1672   2.277   4.006   5.531  0.2430 -0.5883 -0.0879
   23CHL1   H1A 1673   2.346   4.069   5.470 -0.4913  1.3415  1.0080
   23CHL1   H1B 1674   2.187   4.070   5.544 -0.8389 -1.3593 -2.9937
   23CHL1    C2 1675   2.344   3.973   5.668  0.4365 -0.3043 -0.1275
   23CHL1   H2A 1676   2.368   4.071   5.713  2.4011 -0.5408 -0.5578
   23CHL1   H2B 1677   2.435   3.912   5.649 -1.3800 -3.0365 -0.6905
   23CHL1   C20 1678   2.009   3.956   4.778  0.4219  0.0214  0.0911
   23CHL1   H20 1679   2.068   3.865   4.757 -0.3826 -0.8404  1.4501
   23CHL1   C21 1680   2.092   4.079   4.758 -0.5541  0.3203  0.6390
   23CHL1  H21A 1681   2.020   4.163   4.758 -0.6004  0.4893  4.6038
   23CHL1  H21B 1682   2.140   4.075   4.659  1.1303  1.3020  1.3800
   23CHL1  H21C 1683   2.181   4.091   4.823  0.0880 -1.1930  0.0790
   23CHL1   C22 1684   1.890   3.948   4.673  0.3282  0.9721 -0.6097
   23CHL1  H22A 1685   1.818   3.865   4.688 -0.2809  1.6655  0.5202
   23CHL1  H22B 1686   1.827   4.040   4.676  1.4103  1.7270  0.0965
   23CHL1   C23 1687   1.935   3.915   4.522  0.2055 -0.8294 -0.2804
   23CHL1  H23A 1688   1.991   3.997   4.472 -1.5703  0.5852 -0.0471
   23CHL1  H23B 1689   2.002   3.826   4.528  1.6770  0.3320  2.1129
   23CHL1   C24 1690   1.811   3.883   4.446 -0.2816  0.4652  0.2782
   23CHL1  H24A 1691   1.767   3.791   4.490 -0.6154  1.2132  1.5436
   23CHL1  H24B 1692   1.736   3.963   4.463 -1.7145 -0.7611 -0.0518
   23CHL1   C25 1693   1.813   3.869   4.290  0.4815  0.1536  0.2065
   23CHL1   H25 1694   1.854   3.966   4.253  0.8048  0.3967  1.1610
   23CHL1   C26 1695   1.900   3.756   4.249  0.5767  0.4840 -0.4912
   23CHL1  H26A 1696   1.914   3.776   4.140  2.1150 -1.0306 -0.6120
   23CHL1  H26B 1697   1.993   3.748   4.309 -0.5503 -0.0499  1.2692
   23CHL1  H26C 1698   1.852   3.660   4.277  2.3691 -0.0313  0.9667
   23CHL1   C27 1699   1.667   3.852   4.241 -0.0487 -0.7943  0.1227
   23CHL1  H27A 1700   1.603   3.936   4.274  0.4228  1.3442 -3.7733
   23CHL1  H27B 1701   1.660   3.852   4.130 -0.7635  0.3271  0.1525
   23CHL1  H27C 1702   1.620   3.755   4.267 -2.5493  0.4411  0.4869
   24CHL1    C3 1703   1.205   2.015   6.054  0.3037 -0.4616  0.7892
   24CHL1    H3 1704   1.301   2.070   6.061 -0.7603  1.9801 -1.8879
   24CHL1    O3 1705   1.154   1.992   6.185  0.0304 -0.1719 -0.2719
   24CHL1   H3' 1706   1.092   1.919   6.176 -0.7403  0.3746  0.4994
   24CHL1    C4 1707   1.101   2.094   5.979 -0.4954 -0.0406 -0.6722
   24CHL1   H4A 1708   1.000   2.046   5.987 -0.8479  0.8706  0.7139
   24CHL1   H4B 1709   1.086   2.192   6.029  1.9794  0.4898 -0.8579
   24CHL1    C5 1710   1.135   2.100   5.830  0.3640 -0.4273 -0.5120
   24CHL1    C6 1711   1.138   2.222   5.772  0.2089 -0.2823 -0.0085
   24CHL1    H6 1712   1.127   2.312   5.834  0.2816  0.5139 -1.1249
   24CHL1    C7 1713   1.152   2.242   5.621 -0.2719 -0.3924 -0.1439
   24CHL1   H7A 1714   1.084   2.326   5.595  1.0250  0.9863  0.7254
   24CHL1   H7B 1715   1.255   2.276   5.598 -0.3950  0.6690  0.8172
   24CHL1    C8 1716   1.144   2.115   5.546 -0.3555  0.1084 -0.1908
   24CHL1    H8 1717   1.041   2.075   5.531  0.1222 -0.8290 -1.0583
   24CHL1   C14 1718   1.204   2.131   5.405  0.6290 -0.6651 -0.0932
   24CHL1   H14 1719   1.313   2.146   5.423  0.7928 -2.9179  1.1019
   24CHL1   C15 1720   1.152   2.236   5.308 -0.2478 -0.6358  0.2424
   24CHL1  H15A 1721   1.041   2.232   5.300 -0.3332 -2.9415  1.6788
   24CHL1  H15B 1722   1.180   2.332   5.356 -1.5254 -1.5824  3.0837
   24CHL1   C16 1723   1.213   2.208   5.177  0.0027  0.3773 -0.5029
   24CHL1  H16A 1724   1.133   2.207   5.101 -0.4126 -0.2730 -0.0712
   24CHL1  H16B 1725   1.280   2.288   5.138 -0.8517  0.9629 -0.7862
   24CHL1   C17 1726   1.275   2.069   5.194 -0.7251  0.2291 -0.4041
   24CHL1   H17 1727   1.381   2.084   5.222 -0.6091  2.9594 -1.9377
   24CHL1   C13 1728   1.208   2.002   5.319 -0.5934  0.1565 -0.9460
   24CHL1   C18 1729   1.070   1.940   5.287  0.2704  0.1467 -0.3087
   24CHL1  H18A 1730   1.076   1.852   5.219 -2.1638 -1.5853  1.5270
   24CHL1  H18B 1731   1.018   1.902   5.377 -0.9532  0.1035 -1.0047
   24CHL1  H18C 1732   1.000   2.010   5.237 -1.5212  0.9431  3.0579
   24CHL1   C12 1733   1.310   1.911   5.389  0.0635  0.2150 -0.7279
   24CHL1  H12A 1734   1.322   1.817   5.331  0.7386 -0.0714 -0.1366
   24CHL1  H12B 1735   1.411   1.953   5.404  0.6858 -0.7044 -2.1529
   24CHL1   C11 1736   1.258   1.881   5.535  1.0379  0.0847 -0.6693
   24CHL1  H11A 1737   1.169   1.816   5.518  1.2106 -0.3573  0.0877
   24CHL1  H11B 1738   1.338   1.817   5.578 -2.8492 -3.3759  2.2336
   24CHL1    C9 1739   1.230   2.006   5.619  0.1303  0.5355 -0.2711
   24CHL1    H9 1740   1.331   2.052   5.626 -0.3675  1.4362  1.6555
   24CHL1   C10 1741   1.169   1.971   5.761 -0.5027 -0.1396  0.2770
   24CHL1   C19 1742   1.049   1.878   5.734  0.4281 -0.3384 -0.5694
   24CHL1  H19A 1743   0.996   1.914   5.644 -0.4114  0.2053  0.1242
   24CHL1  H19B 1744   1.088   1.780   5.700 -1.3493 -1.0216 -0.7193
   24CHL1  H19C 1745   0.983   1.873   5.824  1.9272 -0.8076  0.5472
   24CHL1    C1 1746   1.266   1.898   5.847  0.1857 -0.0844 -0.0594
   24CHL1   H1A 1747   1.287   1.795   5.812  1.0936 -0.8644  2.5738
   24CHL1   H1B 1748   1.364   1.950   5.840  1.3424 -1.9913  1.1686
   24CHL1    C2 1749   1.231   1.875   5.991  0.2528 -0.1686  0.3910
   24CHL1   H2A 1750   1.316   1.835   6.050 -0.8411 -2.2166  0.6738
   24CHL1   H2B 1751   1.149   1.801   6.000  0.6960 -0.7905 -0.5690
   24CHL1   C20 1752   1.291   1.987   5.057  0.7259 -0.0323 -0.5698
   24CHL1   H20 1753   1.186   1.979   5.021  1.0048 -0.7498 -1.2325
   24CHL1   C21 1754   1.359   1.856   5.080 -0.2011 -0.8377  0.1418
   24CHL1  H21A 1755   1.454   1.877   5.134  0.8022 -0.9279 -1.5014
   24CHL1  H21B 1756   1.395   1.807   4.987  0.6591  1.7622 -0.9967
   24CHL1  H21C 1757   1.295   1.785   5.136 -2.6548  1.3497  0.3485
   24CHL1   C22 1758   1.370   2.074   4.946 -0.0686  0.0337 -0.6894
   24CHL1  H22A 1759   1.333   2.179   4.950  2.1071  0.8344 -0.1578
   24CHL1  H22B 1760   1.477   2.070   4.977 -0.0047 -0.5356 -0.9811
   24CHL1   C23 1761   1.358   2.008   4.814 -0.2782  0.3870  0.1213
   24CHL1  H23A 1762   1.405   1.908   4.814  1.1338  1.0189 -0.4480
   24CHL1  H23B 1763   1.256   2.001   4.771 -0.1774  1.1118 -0.2565
   24CHL1   C24 1764   1.429   2.101   4.707  0.1057 -0.1640  0.4900
   24CHL1  H24A 1765   1.419   2.208   4.732  0.3237  0.5023 -1.9593
   24CHL1  H24B 1766   1.539   2.086   4.712  0.3526  1.7143  1.5915
   24CHL1   C25 1767   1.379   2.075   4.564 -0.1507 -0.9803 -0.3726
   24CHL1   H25 1768   1.432   2.143   4.495 -0.0330  0.1094  0.7461
   24CHL1   C26 1769   1.409   1.935   4.520 -0.2234  0.5564 -0.2093
   24CHL1  H26A 1770   1.364   1.870   4.599 -0.3759  0.9832  0.0566
   24CHL1  H26B 1771   1.366   1.904   4.422  0.2414 -0.9892  0.0428
   24CHL1  H26C 1772   1.515   1.904   4.526  0.3949  2.6937  0.4026
   24CHL1   C27 1773   1.236   2.114   4.546 -0.2862  0.3912  0.3033
   24CHL1  H27A 1774   1.215   2.131   4.438  0.9185  1.2599  0.1935
   24CHL1  H27B 1775   1.176   2.025   4.575  1.2897 -1.6202 -2.1791
   24CHL1  H27C 1776   1.209   2.207   4.601  0.5564 -0.5985  2.4978
   25CHL1    C3 1777   0.621   0.457   6.295  0.0668 -0.1509 -0.0731
   25CHL1    H3 1778   0.671   0.546   6.251 -0.4849  0.6583  0.8886
   25CHL1    O3 1779   0.631   0.474   6.433 -0.5272 -0.6563 -0.3729
   25CHL1   H3' 1780   0.616   0.385   6.467 -0.5202 -0.2732  0.6581
   25CHL1    C4 1781   0.479   0.419   6.261  0.6642 -0.0311  0.2475
   25CHL1   H4A 1782   0.450   0.329   6.319  0.0279 -1.2644 -1.8887
   25CHL1   H4B 1783   0.412   0.504   6.289  1.3884  0.1878  1.4061
   25CHL1    C5 1784   0.463   0.381   6.117 -0.1772 -0.2048 -0.1144
   25CHL1    C6 1785   0.368   0.438   6.044  0.5060 -0.4133 -0.2001
   25CHL1    H6 1786   0.307   0.517   6.090  0.3084  1.1584 -2.9248
   25CHL1    C7 1787   0.337   0.398   5.899 -0.4385 -0.1896  0.1070
   25CHL1   H7A 1788   0.227   0.387   5.898 -0.8220  2.2617  2.7472
   25CHL1   H7B 1789   0.380   0.474   5.831  1.8127 -0.8488  0.6931
   25CHL1    C8 1790   0.414   0.266   5.856 -0.3986  0.2178 -0.6475
   25CHL1    H8 1791   0.356   0.178   5.891  0.0763 -0.4653 -1.5524
   25CHL1   C14 1792   0.420   0.270   5.708 -0.2620 -0.2717  0.2383
   25CHL1   H14 1793   0.485   0.358   5.692  0.5391 -0.0202  3.9942
   25CHL1   C15 1794   0.282   0.279   5.633 -0.3133  0.3600 -0.4641
   25CHL1  H15A 1795   0.212   0.200   5.668  0.0708  0.8670  1.6139
   25CHL1  H15B 1796   0.236   0.379   5.648  2.3612  1.3243  2.8235
   25CHL1   C16 1797   0.309   0.242   5.488  0.4675  0.1284  0.0988
   25CHL1  H16A 1798   0.251   0.155   5.450  0.2300  0.4244 -0.2206
   25CHL1  H16B 1799   0.293   0.326   5.418 -2.1047  0.0170  0.4509
   25CHL1   C17 1800   0.467   0.195   5.490  0.2475 -0.0081  0.0607
   25CHL1   H17 1801   0.529   0.285   5.471  0.1065 -0.1987 -1.4545
   25CHL1   C13 1802   0.498   0.154   5.641  0.4620  0.0388 -0.1710
   25CHL1   C18 1803   0.447   0.009   5.661 -0.2949  0.1605  0.7927
   25CHL1  H18A 1804   0.439  -0.029   5.766 -0.4816 -1.0066  0.3760
   25CHL1  H18B 1805   0.348   0.006   5.611  0.7546 -1.1557 -1.3408
   25CHL1  H18C 1806   0.507  -0.066   5.606 -1.6202  0.0502 -0.5802
   25CHL1   C12 1807   0.644   0.165   5.698  0.3102 -0.1340  0.4151
   25CHL1  H12A 1808   0.699   0.076   5.661  0.6321  0.4089 -0.4320
   25CHL1  H12B 1809   0.690   0.258   5.658 -1.2821  0.6844  0.3929
   25CHL1   C11 1810   0.649   0.158   5.846  0.0064 -0.6029 -0.4519
   25CHL1  H11A 1811   0.628   0.057   5.886 -2.8131  0.1369  0.1699
   25CHL1  H11B 1812   0.749   0.186   5.885 -0.5038 -1.9296  2.0702
   25CHL1    C9 1813   0.557   0.269   5.911 -0.0963 -0.0510 -0.4917
   25CHL1    H9 1814   0.604   0.367   5.889  0.7343  0.3292  2.4877
   25CHL1   C10 1815   0.558   0.274   6.071 -0.3498 -0.0363 -0.5623
   25CHL1   C19 1816   0.508   0.136   6.113 -0.4621 -0.7008  0.0483
   25CHL1  H19A 1817   0.583   0.058   6.088 -0.2608 -1.0388  1.5571
   25CHL1  H19B 1818   0.503   0.122   6.224  0.9032  0.9174  0.3528
   25CHL1  H19C 1819   0.404   0.124   6.076  0.4069 -0.2180 -2.7824
   25CHL1    C1 1820   0.701   0.300   6.116 -0.6334  0.3735  0.5371
   25CHL1   H1A 1821   0.761   0.207   6.105 -1.1768 -0.0484  1.0817
   25CHL1   H1B 1822   0.731   0.393   6.064 -1.6460  1.0197  1.0879
   25CHL1    C2 1823   0.714   0.342   6.264 -0.0068 -0.4419  0.4173
   25CHL1   H2A 1824   0.820   0.374   6.275 -0.1818  0.9916 -1.5636
   25CHL1   H2B 1825   0.713   0.255   6.333 -0.0293  0.3367  1.4187
   25CHL1   C20 1826   0.494   0.095   5.379 -0.0250 -0.0421  0.3430
   25CHL1   H20 1827   0.437   0.004   5.404  0.0327 -0.3802 -0.6975
   25CHL1   C21 1828   0.648   0.062   5.371 -0.6671 -0.2373  0.2304
   25CHL1  H21A 1829   0.710   0.150   5.346 -1.4662 -0.0950 -1.4317
   25CHL1  H21B 1830   0.658  -0.018   5.294 -2.1231  0.7232 -1.0223
   25CHL1  H21C 1831   0.683   0.025   5.469 -0.8249 -2.5349 -0.5164
   25CHL1   C22 1832   0.447   0.132   5.235  0.1088 -0.1445 -0.3508
   25CHL1  H22A 1833   0.347   0.178   5.248 -0.0717 -0.4435 -0.6644
   25CHL1  H22B 1834   0.517   0.212   5.203  1.6643 -1.5647 -0.6792
   25CHL1   C23 1835   0.452   0.015   5.131 -0.7347  0.1545 -0.5730
   25CHL1  H23A 1836   0.556  -0.023   5.127 -0.3451  0.9161  1.0982
   25CHL1  H23B 1837   0.386  -0.066   5.169  1.2881 -2.3998 -2.1887
   25CHL1   C24 1838   0.411   0.066   4.989 -0.0909  0.0923  0.3774
   25CHL1  H24A 1839   0.309   0.110   4.992 -0.4180 -0.3337 -2.3031
   25CHL1  H24B 1840   0.491   0.135   4.954  1.8073 -1.2255  1.8665
   25CHL1   C25 1841   0.408  -0.047   4.886  0.0426  0.2403  0.3065
   25CHL1   H25 1842   0.487  -0.122   4.910 -3.7718 -4.0243  0.9289
   25CHL1   C26 1843   0.279  -0.134   4.902 -1.2372 -0.0368 -0.1728
   25CHL1  H26A 1844   0.289  -0.218   4.830  2.3749 -0.0267  0.1534
   25CHL1  H26B 1845   0.273  -0.174   5.006 -0.2551  0.5236  0.1090
   25CHL1  H26C 1846   0.194  -0.071   4.867 -2.2785 -0.4533  1.4866
   25CHL1   C27 1847   0.405   0.007   4.735 -0.5250  0.5387  0.1529
   25CHL1  H27A 1848   0.394  -0.071   4.657 -1.9859  1.5009 -0.6478
   25CHL1  H27B 1849   0.323   0.083   4.733  1.1661  2.4262 -1.6983
   25CHL1  H27C 1850   0.493   0.069   4.710 -0.3393  0.1444 -0.1681
   26CHL1    C3 1851   4.455   0.875   6.369  0.3639 -0.1462 -0.0167
   26CHL1    H3 1852   4.399   0.970   6.359  0.2337 -0.2877 -0.6269
   26CHL1    O3 1853   4.443   0.825   6.501 -0.5133  0.1040  1.0923
   26CHL1   H3' 1854   4.506   0.753   6.506  0.5576  1.0786  2.6845
   26CHL1    C4 1855   4.393   0.769   6.272  0.6777 -0.1614 -0.0404
   26CHL1   H4A 1856   4.433   0.668   6.294 -1.0140 -0.3580  2.6446
   26CHL1   H4B 1857   4.283   0.758   6.291  0.9066 -1.4100  0.6928
   26CHL1    C5 1858   4.420   0.803   6.127 -0.1699  0.4341 -0.4440
   26CHL1    C6 1859   4.320   0.802   6.039 -0.4176  0.1611  0.3665
   26CHL1    H6 1860   4.217   0.782   6.073 -0.6218 -0.0825 -0.3830
   26CHL1    C7 1861   4.343   0.834   5.893 -0.2956 -0.2614  0.2559
   26CHL1   H7A 1862   4.284   0.761   5.833  1.8233 -2.6374  0.8839
   26CHL1   H7B 1863   4.297   0.930   5.861  0.2204  0.1419  0.7066
   26CHL1    C8 1864   4.490   0.821   5.854  0.2450  0.0137 -0.2742
   26CHL1    H8 1865   4.532   0.718   5.851  0.9859  0.2752  0.7107
   26CHL1   C14 1866   4.524   0.880   5.714  0.5093  0.2257 -0.1010
   26CHL1   H14 1867   4.494   0.985   5.730 -0.7952  0.0762 -1.3041
   26CHL1   C15 1868   4.445   0.815   5.604  0.6462 -0.6369  0.0329
   26CHL1  H15A 1869   4.446   0.705   5.623 -1.1783 -0.5318  0.9387
   26CHL1  H15B 1870   4.338   0.843   5.609  0.4370 -1.2555 -0.7146
   26CHL1   C16 1871   4.523   0.856   5.474 -0.5359 -0.3040 -1.0769
   26CHL1  H16A 1872   4.545   0.772   5.405 -1.1725 -2.4388  1.2148
   26CHL1  H16B 1873   4.464   0.938   5.427  0.4723  1.4231  0.4984
   26CHL1   C17 1874   4.650   0.933   5.530  0.2737  0.4930  0.5797
   26CHL1   H17 1875   4.610   1.034   5.553 -2.7491 -0.8630  1.8315
   26CHL1   C13 1876   4.668   0.883   5.668 -0.7773 -0.3577 -0.3447
   26CHL1   C18 1877   4.732   0.741   5.669  0.8940 -0.4156 -0.3650
   26CHL1  H18A 1878   4.841   0.753   5.649  1.3672  1.0777  2.5758
   26CHL1  H18B 1879   4.720   0.686   5.764 -2.2499  0.8786  0.1064
   26CHL1  H18C 1880   4.680   0.672   5.599 -0.2795  0.3369 -0.2683
   26CHL1   C12 1881   4.749   0.974   5.772 -0.2398  0.1824  0.7111
   26CHL1  H12A 1882   4.858   0.976   5.753  0.0623  0.8615  2.3266
   26CHL1  H12B 1883   4.703   1.075   5.773 -1.3711 -0.3239  1.4544
   26CHL1   C11 1884   4.732   0.913   5.914  0.4392 -0.3043  0.3333
   26CHL1  H11A 1885   4.781   0.814   5.920 -1.0789 -1.0229  1.9594
   26CHL1  H11B 1886   4.785   0.985   5.981 -2.4104 -0.9648  3.6082
   26CHL1    C9 1887   4.571   0.901   5.954  0.6366 -0.2814 -0.0048
   26CHL1    H9 1888   4.532   1.005   5.956  2.5965  0.5620 -1.7785
   26CHL1   C10 1889   4.563   0.835   6.090  0.3473  0.2740 -1.1303
   26CHL1   C19 1890   4.635   0.696   6.100 -0.0837  0.4910  0.2051
   26CHL1  H19A 1891   4.628   0.653   6.202  2.1712  0.2381  0.2982
   26CHL1  H19B 1892   4.599   0.618   6.029 -2.6838  0.4061  1.5024
   26CHL1  H19C 1893   4.745   0.708   6.092  0.0376 -1.5809 -3.0470
   26CHL1    C1 1894   4.613   0.934   6.197  0.0109 -0.7101 -0.4372
   26CHL1   H1A 1895   4.719   0.964   6.182 -0.9781  2.3428 -2.1705
   26CHL1   H1B 1896   4.558   1.027   6.172 -0.3567 -1.0034 -0.7437
   26CHL1    C2 1897   4.600   0.895   6.341  0.3280 -0.1438 -0.5320
   26CHL1   H2A 1898   4.655   0.964   6.409 -0.5706 -0.7317  0.8383
   26CHL1   H2B 1899   4.645   0.794   6.354 -0.8256 -0.5949  0.1488
   26CHL1   C20 1900   4.777   0.940   5.442 -0.4837  0.0918  0.0912
   26CHL1   H20 1901   4.851   0.866   5.478  0.5392  0.8275 -0.4666
   26CHL1   C21 1902   4.843   1.077   5.481  0.1012 -0.0230  0.0267
   26CHL1  H21A 1903   4.902   1.112   5.393 -1.2537  0.4140 -0.7306
   26CHL1  H21B 1904   4.896   1.075   5.578 -1.2174  0.6285  0.7778
   26CHL1  H21C 1905   4.760   1.150   5.489  0.5312  0.5743 -0.8441
   26CHL1   C22 1906   4.751   0.919   5.294 -0.8689 -0.4499  0.5727
   26CHL1  H22A 1907   4.708   0.819   5.271 -1.6534  0.2470 -1.2027
   26CHL1  H22B 1908   4.680   0.999   5.263 -0.1001 -0.1307 -0.4395
   26CHL1   C23 1909   4.877   0.932   5.202  1.2133 -0.4275 -0.5260
   26CHL1  H23A 1910   4.932   1.028   5.218 -0.9249  0.6836  0.6808
   26CHL1  H23B 1911   4.936   0.845   5.238 -0.4640 -0.7970  1.5109
   26CHL1   C24 1912   4.851   0.903   5.051  0.6085  0.0176  0.0496
   26CHL1  H24A 1913   4.772   0.824   5.046 -0.2306  0.6559  2.1694
   26CHL1  H24B 1914   4.808   0.996   5.009 -0.4793  0.2775  1.6323
   26CHL1   C25 1915   4.971   0.854   4.975  0.8821 -0.1620  0.5434
   26CHL1   H25 1916   5.055   0.924   4.996  0.5454  0.0119  1.3169
   26CHL1   C26 1917   5.019   0.724   5.017 -0.4474  0.0316  0.4421
   26CHL1  H26A 1918   5.065   0.725   5.118  1.5379  0.5199 -0.4211
   26CHL1  H26B 1919   4.944   0.643   5.003  0.1954 -0.7334  1.2479
   26CHL1  H26C 1920   5.110   0.694   4.960 -0.6969 -0.3110  0.2155
   26CHL1   C27 1921   4.946   0.856   4.823  0.2501 -0.2389 -0.2419
   26CHL1  H27A 1922   4.853   0.797   4.811 -0.4299  1.1223 -2.2340
   26CHL1  H27B 1923   4.912   0.956   4.789  1.2553 -0.3061 -1.4919
   26CHL1  H27C 1924   5.029   0.809   4.766  0.5301 -1.9943  1.4972
   27CHL1    C3 1925   2.789   0.776   6.380 -0.5919 -0.9483 -0.4535
   27CHL1    H3 1926   2.782   0.887   6.369 -3.6144 -0.9402  0.5378
   27CHL1    O3 1927   2.811   0.740   6.518 -0.1245  0.3978  0.5357
   27CHL1   H3' 1928   2.858   0.820   6.543  1.0163  0.4322 -1.4899
   27CHL1    C4 1929   2.649   0.724   6.347  0.1857  0.0005 -0.0177
   27CHL1   H4A 1930   2.635   0.614   6.356 -2.6959  0.1269 -1.8113
   27CHL1   H4B 1931   2.573   0.769   6.414 -0.3351 -0.6085 -0.1876
   27CHL1    C5 1932   2.614   0.748   6.195 -0.3588 -0.0099 -0.5706
   27CHL1    C6 1933   2.514   0.835   6.158  0.1216  0.2337  0.1091
   27CHL1    H6 1934   2.449   0.871   6.239 -0.5497  1.1238 -0.7948
   27CHL1    C7 1935   2.475   0.847   6.008  0.3932 -0.4585 -0.1767
   27CHL1   H7A 1936   2.365   0.839   5.995  0.3865 -0.7127  0.0488
   27CHL1   H7B 1937   2.500   0.947   5.966  0.3999  0.3783  1.7050
   27CHL1    C8 1938   2.531   0.733   5.918  0.0827 -0.2089  0.7216
   27CHL1    H8 1939   2.479   0.639   5.948 -0.7519  0.1665  0.4747
   27CHL1   C14 1940   2.503   0.748   5.773  0.3622 -0.0862 -0.3915
   27CHL1   H14 1941   2.536   0.851   5.746  0.6532 -0.3384 -1.0326
   27CHL1   C15 1942   2.355   0.750   5.734  0.3516 -0.1057 -0.0695
   27CHL1  H15A 1943   2.297   0.671   5.785  1.8398 -2.1747 -1.4254
   27CHL1  H15B 1944   2.311   0.851   5.748  1.2712  0.6358 -2.1345
   27CHL1   C16 1945   2.366   0.714   5.579 -0.1570  1.2580  0.0440
   27CHL1  H16A 1946   2.315   0.617   5.562 -1.0116  1.8291 -0.7357
   27CHL1  H16B 1947   2.318   0.787   5.510  1.6024  1.3152 -1.1763
   27CHL1   C17 1948   2.515   0.694   5.547  0.3085 -0.5095 -0.0845
   27CHL1   H17 1949   2.556   0.794   5.523 -0.7863 -0.0369 -0.0296
   27CHL1   C13 1950   2.576   0.657   5.678 -0.0299  0.0667  0.0314
   27CHL1   C18 1951   2.543   0.511   5.707 -0.5757  0.2767 -0.6261
   27CHL1  H18A 1952   2.590   0.443   5.633 -1.5087 -1.0593 -0.0414
   27CHL1  H18B 1953   2.580   0.490   5.809  0.5880  0.0843 -1.0805
   27CHL1  H18C 1954   2.436   0.478   5.708 -0.2541 -0.7956  0.1397
   27CHL1   C12 1955   2.722   0.686   5.702  0.7878 -0.5874 -0.0399
   27CHL1  H12A 1956   2.789   0.625   5.637 -1.4119 -2.3419 -0.7743
   27CHL1  H12B 1957   2.745   0.795   5.698 -1.8599  0.1004  1.4667
   27CHL1   C11 1958   2.765   0.656   5.845  0.6945  0.0758  0.0590
   27CHL1  H11A 1959   2.770   0.546   5.861  0.5931 -0.2591 -1.9680
   27CHL1  H11B 1960   2.868   0.695   5.857  0.9517  0.1719 -2.0672
   27CHL1    C9 1961   2.675   0.726   5.952 -0.4944  0.1947  0.8394
   27CHL1    H9 1962   2.701   0.834   5.948 -1.6388  0.4499 -1.5991
   27CHL1   C10 1963   2.710   0.685   6.096 -0.5028  0.0614  0.4585
   27CHL1   C19 1964   2.711   0.533   6.112  0.5150  0.4562  0.9100
   27CHL1  H19A 1965   2.613   0.488   6.083  1.6088 -1.1477 -0.4638
   27CHL1  H19B 1966   2.794   0.487   6.056  1.3222  2.0299  0.7634
   27CHL1  H19C 1967   2.729   0.499   6.217 -2.0033  1.5683  1.7968
   27CHL1    C1 1968   2.852   0.732   6.139  0.8374 -0.1019  0.4479
   27CHL1   H1A 1969   2.931   0.692   6.072  1.1691 -1.5767  1.6736
   27CHL1   H1B 1970   2.846   0.843   6.132  2.1059  0.0120  1.0708
   27CHL1    C2 1971   2.892   0.714   6.281 -0.0879  1.3062 -1.1311
   27CHL1   H2A 1972   2.984   0.762   6.319  0.1426  0.3557 -0.4854
   27CHL1   H2B 1973   2.911   0.608   6.306 -0.4499  1.5835  0.4083
   27CHL1   C20 1974   2.533   0.605   5.421 -1.0739 -0.1132 -0.1488
   27CHL1   H20 1975   2.484   0.507   5.438 -1.8814  0.1931 -0.6356
   27CHL1   C21 1976   2.688   0.581   5.395 -0.2119  0.0324  0.0947
   27CHL1  H21A 1977   2.725   0.518   5.479 -2.1289 -1.4494 -0.0931
   27CHL1  H21B 1978   2.745   0.676   5.386 -0.4738  0.1109 -0.8376
   27CHL1  H21C 1979   2.690   0.519   5.303 -0.3556  1.1354 -0.6806
   27CHL1   C22 1980   2.459   0.665   5.300 -0.1496 -0.4108 -0.3782
   27CHL1  H22A 1981   2.353   0.663   5.334  0.0241 -1.8779  0.1431
   27CHL1  H22B 1982   2.490   0.770   5.283  1.0819 -0.4775  1.2585
   27CHL1   C23 1983   2.463   0.580   5.170  0.0247  0.3315  1.1772
   27CHL1  H23A 1984   2.554   0.608   5.112 -1.6339  2.5540 -0.5624
   27CHL1  H23B 1985   2.450   0.473   5.197  1.0041  0.1443  0.9465
   27CHL1   C24 1986   2.336   0.603   5.091  0.7438 -0.6368 -0.4551
   27CHL1  H24A 1987   2.247   0.564   5.144  0.7925  1.1992  1.0856
   27CHL1  H24B 1988   2.311   0.711   5.086 -2.3690 -1.1043  1.8605
   27CHL1   C25 1989   2.318   0.542   4.951 -0.0038  0.1066 -0.0864
   27CHL1   H25 1990   2.312   0.431   4.952 -1.1939  0.1113 -1.7554
   27CHL1   C26 1991   2.191   0.596   4.884 -0.0147  0.8990 -0.5391
   27CHL1  H26A 1992   2.100   0.592   4.948  1.0601  1.0157  1.0426
   27CHL1  H26B 1993   2.224   0.695   4.846  3.3030 -1.1542 -3.6757
   27CHL1  H26C 1994   2.162   0.539   4.793  1.0792 -0.0492 -0.3150
   27CHL1   C27 1995   2.442   0.578   4.863  0.7547  0.0117 -0.1378
   27CHL1  H27A 1996   2.430   0.533   4.762  4.5147 -0.9909 -0.2828
   27CHL1  H27B 1997   2.450   0.688   4.855 -0.9494  0.2187  0.5081
   27CHL1  H27C 1998   2.540   0.549   4.907  1.9382  2.7838 -0.7705
   28CHL1    C3 1999   1.382   1.055   6.157 -0.4875  0.0447  1.3485
   28CHL1    H3 2000   1.459   1.135   6.154 -0.4978  0.0298 -0.0345
   28CHL1    O3 2001   1.405   0.989   6.280  0.0240 -0.3051 -0.2108
   28CHL1   H3' 2002   1.489   0.944   6.267 -0.9622 -2.1653 -0.4887
   28CHL1    C4 2003   1.240   1.104   6.152 -0.2271  0.6083  0.7900
   28CHL1   H4A 2004   1.168   1.022   6.170 -0.1698  0.6701  1.3281
   28CHL1   H4B 2005   1.219   1.163   6.244 -2.1354 -3.1006  2.9508
   28CHL1    C5 2006   1.213   1.179   6.023 -0.5024  0.5756 -1.3096
   28CHL1    C6 2007   1.172   1.311   6.019  0.2126  0.0198  0.1659
   28CHL1    H6 2008   1.160   1.368   6.113  0.2113  0.8599 -0.3372
   28CHL1    C7 2009   1.137   1.376   5.891  0.9232  0.2362 -0.2295
   28CHL1   H7A 2010   1.049   1.443   5.901 -1.5411 -2.9142  0.9104
   28CHL1   H7B 2011   1.228   1.434   5.863  0.4822  1.4370  0.7313
   28CHL1    C8 2012   1.113   1.276   5.766  0.4546  0.6077 -0.3683
   28CHL1    H8 2013   1.019   1.220   5.783  1.3110 -0.4685  1.1274
   28CHL1   C14 2014   1.105   1.362   5.641 -0.1436 -0.0128  0.3073
   28CHL1   H14 2015   1.204   1.412   5.627 -0.7176  1.0192 -0.1854
   28CHL1   C15 2016   0.999   1.467   5.636  0.0534 -0.2543  0.3101
   28CHL1  H15A 2017   0.899   1.434   5.673  1.1504 -1.0731  2.7031
   28CHL1  H15B 2018   1.020   1.560   5.693  0.6095  1.1417 -2.0187
   28CHL1   C16 2019   0.985   1.504   5.486 -0.5750 -0.1924 -0.3710
   28CHL1  H16A 2020   0.878   1.494   5.456 -0.0852 -3.3963 -1.4054
   28CHL1  H16B 2021   1.038   1.595   5.451  1.6256 -1.3818 -0.2871
   28CHL1   C17 2022   1.061   1.387   5.406 -0.2720 -0.5855  0.2209
   28CHL1   H17 2023   1.157   1.434   5.374 -0.2839  0.4531  1.6194
   28CHL1   C13 2024   1.085   1.281   5.512 -0.6954  0.5915  0.7033
   28CHL1   C18 2025   0.956   1.195   5.513 -0.2054  0.6720  0.0003
   28CHL1  H18A 2026   0.959   1.136   5.418 -0.3109  1.2454 -0.3647
   28CHL1  H18B 2027   0.957   1.121   5.596 -0.4778  1.0288  0.3278
   28CHL1  H18C 2028   0.869   1.265   5.518  0.5967  1.6932 -0.0789
   28CHL1   C12 2029   1.203   1.188   5.501 -0.1061  0.7619 -0.3279
   28CHL1  H12A 2030   1.193   1.119   5.415 -0.1782  2.2458 -1.5556
   28CHL1  H12B 2031   1.294   1.250   5.482  0.2993 -0.3610 -2.4721
   28CHL1   C11 2032   1.223   1.097   5.629  0.0346 -0.4960 -0.2378
   28CHL1  H11A 2033   1.148   1.015   5.626 -2.2207  1.4682 -0.5722
   28CHL1  H11B 2034   1.324   1.051   5.622 -0.5863 -2.0785  0.4552
   28CHL1    C9 2035   1.220   1.172   5.762  0.5373 -0.2194 -0.4605
   28CHL1    H9 2036   1.306   1.241   5.750  0.2192  0.5326  1.3559
   28CHL1   C10 2037   1.238   1.091   5.896  0.0213 -0.1476 -0.5427
   28CHL1   C19 2038   1.125   0.976   5.883 -0.3259  1.0797  0.1869
   28CHL1  H19A 2039   1.157   0.911   5.799  0.3495  0.3235  1.0103
   28CHL1  H19B 2040   1.117   0.909   5.972  0.6803 -1.7249 -1.7016
   28CHL1  H19C 2041   1.023   1.014   5.862  0.4928  2.4390 -1.4750
   28CHL1    C1 2042   1.382   1.030   5.896 -0.6580 -0.4514  0.4842
   28CHL1   H1A 2043   1.395   0.960   5.811  0.1244 -0.6555  0.7615
   28CHL1   H1B 2044   1.455   1.113   5.898 -1.4384  0.2932 -0.7591
   28CHL1    C2 2045   1.399   0.962   6.045  0.2342 -0.5832  0.0546
   28CHL1   H2A 2046   1.500   0.916   6.053  1.0660  1.1500  0.0737
   28CHL1   H2B 2047   1.329   0.876   6.056 -0.4035  0.0531  1.1425
   28CHL1   C20 2048   1.017   1.348   5.261 -0.2234  0.6798  0.1021
   28CHL1   H20 2049   0.923   1.288   5.272  0.3833 -0.2024  0.6368
   28CHL1   C21 2050   1.124   1.256   5.203 -0.0635  0.4334 -0.3803
   28CHL1  H21A 2051   1.122   1.266   5.092  0.8094 -0.5342 -0.4935
   28CHL1  H21B 2052   1.117   1.147   5.225  0.6927  0.4879  0.1704
   28CHL1  H21C 2053   1.226   1.294   5.222  0.3301  2.2713 -4.8882
   28CHL1   C22 2054   1.005   1.477   5.176  0.7121 -0.0575  0.1419
   28CHL1  H22A 2055   0.949   1.548   5.239 -0.8295 -1.3765  0.3331
   28CHL1  H22B 2056   1.107   1.510   5.149  0.8933 -0.9270 -0.2809
   28CHL1   C23 2057   0.924   1.468   5.050 -0.5077  0.3550 -0.6555
   28CHL1  H23A 2058   0.962   1.384   4.987 -1.1019 -0.1334 -0.3702
   28CHL1  H23B 2059   0.822   1.429   5.073 -0.7436  0.6781 -1.1309
   28CHL1   C24 2060   0.916   1.597   4.962 -0.4263 -0.2091  0.0922
   28CHL1  H24A 2061   0.831   1.590   4.891 -0.7300  1.1436  0.3050
   28CHL1  H24B 2062   0.870   1.681   5.018  2.1087  1.9373 -0.8241
   28CHL1   C25 2063   1.041   1.674   4.922  0.1764  0.0439  0.6717
   28CHL1   H25 2064   1.119   1.678   5.001  1.0806 -0.9277 -0.1410
   28CHL1   C26 2065   1.096   1.602   4.801  0.6295  0.1498 -0.2614
   28CHL1  H26A 2066   1.198   1.636   4.770  1.6943 -1.6459  1.0647
   28CHL1  H26B 2067   1.106   1.494   4.824  2.1636  0.5402  1.0836
   28CHL1  H26C 2068   1.019   1.613   4.722  0.4699 -1.1417 -0.3068
   28CHL1   C27 2069   1.014   1.820   4.894 -0.9308 -0.1419  0.6889
   28CHL1  H27A 2070   1.091   1.880   4.840  1.3506 -2.8712  0.6990
   28CHL1  H27B 2071   0.925   1.824   4.828 -0.2711 -0.3356 -0.2177
   28CHL1  H27C 2072   0.997   1.874   4.990 -0.9266  0.7232  0.2123
   29CHL1    C3 2073   2.715   2.193   2.344 -0.2669 -0.3411 -0.3676
   29CHL1    H3 2074   2.701   2.084   2.362 -0.5122 -0.2756 -0.1558
   29CHL1    O3 2075   2.697   2.232   2.208  0.2181 -0.2751 -0.0131
   29CHL1   H3' 2076   2.714   2.325   2.198  1.3971 -0.6251 -1.5607
   29CHL1    C4 2077   2.612   2.271   2.429 -0.0491  0.8267 -0.3739
   29CHL1   H4A 2078   2.620   2.378   2.397 -1.2687  1.0510 -0.0008
   29CHL1   H4B 2079   2.505   2.245   2.411 -1.2685  3.4702  2.0895
   29CHL1    C5 2080   2.634   2.278   2.584  0.7206 -0.5055 -0.2179
   29CHL1    C6 2081   2.534   2.230   2.664 -0.4114 -0.4257  0.2444
   29CHL1    H6 2082   2.435   2.212   2.620 -0.8026 -0.0655  0.9472
   29CHL1    C7 2083   2.548   2.231   2.810 -0.2320  0.0380  0.0799
   29CHL1   H7A 2084   2.446   2.265   2.839 -0.9135 -0.7224 -1.3197
   29CHL1   H7B 2085   2.557   2.132   2.861 -2.2430 -0.5659 -0.6270
   29CHL1    C8 2086   2.666   2.321   2.850  0.5428  0.5528 -0.8087
   29CHL1    H8 2087   2.639   2.424   2.819  0.8883  0.3868 -1.6904
   29CHL1   C14 2088   2.681   2.315   3.007 -0.3951 -0.4498  0.0052
   29CHL1   H14 2089   2.709   2.212   3.038  1.0458  0.5969  2.5077
   29CHL1   C15 2090   2.558   2.352   3.095  0.8966  1.1170  0.1601
   29CHL1  H15A 2091   2.511   2.446   3.060  1.8852  1.7268  0.4496
   29CHL1  H15B 2092   2.487   2.266   3.103 -0.3042  1.9770 -0.8435
   29CHL1   C16 2093   2.614   2.381   3.236  0.2560 -0.2241 -0.3805
   29CHL1  H16A 2094   2.580   2.485   3.256  0.3221 -0.2695 -0.0186
   29CHL1  H16B 2095   2.565   2.310   3.307  0.5427 -0.3333 -0.2899
   29CHL1   C17 2096   2.761   2.372   3.218  0.2056 -0.3496  0.4117
   29CHL1   H17 2097   2.790   2.265   3.233  0.6718 -0.3974 -0.6783
   29CHL1   C13 2098   2.793   2.397   3.070  0.5930 -0.1801 -0.0175
   29CHL1   C18 2099   2.771   2.551   3.042  0.4197  0.5694 -0.0080
   29CHL1  H18A 2100   2.853   2.614   3.082  1.5956  1.0109 -2.8651
   29CHL1  H18B 2101   2.761   2.559   2.931 -3.3865  0.1984  0.1840
   29CHL1  H18C 2102   2.673   2.587   3.079  0.5090  1.0327 -0.2116
   29CHL1   C12 2103   2.929   2.344   3.012  0.6022 -0.6121  0.3852
   29CHL1  H12A 2104   3.005   2.416   3.050 -0.7344  0.4733  1.0708
   29CHL1  H12B 2105   2.959   2.241   3.042  0.3823 -0.7379  0.1753
   29CHL1   C11 2106   2.921   2.349   2.854 -0.7919  0.0163 -0.5886
   29CHL1  H11A 2107   2.934   2.456   2.826  1.2542 -0.2367 -0.7921
   29CHL1  H11B 2108   3.009   2.300   2.807  0.9841 -0.4938  2.9406
   29CHL1    C9 2109   2.797   2.281   2.791  0.3257 -0.0004  0.3408
   29CHL1    H9 2110   2.797   2.174   2.819  0.2690 -0.0313  0.2260
   29CHL1   C10 2111   2.779   2.307   2.634  0.1130  0.8535  0.2981
   29CHL1   C19 2112   2.800   2.462   2.604  0.5789  0.2476  0.9521
   29CHL1  H19A 2113   2.908   2.483   2.621  1.0925 -1.6362  0.3303
   29CHL1  H19B 2114   2.770   2.498   2.503 -1.5189  1.7179  2.0502
   29CHL1  H19C 2115   2.737   2.525   2.670  1.1941  1.4240  0.4483
   29CHL1    C1 2116   2.870   2.219   2.552  0.1392 -0.5076  0.5650
   29CHL1   H1A 2117   2.973   2.229   2.591 -0.0846 -1.6663  1.5176
   29CHL1   H1B 2118   2.846   2.111   2.568  0.9219 -1.3153 -2.7864
   29CHL1    C2 2119   2.862   2.232   2.398 -0.1587 -0.1223 -0.4165
   29CHL1   H2A 2120   2.920   2.153   2.347 -0.8939  0.3529 -2.0592
   29CHL1   H2B 2121   2.881   2.337   2.367  0.2021 -0.0124  0.1583
   29CHL1   C20 2122   2.835   2.458   3.329  0.3897  0.0028  1.0342
   29CHL1   H20 2123   2.808   2.565   3.317  0.2628  0.2515  3.0816
   29CHL1   C21 2124   2.991   2.443   3.328  0.0263 -0.4024  0.6445
   29CHL1  H21A 2125   3.047   2.495   3.248  0.7368 -0.7837  0.8885
   29CHL1  H21B 2126   3.008   2.334   3.340 -1.1583 -0.5297  1.4079
   29CHL1  H21C 2127   3.022   2.499   3.419  0.8267 -2.1302  1.4805
   29CHL1   C22 2128   2.788   2.426   3.474  0.5352 -0.2498  0.3422
   29CHL1  H22A 2129   2.679   2.401   3.480  0.7052 -0.9571  0.5384
   29CHL1  H22B 2130   2.840   2.334   3.508  0.2233 -0.6823 -0.3318
   29CHL1   C23 2131   2.802   2.544   3.574 -0.0976 -0.0706 -0.0533
   29CHL1  H23A 2132   2.907   2.540   3.612 -0.3523 -4.3428  0.7435
   29CHL1  H23B 2133   2.775   2.641   3.528  1.7889  1.2096  1.3600
   29CHL1   C24 2134   2.712   2.530   3.692 -0.1083  0.5360 -0.0914
   29CHL1  H24A 2135   2.615   2.570   3.655  1.3750  2.3095 -2.3679
   29CHL1  H24B 2136   2.701   2.423   3.717  3.6220  0.1292  0.4078
   29CHL1   C25 2137   2.738   2.607   3.818 -0.0399  0.2124  0.3815
   29CHL1   H25 2138   2.835   2.574   3.859 -0.7365 -1.7824  0.4887
   29CHL1   C26 2139   2.751   2.760   3.806 -0.3535  0.5556 -0.0905
   29CHL1  H26A 2140   2.836   2.770   3.734  0.5815 -2.4602  0.4621
   29CHL1  H26B 2141   2.660   2.809   3.765 -1.6568 -2.0110 -0.4272
   29CHL1  H26C 2142   2.779   2.806   3.903 -1.1190  1.3262 -0.2261
   29CHL1   C27 2143   2.624   2.574   3.913  0.2536  0.1793 -0.0808
   29CHL1  H27A 2144   2.528   2.603   3.865  0.0799  1.0495  0.7471
   29CHL1  H27B 2145   2.616   2.465   3.933 -0.5119  0.3708  0.7366
   29CHL1  H27C 2146   2.625   2.638   4.004 -0.5892  2.6931 -1.7422
   30CHL1    C3 2147   3.269   5.990   2.734  0.1153 -0.7062  0.2031
   30CHL1    H3 2148   3.160   6.009   2.737  0.3481  0.6473  0.8064
   30CHL1    O3 2149   3.313   5.962   2.601  0.0201  0.1381  0.5768
   30CHL1   H3' 2150   3.323   6.050   2.565 -1.4247 -0.3036 -1.0606
   30CHL1    C4 2151   3.341   6.111   2.773 -1.1828 -1.1052  0.9905
   30CHL1   H4A 2152   3.451   6.102   2.760 -1.1933 -1.0637  0.8722
   30CHL1   H4B 2153   3.317   6.195   2.705  0.4724 -0.2375  1.4492
   30CHL1    C5 2154   3.309   6.142   2.918 -0.1895 -0.0170  0.0283
   30CHL1    C6 2155   3.260   6.261   2.959 -0.0478 -0.3979  0.3144
   30CHL1    H6 2156   3.232   6.340   2.888 -0.5025  0.1902  1.1253
   30CHL1    C7 2157   3.245   6.303   3.102 -0.5650  0.0375  0.0552
   30CHL1   H7A 2158   3.291   6.404   3.108  0.2015 -0.2270 -1.0704
   30CHL1   H7B 2159   3.137   6.326   3.119 -0.4020  2.5043 -1.5956
   30CHL1    C8 2160   3.298   6.203   3.203 -0.3223  0.2878 -0.1111
   30CHL1    H8 2161   3.406   6.212   3.226 -0.3098  0.2529 -0.1553
   30CHL1   C14 2162   3.219   6.237   3.327 -0.4977  0.1367  0.0127
   30CHL1   H14 2163   3.110   6.236   3.308 -0.6054 -1.1916  0.5521
   30CHL1   C15 2164   3.227   6.379   3.386 -0.3782  0.1173  0.5893
   30CHL1  H15A 2165   3.326   6.421   3.360 -0.6834  0.9997  0.7979
   30CHL1  H15B 2166   3.134   6.435   3.360  0.2451  0.6864 -0.4830
   30CHL1   C16 2167   3.211   6.360   3.539  0.7050  1.4095 -0.5331
   30CHL1  H16A 2168   3.308   6.390   3.584 -0.0633  0.2233  2.1312
   30CHL1  H16B 2169   3.122   6.415   3.575  1.4305  0.9717  2.0846
   30CHL1   C17 2170   3.171   6.203   3.549 -0.0201 -0.6263 -0.8596
   30CHL1   H17 2171   3.063   6.212   3.525 -0.2879 -0.3488  0.3586
   30CHL1   C13 2172   3.246   6.130   3.437 -0.1735 -0.5548  0.3427
   30CHL1   C18 2173   3.398   6.135   3.474  0.3639 -0.9208  0.5009
   30CHL1  H18A 2174   3.460   6.094   3.391 -2.5928 -1.0589 -1.8118
   30CHL1  H18B 2175   3.437   6.234   3.507  1.9999 -0.6345 -2.0169
   30CHL1  H18C 2176   3.407   6.070   3.564  0.9558 -1.8204 -0.1863
   30CHL1   C12 2177   3.199   5.989   3.392 -0.2919  0.1535 -0.2172
   30CHL1  H12A 2178   3.219   5.921   3.477 -0.1089  1.6293  0.9582
   30CHL1  H12B 2179   3.092   5.987   3.363 -0.9313  0.1425  1.9760
   30CHL1   C11 2180   3.274   5.954   3.265  0.4112  0.3280 -0.0465
   30CHL1  H11A 2181   3.380   5.931   3.290 -0.0698 -1.0948  0.8421
   30CHL1  H11B 2182   3.228   5.860   3.228 -2.6821  1.5380  0.4002
   30CHL1    C9 2183   3.260   6.065   3.156 -0.3186  0.1669 -0.4381
   30CHL1    H9 2184   3.151   6.071   3.135 -0.0737 -0.3755 -2.0100
   30CHL1   C10 2185   3.325   6.032   3.017  0.5649  0.0889  0.1039
   30CHL1   C19 2186   3.474   5.994   3.042 -0.3557 -0.1875  0.0773
   30CHL1  H19A 2187   3.519   6.076   3.102 -0.8282  1.4055 -1.6614
   30CHL1  H19B 2188   3.474   5.900   3.101  0.8361  0.5858  1.3727
   30CHL1  H19C 2189   3.527   5.983   2.945 -1.0551  0.6403 -0.4077
   30CHL1    C1 2190   3.254   5.906   2.957 -0.6966 -0.4490 -0.6484
   30CHL1   H1A 2191   3.258   5.816   3.023 -1.1633 -0.3366 -0.4600
   30CHL1   H1B 2192   3.144   5.923   2.946 -0.5316  0.0978 -1.5305
   30CHL1    C2 2193   3.298   5.868   2.821  0.3570 -1.0218  0.4258
   30CHL1   H2A 2194   3.237   5.788   2.774 -1.8813  1.3772 -1.0384
   30CHL1   H2B 2195   3.408   5.851   2.821  0.7514  0.8561  3.2424
   30CHL1   C20 2196   3.183   6.146   3.695 -0.3583 -0.8255 -0.2389
   30CHL1   H20 2197   3.280   6.092   3.701  1.5598  2.3796  0.3221
   30CHL1   C21 2198   3.074   6.040   3.713 -0.3559 -0.5690  0.2764
   30CHL1  H21A 2199   3.088   5.982   3.807  2.3817 -0.6484 -0.1067
   30CHL1  H21B 2200   3.099   5.975   3.626  0.2714  1.4341 -1.1146
   30CHL1  H21C 2201   2.973   6.087   3.715 -0.9191 -1.7375  2.0724
   30CHL1   C22 2202   3.172   6.249   3.817 -0.1406 -0.3428  0.9865
   30CHL1  H22A 2203   3.264   6.311   3.823  1.0384 -2.0635  1.4921
   30CHL1  H22B 2204   3.092   6.319   3.786  0.6725  0.4972  0.7573
   30CHL1   C23 2205   3.157   6.195   3.959  0.4334 -0.2676  0.1647
   30CHL1  H23A 2206   3.057   6.149   3.970  1.6290 -2.9814  0.6432
   30CHL1  H23B 2207   3.234   6.114   3.962 -0.5575 -1.2042  0.7364
   30CHL1   C24 2208   3.190   6.292   4.073  0.3272 -0.2060 -0.4894
   30CHL1  H24A 2209   3.293   6.331   4.053  0.9660 -1.4895  0.1547
   30CHL1  H24B 2210   3.113   6.372   4.078 -0.5518 -1.1109  1.0895
   30CHL1   C25 2211   3.193   6.244   4.223 -0.1244 -0.5768  0.4812
   30CHL1   H25 2212   3.250   6.149   4.221 -0.4104 -0.7581 -1.7713
   30CHL1   C26 2213   3.275   6.345   4.305  0.7120 -0.0480 -0.0046
   30CHL1  H26A 2214   3.268   6.317   4.413  0.6221 -1.6555 -0.4094
   30CHL1  H26B 2215   3.379   6.323   4.274 -0.6160 -3.4322 -2.7357
   30CHL1  H26C 2216   3.263   6.454   4.289 -1.4313 -0.2079  0.2301
   30CHL1   C27 2217   3.052   6.214   4.274  0.2097 -0.5745  1.0315
   30CHL1  H27A 2218   3.004   6.141   4.205 -0.0412  0.7250 -0.2194
   30CHL1  H27B 2219   3.055   6.167   4.375 -1.4762  1.5128  2.1177
   30CHL1  H27C 2220   2.995   6.307   4.291  0.8142 -0.2818  1.4876
   31CHL1    C3 2221   5.420   6.052   2.707 -0.3322  0.5381 -0.3673
   31CHL1    H3 2222   5.356   6.141   2.723  0.3909  1.1671 -0.8749
   31CHL1    O3 2223   5.418   6.021   2.570  0.1018 -0.4475 -0.3991
   31CHL1   H3' 2224   5.327   6.021   2.537  0.2590  0.4140 -0.8807
   31CHL1    C4 2225   5.563   6.082   2.755  0.2557 -0.3079 -0.8215
   31CHL1   H4A 2226   5.614   5.985   2.738 -0.3282 -0.6110 -0.8400
   31CHL1   H4B 2227   5.615   6.162   2.698  1.3302 -2.3062 -2.8001
   31CHL1    C5 2228   5.567   6.121   2.901  0.0069  0.5676 -0.2456
   31CHL1    C6 2229   5.604   6.240   2.950 -0.1947 -0.1641  0.6185
   31CHL1    H6 2230   5.640   6.317   2.880 -1.2526  1.8331  2.1943
   31CHL1    C7 2231   5.586   6.302   3.081 -0.0139  0.3815  0.1560
   31CHL1   H7A 2232   5.678   6.359   3.103 -1.3158  1.9439  1.9684
   31CHL1   H7B 2233   5.501   6.372   3.096 -0.3846  0.2864 -1.4014
   31CHL1    C8 2234   5.569   6.183   3.181  0.0697  0.2492  0.5781
   31CHL1    H8 2235   5.665   6.126   3.186  0.0156  0.1965  1.0665
   31CHL1   C14 2236   5.524   6.248   3.311  0.5023 -0.3732 -0.3589
   31CHL1   H14 2237   5.421   6.281   3.284 -0.1730 -1.8580  0.2215
   31CHL1   C15 2238   5.589   6.383   3.369 -0.1388 -0.0037  0.2258
   31CHL1  H15A 2239   5.696   6.372   3.343 -0.1056  0.0985  0.3243
   31CHL1  H15B 2240   5.546   6.470   3.315  1.9204  0.8422 -0.1133
   31CHL1   C16 2241   5.552   6.387   3.518  0.1821  0.4541  0.0136
   31CHL1  H16A 2242   5.643   6.387   3.580 -0.1532 -3.9075  0.8457
   31CHL1  H16B 2243   5.488   6.475   3.541  1.0332  0.3074  3.3596
   31CHL1   C17 2244   5.467   6.254   3.535  0.1514 -0.2425 -0.0990
   31CHL1   H17 2245   5.363   6.284   3.510  0.6103  0.6115 -1.0523
   31CHL1   C13 2246   5.503   6.152   3.435 -0.3013 -0.1222  0.8587
   31CHL1   C18 2247   5.642   6.080   3.472  0.4897  0.7172 -0.4568
   31CHL1  H18A 2248   5.710   6.164   3.498  1.5518  0.0137 -0.9387
   31CHL1  H18B 2249   5.617   6.000   3.544  0.4691  0.2000 -1.0363
   31CHL1  H18C 2250   5.700   6.028   3.393  2.3117  1.3280  0.4269
   31CHL1   C12 2251   5.399   6.055   3.383  0.1747 -0.5387  0.2658
   31CHL1  H12A 2252   5.399   5.971   3.455  2.2030  0.2729  1.3207
   31CHL1  H12B 2253   5.306   6.113   3.369  0.9440  0.9472  0.9891
   31CHL1   C11 2254   5.440   5.985   3.248  0.0096 -0.1305  0.0062
   31CHL1  H11A 2255   5.526   5.917   3.269  2.4078  1.7421 -3.0219
   31CHL1  H11B 2256   5.359   5.912   3.225  1.0762 -1.5532  0.5881
   31CHL1    C9 2257   5.467   6.083   3.134  0.3279  0.2450 -0.2338
   31CHL1    H9 2258   5.367   6.129   3.120 -0.5404 -2.0914 -2.2565
   31CHL1   C10 2259   5.499   6.024   3.001  0.2959  0.1943 -0.1133
   31CHL1   C19 2260   5.582   5.896   3.017  0.0292  0.7199  0.7506
   31CHL1  H19A 2261   5.667   5.911   3.086  3.6720  2.1446 -3.5904
   31CHL1  H19B 2262   5.533   5.798   3.035  1.7271 -0.6491 -1.5878
   31CHL1  H19C 2263   5.641   5.882   2.924 -0.7049  1.1252  0.2074
   31CHL1    C1 2264   5.360   5.988   2.930 -1.1020  0.1887 -0.1223
   31CHL1   H1A 2265   5.313   5.902   2.981  0.3921 -1.3625 -1.2249
   31CHL1   H1B 2266   5.301   6.079   2.953 -2.0752 -0.5699  0.4162
   31CHL1    C2 2267   5.357   5.939   2.787  0.0482 -0.4273 -0.2173
   31CHL1   H2A 2268   5.250   5.916   2.765 -0.2666 -1.5845  2.2402
   31CHL1   H2B 2269   5.409   5.844   2.761 -0.0286 -0.5146 -0.0556
   31CHL1   C20 2270   5.477   6.212   3.682 -0.1100  0.3930 -0.4464
   31CHL1   H20 2271   5.582   6.185   3.711 -0.6391 -1.5542 -0.1779
   31CHL1   C21 2272   5.391   6.086   3.714 -0.3662  0.0301 -0.0236
   31CHL1  H21A 2273   5.281   6.093   3.702 -0.6920 -0.3471  2.2283
   31CHL1  H21B 2274   5.401   6.063   3.823 -2.5302  5.0846  1.5559
   31CHL1  H21C 2275   5.431   5.995   3.664  0.0362 -0.4997  1.2187
   31CHL1   C22 2276   5.442   6.319   3.783  0.5413 -0.6233  0.7182
   31CHL1  H22A 2277   5.496   6.415   3.766 -0.1007 -0.4004 -0.0853
   31CHL1  H22B 2278   5.336   6.348   3.767  1.0235 -0.0256 -1.7182
   31CHL1   C23 2279   5.461   6.283   3.932 -0.5287  0.2985 -0.4949
   31CHL1  H23A 2280   5.403   6.194   3.964  0.0021  0.6126  1.5045
   31CHL1  H23B 2281   5.568   6.255   3.930 -0.9010 -1.1860 -1.5692
   31CHL1   C24 2282   5.436   6.396   4.019  0.0809 -0.1827 -0.9653
   31CHL1  H24A 2283   5.497   6.489   4.015 -0.8368  0.7418  2.4016
   31CHL1  H24B 2284   5.329   6.420   3.999  0.1869  1.2598  0.0136
   31CHL1   C25 2285   5.451   6.349   4.167 -0.3043  0.5939  0.4950
   31CHL1   H25 2286   5.387   6.260   4.184 -0.4558  0.3998 -0.9773
   31CHL1   C26 2287   5.591   6.318   4.209 -0.6492 -0.2850  0.3869
   31CHL1  H26A 2288   5.647   6.413   4.216 -1.5488  0.3013 -0.1238
   31CHL1  H26B 2289   5.577   6.273   4.310 -1.2672  0.1207  0.4872
   31CHL1  H26C 2290   5.634   6.246   4.136  0.6615  2.9088 -2.2225
   31CHL1   C27 2291   5.387   6.457   4.258  0.2876  0.2065 -0.3673
   31CHL1  H27A 2292   5.278   6.460   4.237 -0.1858 -0.0444  1.7953
   31CHL1  H27B 2293   5.411   6.434   4.364  1.1637 -2.1342 -1.0119
   31CHL1  H27C 2294   5.430   6.558   4.237  2.0658 -0.3725  0.3176
   32CHL1    C3 2295   3.342   3.172   2.401  0.2419  0.6134 -0.4064
   32CHL1    H3 2296   3.452   3.188   2.403  0.6770 -1.8867 -0.3380
   32CHL1    O3 2297   3.322   3.110   2.271 -0.3626 -0.4247 -0.8816
   32CHL1   H3' 2298   3.229   3.118   2.248  0.0703 -0.0180 -2.6600
   32CHL1    C4 2299   3.281   3.070   2.507 -1.0705  0.6158 -0.6500
   32CHL1   H4A 2300   3.178   3.043   2.474 -2.1160  2.4763  0.8786
   32CHL1   H4B 2301   3.349   2.982   2.504 -0.1718  1.2447  0.7550
   32CHL1    C5 2302   3.286   3.129   2.645  0.1479  0.3271  0.3659
   32CHL1    C6 2303   3.357   3.071   2.741 -0.3240 -0.4230 -0.0918
   32CHL1    H6 2304   3.410   2.976   2.726 -2.1227 -1.2559 -1.6981
   32CHL1    C7 2305   3.359   3.118   2.884 -0.1206 -0.3582  0.2995
   32CHL1   H7A 2306   3.348   3.029   2.950  1.9680 -2.1992 -1.6832
   32CHL1   H7B 2307   3.458   3.161   2.908  0.6677 -1.8483 -0.1729
   32CHL1    C8 2308   3.244   3.225   2.917 -0.5111  0.2407  0.3467
   32CHL1    H8 2309   3.145   3.175   2.924 -0.4567 -0.6081 -3.0444
   32CHL1   C14 2310   3.277   3.298   3.047 -0.7663  0.5542 -0.1600
   32CHL1   H14 2311   3.381   3.336   3.043  0.2068 -1.6425  1.9509
   32CHL1   C15 2312   3.286   3.214   3.175 -0.3843 -0.4012 -0.2032
   32CHL1  H15A 2313   3.213   3.131   3.188  1.1004 -1.6688  0.5217
   32CHL1  H15B 2314   3.383   3.164   3.197 -0.0436 -0.4964 -1.8293
   32CHL1   C16 2315   3.265   3.322   3.283 -0.2114  0.3566  1.2625
   32CHL1  H16A 2316   3.178   3.286   3.342 -1.5888 -1.4159 -1.5814
   32CHL1  H16B 2317   3.353   3.332   3.349  0.2705  0.7779  0.5674
   32CHL1   C17 2318   3.229   3.453   3.215  0.5529 -0.2050  0.1078
   32CHL1   H17 2319   3.324   3.508   3.197  0.3709  0.6160  1.5236
   32CHL1   C13 2320   3.180   3.414   3.073 -0.2310 -0.0099  0.3864
   32CHL1   C18 2321   3.034   3.368   3.069  0.4305  0.3724 -0.0011
   32CHL1  H18A 2322   3.003   3.313   2.977  2.9029 -1.3224  0.0979
   32CHL1  H18B 2323   3.009   3.319   3.166  1.1417  1.5711  0.8105
   32CHL1  H18C 2324   2.966   3.456   3.070 -0.1566 -0.0019 -2.0299
   32CHL1   C12 2325   3.197   3.523   2.963  0.0373 -0.2211  0.2564
   32CHL1  H12A 2326   3.132   3.610   2.984  0.0424  0.1562 -1.1929
   32CHL1  H12B 2327   3.303   3.551   2.980  0.2932 -2.8426  4.2735
   32CHL1   C11 2328   3.162   3.459   2.832 -0.3119  0.2681 -0.1002
   32CHL1  H11A 2329   3.052   3.462   2.817  0.0803  1.4985 -4.0110
   32CHL1  H11B 2330   3.199   3.524   2.750  2.3586 -0.8332  0.1129
   32CHL1    C9 2331   3.245   3.323   2.802  0.4839 -0.0650  0.3392
   32CHL1    H9 2332   3.347   3.366   2.795  0.1730  0.6372  0.0172
   32CHL1   C10 2333   3.203   3.259   2.666  0.5205  0.0332 -0.0364
   32CHL1   C19 2334   3.055   3.236   2.653 -0.0359 -0.7112 -0.2291
   32CHL1  H19A 2335   3.033   3.183   2.558  3.7892  1.0040 -2.3022
   32CHL1  H19B 2336   3.005   3.171   2.728  0.3993 -0.8686 -0.0766
   32CHL1  H19C 2337   3.001   3.332   2.665 -0.9791 -1.3804  1.1913
   32CHL1    C1 2338   3.247   3.361   2.550 -0.4497  0.4112  0.2342
   32CHL1   H1A 2339   3.171   3.442   2.549  1.2876  2.1666 -1.7519
   32CHL1   H1B 2340   3.348   3.403   2.573  0.9204 -1.9204 -1.0839
   32CHL1    C2 2341   3.262   3.300   2.405  0.2193  1.1059  0.1859
   32CHL1   H2A 2342   3.310   3.375   2.337  0.4919 -1.6163 -2.8338
   32CHL1   H2B 2343   3.161   3.287   2.361  0.3155 -0.5789  0.4004
   32CHL1   C20 2344   3.135   3.541   3.307 -0.0116  1.1050 -0.9957
   32CHL1   H20 2345   3.056   3.475   3.346  1.7545 -0.3024  0.3629
   32CHL1   C21 2346   3.089   3.672   3.250 -0.5673 -0.8037  0.5943
   32CHL1  H21A 2347   3.028   3.730   3.323 -0.5964  2.8565 -2.0712
   32CHL1  H21B 2348   3.026   3.647   3.162  1.1426 -0.9291 -0.6354
   32CHL1  H21C 2349   3.179   3.729   3.219  0.7108 -0.8075  3.8942
   32CHL1   C22 2350   3.208   3.576   3.447  0.0731  0.2098  0.7233
   32CHL1  H22A 2351   3.123   3.626   3.498 -0.4091  1.3260 -1.0686
   32CHL1  H22B 2352   3.229   3.481   3.500 -3.8606 -1.6955 -0.7029
   32CHL1   C23 2353   3.330   3.670   3.434 -0.5189 -0.2157  0.1742
   32CHL1  H23A 2354   3.405   3.616   3.371 -1.0999 -2.0959  1.0200
   32CHL1  H23B 2355   3.301   3.771   3.398 -0.9750  0.2338  1.7153
   32CHL1   C24 2356   3.391   3.695   3.567  0.0838  0.4232 -0.6726
   32CHL1  H24A 2357   3.317   3.677   3.648  2.6011  3.3498  2.5858
   32CHL1  H24B 2358   3.468   3.615   3.583 -0.1561  0.4088  0.5087
   32CHL1   C25 2359   3.449   3.832   3.598 -0.0765 -0.5094 -0.8298
   32CHL1   H25 2360   3.516   3.862   3.514 -0.3814 -0.3442 -1.0143
   32CHL1   C26 2361   3.335   3.944   3.597  0.3141 -0.5316 -0.1484
   32CHL1  H26A 2362   3.378   4.038   3.637  1.6806 -1.3485  0.3991
   32CHL1  H26B 2363   3.304   3.970   3.494 -0.3158  0.9645  0.3936
   32CHL1  H26C 2364   3.250   3.910   3.660 -0.7767  0.9920 -0.7510
   32CHL1   C27 2365   3.514   3.824   3.731  0.2567 -0.0429 -0.0932
   32CHL1  H27A 2366   3.434   3.817   3.808  0.2155  0.6884 -0.0656
   32CHL1  H27B 2367   3.566   3.727   3.745 -1.8561 -1.3298 -0.6561
   32CHL1  H27C 2368   3.588   3.901   3.760  2.1823 -2.7411  2.7685
   33CHL1    C3 2369   2.275   0.114   2.986  0.5116 -0.2008  0.1133
   33CHL1    H3 2370   2.326   0.211   2.970  0.6240 -0.2607  0.0996
   33CHL1    O3 2371   2.241   0.060   2.857 -0.6346  0.2852 -0.0179
   33CHL1   H3' 2372   2.189  -0.018   2.876  0.6993 -0.8659 -0.8843
   33CHL1    C4 2373   2.362   0.013   3.056  0.6574  0.7049  0.3672
   33CHL1   H4A 2374   2.293  -0.069   3.085 -0.9123  1.8426  0.0163
   33CHL1   H4B 2375   2.436  -0.031   2.987  0.0617 -0.7294  0.6199
   33CHL1    C5 2376   2.418   0.066   3.181  0.0393 -0.0651 -1.5379
   33CHL1    C6 2377   2.551   0.074   3.214 -0.4089  0.3604  0.5097
   33CHL1    H6 2378   2.632   0.044   3.146  2.0429  2.0593  2.4955
   33CHL1    C7 2379   2.602   0.123   3.347  0.8541 -0.4052  0.1295
   33CHL1   H7A 2380   2.675   0.051   3.391  0.2969 -2.3659 -1.9311
   33CHL1   H7B 2381   2.664   0.214   3.331  1.3223 -0.6058  0.7796
   33CHL1    C8 2382   2.491   0.147   3.450 -0.4729  0.2184  0.0417
   33CHL1    H8 2383   2.456   0.050   3.491  0.6496  0.4153  1.5558
   33CHL1   C14 2384   2.538   0.228   3.577  0.5392  0.2465  0.0008
   33CHL1   H14 2385   2.581   0.324   3.540  2.6566  0.8956  3.6788
   33CHL1   C15 2386   2.663   0.157   3.649  0.1195 -0.1104  0.0354
   33CHL1  H15A 2387   2.648   0.047   3.641  0.3913 -0.0702 -1.2839
   33CHL1  H15B 2388   2.758   0.179   3.595 -0.0286 -2.8747 -1.5243
   33CHL1   C16 2389   2.653   0.216   3.794 -0.0469 -0.1383 -1.0644
   33CHL1  H16A 2390   2.626   0.140   3.870 -1.0384  0.9959 -0.2544
   33CHL1  H16B 2391   2.753   0.253   3.823  0.4367 -0.6788 -1.9957
   33CHL1   C17 2392   2.536   0.318   3.785  0.1078  0.5311  0.1148
   33CHL1   H17 2393   2.573   0.414   3.745 -1.1371  1.3144  0.7698
   33CHL1   C13 2394   2.437   0.260   3.679  0.1834  0.3891  1.1185
   33CHL1   C18 2395   2.367   0.131   3.736 -0.0251 -0.1228  0.0342
   33CHL1  H18A 2396   2.440   0.053   3.764 -0.3324 -0.2026  0.6118
   33CHL1  H18B 2397   2.308   0.166   3.823  0.6786  1.8874 -0.2323
   33CHL1  H18C 2398   2.305   0.080   3.659 -1.5478  2.4425 -0.5569
   33CHL1   C12 2399   2.343   0.365   3.605 -0.1382  0.3073  0.4634
   33CHL1  H12A 2400   2.261   0.398   3.672 -0.5065 -1.2976  0.8524
   33CHL1  H12B 2401   2.410   0.447   3.575  0.9253 -0.1540  1.4954
   33CHL1   C11 2402   2.273   0.280   3.489  0.2425 -0.3786 -0.5822
   33CHL1  H11A 2403   2.207   0.201   3.532  1.4237 -1.0188  0.1150
   33CHL1  H11B 2404   2.211   0.358   3.440 -1.3849  0.4843  2.5517
   33CHL1    C9 2405   2.371   0.220   3.381 -0.2185 -0.9664 -1.0233
   33CHL1    H9 2406   2.412   0.313   3.337 -0.7275 -0.1605  0.1557
   33CHL1   C10 2407   2.303   0.129   3.278  0.0573 -0.3504 -0.2300
   33CHL1   C19 2408   2.232   0.014   3.351  0.2708 -0.2840  0.4891
   33CHL1  H19A 2409   2.186  -0.049   3.271  2.5981  0.1370 -1.2865
   33CHL1  H19B 2410   2.292  -0.057   3.412  0.9215 -0.6649 -0.5661
   33CHL1  H19C 2411   2.145   0.052   3.409  0.5654  0.8590  0.1914
   33CHL1    C1 2412   2.200   0.213   3.204 -0.0049 -0.6288  0.0723
   33CHL1   H1A 2413   2.118   0.243   3.273 -0.3550  0.7318 -0.8894
   33CHL1   H1B 2414   2.255   0.305   3.176 -1.0176  0.0654  0.2973
   33CHL1    C2 2415   2.149   0.146   3.071  0.0643 -0.3791  0.3201
   33CHL1   H2A 2416   2.071   0.206   3.020 -0.4087 -1.6303 -0.4796
   33CHL1   H2B 2417   2.097   0.049   3.087 -0.5937 -0.5377 -2.3499
   33CHL1   C20 2418   2.481   0.345   3.927 -0.9053 -0.0457  0.4335
   33CHL1   H20 2419   2.448   0.250   3.974  1.5946 -1.1549  0.0958
   33CHL1   C21 2420   2.369   0.442   3.908 -0.0387 -0.2984  0.6452
   33CHL1  H21A 2421   2.323   0.478   4.003  0.3549  0.8838  0.4029
   33CHL1  H21B 2422   2.283   0.385   3.866 -0.5679  0.5793  0.4997
   33CHL1  H21C 2423   2.385   0.531   3.843  1.0439 -1.7556 -1.1587
   33CHL1   C22 2424   2.584   0.412   4.021  0.8882  0.5077  1.2322
   33CHL1  H22A 2425   2.680   0.356   4.023  0.8458  0.3629 -0.1293
   33CHL1  H22B 2426   2.615   0.510   3.979  1.4713 -0.2455 -0.1434
   33CHL1   C23 2427   2.544   0.416   4.168 -0.0369 -0.1090  0.6870
   33CHL1  H23A 2428   2.435   0.438   4.165 -0.3226 -1.5062 -0.0552
   33CHL1  H23B 2429   2.553   0.315   4.213  0.7187 -0.9226 -1.1971
   33CHL1   C24 2430   2.629   0.519   4.254  0.5378 -0.0355 -0.2227
   33CHL1  H24A 2431   2.727   0.483   4.292  0.3315 -1.6274 -1.1203
   33CHL1  H24B 2432   2.652   0.605   4.187  1.2775 -0.3975 -0.4485
   33CHL1   C25 2433   2.545   0.572   4.374  0.0055 -0.0128  0.5940
   33CHL1   H25 2434   2.452   0.625   4.342  0.3652  2.9037  3.7639
   33CHL1   C26 2435   2.506   0.464   4.473  0.0328 -0.3542  0.7841
   33CHL1  H26A 2436   2.586   0.390   4.496  1.4072  0.0126 -2.2859
   33CHL1  H26B 2437   2.466   0.516   4.563 -1.5167  0.7256 -0.4776
   33CHL1  H26C 2438   2.418   0.407   4.438  0.6707 -0.8932  0.0118
   33CHL1   C27 2439   2.626   0.680   4.453 -0.0331  0.4423  0.0127
   33CHL1  H27A 2440   2.561   0.718   4.535  1.2856 -0.7445  1.7050
   33CHL1  H27B 2441   2.723   0.645   4.495  1.7134  1.0773 -3.2131
   33CHL1  H27C 2442   2.653   0.766   4.388 -2.0987  1.8001  0.8630
   34CHL1    C3 2443   4.874   6.083   2.744  0.3220  0.0941 -0.0550
   34CHL1    H3 2444   4.813   6.175   2.752 -0.2539 -0.2952  0.0801
   34CHL1    O3 2445   4.873   6.034   2.618 -0.9843 -0.1081  0.0125
   34CHL1   H3' 2446   4.918   5.949   2.619 -3.1481 -1.4254 -2.2131
   34CHL1    C4 2447   5.013   6.095   2.797 -0.1469 -0.2330 -0.1423
   34CHL1   H4A 2448   5.061   5.995   2.797 -2.4495 -1.4321  1.5656
   34CHL1   H4B 2449   5.073   6.161   2.731  0.9610 -0.5780  0.4941
   34CHL1    C5 2450   5.017   6.154   2.938  0.0851  0.6437 -0.0468
   34CHL1    C6 2451   5.088   6.262   2.967  0.5533 -0.2847  0.2796
   34CHL1    H6 2452   5.153   6.306   2.890  0.9279  2.1064  1.8586
   34CHL1    C7 2453   5.095   6.318   3.107  0.2071 -0.4754 -0.1908
   34CHL1   H7A 2454   5.194   6.357   3.140  0.1498 -0.6005  0.1288
   34CHL1   H7B 2455   5.037   6.413   3.104 -1.4681 -1.4830 -0.6850
   34CHL1    C8 2456   5.036   6.225   3.214  0.6114  0.8086 -0.3040
   34CHL1    H8 2457   5.108   6.143   3.238 -1.1675 -0.3627  1.3272
   34CHL1   C14 2458   5.013   6.307   3.340 -1.1952  0.4242 -0.1065
   34CHL1   H14 2459   4.923   6.368   3.317 -2.5460 -1.7461 -0.7699
   34CHL1   C15 2460   5.127   6.405   3.391 -0.6553  0.2095  0.0477
   34CHL1  H15A 2461   5.232   6.370   3.377  0.4864  1.7014  3.5469
   34CHL1  H15B 2462   5.114   6.499   3.335  0.9556  1.3174  1.4232
   34CHL1   C16 2463   5.084   6.427   3.538 -0.5931 -0.1655 -0.3258
   34CHL1  H16A 2464   5.163   6.397   3.610 -1.4769 -1.0177  0.3077
   34CHL1  H16B 2465   5.055   6.534   3.545  0.1246  0.4422 -4.1376
   34CHL1   C17 2466   4.963   6.339   3.563  0.2407 -0.1551 -0.3462
   34CHL1   H17 2467   4.880   6.403   3.525  0.0308 -0.4929 -0.4635
   34CHL1   C13 2468   4.974   6.229   3.456  0.3113 -0.2429  0.6209
   34CHL1   C18 2469   5.072   6.126   3.514 -0.4515 -0.0467 -0.0702
   34CHL1  H18A 2470   5.159   6.188   3.544 -1.3567  2.2984 -1.9940
   34CHL1  H18B 2471   5.038   6.077   3.608  3.4027  2.0458  2.7443
   34CHL1  H18C 2472   5.104   6.046   3.444  0.9891  0.7913 -0.4299
   34CHL1   C12 2473   4.839   6.162   3.426 -0.2727  0.0619  1.5101
   34CHL1  H12A 2474   4.824   6.086   3.507  3.2898 -2.5295  0.0068
   34CHL1  H12B 2475   4.761   6.240   3.412  0.4093  0.9448  2.4877
   34CHL1   C11 2476   4.854   6.077   3.292  0.2136  0.4682 -0.1625
   34CHL1  H11A 2477   4.922   5.994   3.319 -3.3452 -2.4063  0.8144
   34CHL1  H11B 2478   4.760   6.024   3.265  0.6827  0.6780 -2.4169
   34CHL1    C9 2479   4.906   6.154   3.169 -0.5092 -0.7015  0.5215
   34CHL1    H9 2480   4.838   6.236   3.138 -0.4329 -0.4404  1.0148
   34CHL1   C10 2481   4.932   6.072   3.041 -0.3372 -0.3494  0.1991
   34CHL1   C19 2482   4.996   5.932   3.069  0.2638 -0.3728 -0.8836
   34CHL1  H19A 2483   5.020   5.874   2.977  0.5287 -0.1112 -0.9814
   34CHL1  H19B 2484   5.081   5.951   3.138 -1.4503  0.8272  1.0265
   34CHL1  H19C 2485   4.928   5.868   3.128 -0.9148  0.5265 -1.2372
   34CHL1    C1 2486   4.793   6.055   2.967 -1.1979 -0.2714 -0.2929
   34CHL1   H1A 2487   4.724   6.003   3.037 -0.5136  2.8226  2.9659
   34CHL1   H1B 2488   4.746   6.155   2.961  0.3153  0.4232 -0.9823
   34CHL1    C2 2489   4.792   5.987   2.827 -0.1977  0.3757 -0.8380
   34CHL1   H2A 2490   4.690   5.981   2.784 -0.5621  1.4710 -0.1598
   34CHL1   H2B 2491   4.839   5.887   2.832 -0.6887  0.2020  0.5276
   34CHL1   C20 2492   4.948   6.302   3.710 -0.3439  0.2594 -0.9819
   34CHL1   H20 2493   5.029   6.233   3.740 -1.7717 -1.0620 -0.0196
   34CHL1   C21 2494   4.808   6.230   3.739  0.4420 -0.2400 -0.0130
   34CHL1  H21A 2495   4.726   6.295   3.704  2.0053  1.4415 -0.7143
   34CHL1  H21B 2496   4.781   6.198   3.842  0.9922 -2.7354 -0.5728
   34CHL1  H21C 2497   4.803   6.131   3.689 -0.6958 -1.0871  1.6783
   34CHL1   C22 2498   4.961   6.428   3.798  0.2766 -0.7147  0.3557
   34CHL1  H22A 2499   5.052   6.491   3.789  0.8128 -1.6636 -1.3652
   34CHL1  H22B 2500   4.865   6.483   3.784 -0.1537 -1.4461  0.3923
   34CHL1   C23 2501   4.953   6.375   3.949  0.7218  0.3698  0.2644
   34CHL1  H23A 2502   4.859   6.322   3.975 -0.2962  1.4601 -1.0184
   34CHL1  H23B 2503   5.037   6.305   3.973  0.8978  0.3658 -0.3235
   34CHL1   C24 2504   4.967   6.495   4.054  0.0181  0.2129 -0.1461
   34CHL1  H24A 2505   5.059   6.552   4.028 -0.5513  1.9870  1.4684
   34CHL1  H24B 2506   4.882   6.567   4.044 -0.0623  0.4226  1.6697
   34CHL1   C25 2507   4.983   6.445   4.200 -0.3512 -0.2240 -0.1423
   34CHL1   H25 2508   5.077   6.387   4.189  0.5063  0.6629  2.0287
   34CHL1   C26 2509   5.015   6.558   4.298 -0.0187  0.3039  0.5416
   34CHL1  H26A 2510   4.939   6.639   4.292  0.5204  0.7733 -0.1244
   34CHL1  H26B 2511   5.027   6.515   4.399  0.2846 -0.6223  0.1193
   34CHL1  H26C 2512   5.115   6.600   4.275 -0.4818  0.5837 -1.1318
   34CHL1   C27 2513   4.872   6.361   4.253 -0.3076 -0.0882 -0.4380
   34CHL1  H27A 2514   4.856   6.267   4.195  1.8490 -1.1069  0.4808
   34CHL1  H27B 2515   4.905   6.320   4.351  0.2289  0.9850 -0.1566
   34CHL1  H27C 2516   4.785   6.426   4.275 -0.5425 -0.9611  1.4032
   35CHL1    C3 2517   1.748   0.379   2.952 -0.0576  0.3618  0.1528
   35CHL1    H3 2518   1.856   0.352   2.947  0.4779  2.1312  1.1623
   35CHL1    O3 2519   1.698   0.388   2.818  0.0408 -0.2897 -0.6755
   35CHL1   H3' 2520   1.660   0.476   2.816  0.3518  0.1285  3.5903
   35CHL1    C4 2521   1.672   0.271   3.018  0.4077 -0.7611 -0.2532
   35CHL1   H4A 2522   1.572   0.320   3.029  0.3888 -0.5881 -1.1292
   35CHL1   H4B 2523   1.664   0.186   2.947  2.4200 -0.6718 -0.6556
   35CHL1    C5 2524   1.720   0.244   3.158 -0.7860 -0.1184  0.6005
   35CHL1    C6 2525   1.777   0.129   3.200  0.4705 -0.7998 -0.8651
   35CHL1    H6 2526   1.786   0.051   3.123  1.1976 -0.1965 -1.4044
   35CHL1    C7 2527   1.837   0.099   3.336 -0.5720 -0.0349  0.3042
   35CHL1   H7A 2528   1.794   0.006   3.378  1.5392 -0.5763  1.3720
   35CHL1   H7B 2529   1.946   0.079   3.333 -0.6637 -0.5982  0.6223
   35CHL1    C8 2530   1.807   0.211   3.436  0.4340  0.0621 -0.5138
   35CHL1    H8 2531   1.704   0.184   3.468  0.1299  0.6281 -0.9927
   35CHL1   C14 2532   1.890   0.201   3.562  0.2782 -0.5256  0.2551
   35CHL1   H14 2533   1.995   0.221   3.532  0.6183 -0.3934  1.4926
   35CHL1   C15 2534   1.899   0.061   3.625 -0.1824 -0.5357  0.0731
   35CHL1  H15A 2535   1.808  -0.004   3.621 -0.9695  0.5318  0.2431
   35CHL1  H15B 2536   1.973  -0.005   3.575  0.7432  0.9588 -0.5830
   35CHL1   C16 2537   1.954   0.104   3.762 -0.1482  0.9452  0.0452
   35CHL1  H16A 2538   1.891   0.058   3.841 -1.0019 -1.9614 -2.1382
   35CHL1  H16B 2539   2.054   0.057   3.764  0.0036  1.2184 -0.7109
   35CHL1   C17 2540   1.955   0.262   3.779 -0.0073  0.1811  0.8140
   35CHL1   H17 2541   2.058   0.284   3.745  0.4910 -2.5781  0.2357
   35CHL1   C13 2542   1.863   0.305   3.669  0.0809  0.1788  0.3861
   35CHL1   C18 2543   1.716   0.296   3.729  0.4318 -0.2311 -0.0088
   35CHL1  H18A 2544   1.631   0.309   3.658  0.9103 -1.5539 -0.8745
   35CHL1  H18B 2545   1.709   0.202   3.787  1.7722 -0.6048 -0.4163
   35CHL1  H18C 2546   1.692   0.384   3.793 -0.6090 -0.9198  0.5758
   35CHL1   C12 2547   1.896   0.445   3.597 -0.0014  0.1627 -1.0644
   35CHL1  H12A 2548   1.867   0.529   3.663 -0.8493 -1.2624  0.4614
   35CHL1  H12B 2549   2.003   0.443   3.568  0.7021 -1.4572  1.3437
   35CHL1   C11 2550   1.789   0.470   3.483  0.1529  0.0938 -0.5088
   35CHL1  H11A 2551   1.685   0.480   3.520 -0.0373 -0.2477 -0.9487
   35CHL1  H11B 2552   1.818   0.569   3.442  1.7183  0.8259  2.1354
   35CHL1    C9 2553   1.815   0.353   3.376 -0.2305 -0.4102  0.8437
   35CHL1    H9 2554   1.918   0.361   3.337 -0.3443 -1.8243  0.2097
   35CHL1   C10 2555   1.720   0.372   3.243  0.8005 -0.2680  0.0586
   35CHL1   C19 2556   1.573   0.396   3.297 -0.0497 -0.2710  0.5269
   35CHL1  H19A 2557   1.505   0.404   3.210  1.9771 -1.1752 -1.2466
   35CHL1  H19B 2558   1.546   0.309   3.361  0.3801 -0.1332  0.9019
   35CHL1  H19C 2559   1.558   0.490   3.354  0.7466 -1.3639  2.7048
   35CHL1    C1 2560   1.775   0.504   3.177 -0.6432  0.0561 -0.3000
   35CHL1   H1A 2561   1.718   0.588   3.222 -0.6158  0.9598 -1.8764
   35CHL1   H1B 2562   1.883   0.514   3.198 -0.2591 -2.9216 -0.4823
   35CHL1    C2 2563   1.736   0.512   3.030 -0.0567  0.0801 -0.6444
   35CHL1   H2A 2564   1.808   0.582   2.982 -0.6771  1.0063 -0.2272
   35CHL1   H2B 2565   1.636   0.557   3.013  0.2988  0.6500 -1.2945
   35CHL1   C20 2566   1.931   0.314   3.924  0.1137 -0.7604 -0.2016
   35CHL1   H20 2567   1.832   0.286   3.966  0.3331  1.9289  2.3979
   35CHL1   C21 2568   1.948   0.466   3.924  0.1174 -0.4607  0.3217
   35CHL1  H21A 2569   1.937   0.511   4.025  0.4712  1.8672 -0.6242
   35CHL1  H21B 2570   1.865   0.506   3.862  1.5257 -0.9396 -1.9822
   35CHL1  H21C 2571   2.045   0.499   3.882  0.8021  0.6749  2.6646
   35CHL1   C22 2572   2.035   0.256   4.023 -0.3903 -0.0037  0.7557
   35CHL1  H22A 2573   2.032   0.147   4.001  1.9884  0.1239 -0.5247
   35CHL1  H22B 2574   2.129   0.287   3.971  0.1460 -0.9218  1.1585
   35CHL1   C23 2575   2.022   0.282   4.177  0.7390  0.0950 -0.0220
   35CHL1  H23A 2576   2.042   0.389   4.202 -0.8165  0.0866  1.4724
   35CHL1  H23B 2577   1.925   0.249   4.220  1.7564 -0.7608  1.7522
   35CHL1   C24 2578   2.126   0.208   4.263  0.1975 -0.6642 -0.4929
   35CHL1  H24A 2579   2.104   0.100   4.263 -0.2668 -0.5728 -1.1289
   35CHL1  H24B 2580   2.220   0.231   4.209 -0.2152  0.2784 -0.8313
   35CHL1   C25 2581   2.128   0.254   4.419  0.0953 -0.8784  0.0895
   35CHL1   H25 2582   2.026   0.229   4.457 -0.2503 -1.3675 -1.1168
   35CHL1   C26 2583   2.252   0.185   4.477 -0.1541 -0.4741 -0.9152
   35CHL1  H26A 2584   2.258   0.074   4.480  1.0675 -0.4850 -2.5293
   35CHL1  H26B 2585   2.343   0.216   4.421  0.5899 -1.0755 -0.0723
   35CHL1  H26C 2586   2.275   0.220   4.580  0.3835 -1.9017 -0.5270
   35CHL1   C27 2587   2.134   0.407   4.431 -0.2928 -0.0954 -1.0211
   35CHL1  H27A 2588   2.164   0.440   4.533 -0.3624  1.5340 -1.4945
   35CHL1  H27B 2589   2.220   0.440   4.369 -1.0022  1.1565 -1.3783
   35CHL1  H27C 2590   2.041   0.466   4.410 -0.5896 -0.2154 -0.0928
   36CHL1    C3 2591   4.021   1.601   2.351  0.8963 -0.6435 -0.1710
   36CHL1    H3 2592   3.953   1.686   2.331  1.8616  0.0778 -0.4533
   36CHL1    O3 2593   4.056   1.551   2.223 -0.3990  0.1926  0.4124
   36CHL1   H3' 2594   4.022   1.461   2.223  0.4759 -0.1478  0.1764
   36CHL1    C4 2595   4.148   1.651   2.427 -0.0882 -0.4016 -0.3064
   36CHL1   H4A 2596   4.227   1.574   2.414 -2.1404 -2.4679 -1.2328
   36CHL1   H4B 2597   4.173   1.737   2.361  2.2830 -0.6850  0.1539
   36CHL1    C5 2598   4.128   1.700   2.568 -0.4677 -0.6533 -0.6468
   36CHL1    C6 2599   4.155   1.827   2.608 -0.2525 -0.0907 -0.3851
   36CHL1    H6 2600   4.191   1.908   2.544  0.6912 -0.9978 -1.0226
   36CHL1    C7 2601   4.118   1.875   2.747 -0.4540  0.0559 -1.0110
   36CHL1   H7A 2602   4.195   1.952   2.770 -0.7908 -0.1681  1.0083
   36CHL1   H7B 2603   4.018   1.923   2.750 -0.2702  0.3899 -0.1254
   36CHL1    C8 2604   4.106   1.752   2.846 -0.8126 -0.9164 -0.4490
   36CHL1    H8 2605   4.207   1.706   2.857 -1.4254 -2.0798  0.5661
   36CHL1   C14 2606   4.072   1.789   2.989 -0.2655 -0.6003  0.2746
   36CHL1   H14 2607   3.974   1.842   2.989 -0.0593 -0.2137  0.8808
   36CHL1   C15 2608   4.160   1.890   3.065 -0.8335 -0.7961 -0.3063
   36CHL1  H15A 2609   4.269   1.874   3.051 -0.0244 -0.0699  3.8820
   36CHL1  H15B 2610   4.134   1.989   3.023 -2.4943 -1.2558 -0.4434
   36CHL1   C16 2611   4.126   1.873   3.218  0.5905  0.1263  0.4066
   36CHL1  H16A 2612   4.218   1.838   3.269  0.6212  1.0534  1.0056
   36CHL1  H16B 2613   4.095   1.965   3.272  2.1719  0.1352  1.3557
   36CHL1   C17 2614   4.030   1.749   3.220 -0.5765 -0.3323  0.7274
   36CHL1   H17 2615   3.926   1.788   3.214 -0.4374 -0.1317 -0.9565
   36CHL1   C13 2616   4.053   1.678   3.084 -0.4087  0.4110 -0.5580
   36CHL1   C18 2617   4.184   1.587   3.100  0.8487 -0.4312 -0.7697
   36CHL1  H18A 2618   4.268   1.647   3.140 -2.1501  2.4955  1.8023
   36CHL1  H18B 2619   4.166   1.510   3.178  1.1130  0.8837  0.6477
   36CHL1  H18C 2620   4.216   1.539   3.005 -0.6088  1.1126 -2.1104
   36CHL1   C12 2621   3.938   1.592   3.030 -0.4118 -1.1513 -0.3301
   36CHL1  H12A 2622   3.922   1.507   3.099  0.1408 -2.2203 -1.4810
   36CHL1  H12B 2623   3.842   1.648   3.035 -0.4263 -1.2064  0.0302
   36CHL1   C11 2624   3.974   1.539   2.888 -0.4884  0.1685 -0.8287
   36CHL1  H11A 2625   4.051   1.459   2.899  0.2281  1.0344  0.6993
   36CHL1  H11B 2626   3.881   1.490   2.853 -1.4804  1.6672 -0.4025
   36CHL1    C9 2627   4.014   1.650   2.791  0.4610 -0.1905 -0.4323
   36CHL1    H9 2628   3.921   1.708   2.772  0.9617  0.3502 -1.3123
   36CHL1   C10 2629   4.060   1.597   2.657  0.1735 -0.4496  0.2849
   36CHL1   C19 2630   4.170   1.491   2.680 -0.6372 -0.1633 -0.3318
   36CHL1  H19A 2631   4.139   1.397   2.729 -0.5464 -0.4906 -0.8848
   36CHL1  H19B 2632   4.210   1.456   2.582 -0.5182 -1.7413  0.2489
   36CHL1  H19C 2633   4.247   1.540   2.743  0.6026 -0.4520 -1.5682
   36CHL1    C1 2634   3.933   1.536   2.589 -0.2652 -0.6408 -0.3399
   36CHL1   H1A 2635   3.910   1.444   2.646  1.9765 -1.0129  0.0729
   36CHL1   H1B 2636   3.847   1.605   2.577  0.3536 -0.1561 -2.5644
   36CHL1    C2 2637   3.950   1.490   2.438 -1.2827 -0.1440 -0.3814
   36CHL1   H2A 2638   3.849   1.473   2.394 -0.4178 -0.5023 -2.3237
   36CHL1   H2B 2639   4.012   1.399   2.451 -2.2794 -0.6506  1.1932
   36CHL1   C20 2640   4.051   1.677   3.354 -0.3701 -0.1023 -0.5997
   36CHL1   H20 2641   4.150   1.627   3.361 -0.0655  0.6163  0.3427
   36CHL1   C21 2642   3.952   1.557   3.367  0.5263  0.0841  0.0756
   36CHL1  H21A 2643   3.848   1.595   3.377 -0.6855 -2.9183 -0.0118
   36CHL1  H21B 2644   3.980   1.508   3.462  1.5162  0.9405  0.2507
   36CHL1  H21C 2645   3.963   1.487   3.281 -1.1387 -0.5572  0.3471
   36CHL1   C22 2646   4.036   1.769   3.476  0.6172 -0.2007  0.5180
   36CHL1  H22A 2647   4.047   1.711   3.569  1.3644  0.9729  1.1959
   36CHL1  H22B 2648   4.128   1.831   3.470  1.2211 -1.0535  0.8327
   36CHL1   C23 2649   3.910   1.860   3.489 -0.1181  0.2974 -0.0483
   36CHL1  H23A 2650   3.904   1.932   3.405 -3.7223  2.5511  1.8774
   36CHL1  H23B 2651   3.816   1.802   3.475 -0.2407  0.8048 -1.4530
   36CHL1   C24 2652   3.913   1.948   3.615  0.2849 -0.5875  0.0122
   36CHL1  H24A 2653   3.927   1.879   3.701  0.4288 -2.3883 -1.3833
   36CHL1  H24B 2654   4.005   2.009   3.609 -0.2863  0.2310 -0.7872
   36CHL1   C25 2655   3.792   2.044   3.627 -0.7131 -0.5380 -0.2368
   36CHL1   H25 2656   3.801   2.100   3.531 -2.9348  0.5255  0.1149
   36CHL1   C26 2657   3.649   1.990   3.648  0.1463 -0.5563  0.2463
   36CHL1  H26A 2658   3.629   1.943   3.550 -0.0456  0.1120 -0.0411
   36CHL1  H26B 2659   3.646   1.916   3.731  1.8749 -0.2145  0.6556
   36CHL1  H26C 2660   3.582   2.078   3.663 -1.8251 -1.8506 -0.5998
   36CHL1   C27 2661   3.827   2.159   3.727  0.0065 -0.4705  0.3580
   36CHL1  H27A 2662   3.915   2.209   3.682 -0.2161 -2.7401 -2.9467
   36CHL1  H27B 2663   3.736   2.222   3.731 -1.2016 -1.9657 -1.5721
   36CHL1  H27C 2664   3.848   2.119   3.828  0.8375  0.8282  0.7197
   37CHL1    C3 2665   0.910   3.548   5.108  0.6011 -0.6654  0.4989
   37CHL1    H3 2666   0.812   3.497   5.116 -0.2938  1.1996  2.3796
   37CHL1    O3 2667   1.009   3.456   5.158 -0.0489 -0.1297  0.4525
   37CHL1   H3' 2668   1.085   3.512   5.175  0.9320 -0.6557 -1.7725
   37CHL1    C4 2669   0.935   3.578   4.959 -0.2169 -0.6499 -0.4094
   37CHL1   H4A 2670   1.038   3.615   4.938 -1.6323  3.3771 -1.1777
   37CHL1   H4B 2671   0.930   3.483   4.902  0.0188 -1.0364  0.2003
   37CHL1    C5 2672   0.843   3.686   4.906 -0.1700  0.1614 -0.4512
   37CHL1    C6 2673   0.777   3.662   4.787  0.2549  0.6111  0.1288
   37CHL1    H6 2674   0.784   3.571   4.725 -0.4274  0.0984  0.7878
   37CHL1    C7 2675   0.688   3.766   4.727  0.1503 -0.6940  0.1050
   37CHL1   H7A 2676   0.700   3.771   4.616 -0.2922  0.4804  0.1014
   37CHL1   H7B 2677   0.579   3.753   4.744  0.1189  0.5728  0.9451
   37CHL1    C8 2678   0.713   3.915   4.775 -0.3179  0.0283 -0.5264
   37CHL1    H8 2679   0.802   3.960   4.725  0.2340  0.0377  0.4297
   37CHL1   C14 2680   0.589   4.001   4.728  0.6718  0.4468 -0.2795
   37CHL1   H14 2681   0.502   3.969   4.788 -0.7093  2.3149 -1.1932
   37CHL1   C15 2682   0.538   3.994   4.579  0.8514  0.1842 -0.1258
   37CHL1  H15A 2683   0.627   3.978   4.514 -0.0312  3.4641 -2.4057
   37CHL1  H15B 2684   0.480   3.902   4.554  0.7480  0.6272 -1.6318
   37CHL1   C16 2685   0.467   4.128   4.556 -0.0257 -0.0705  0.0037
   37CHL1  H16A 2686   0.533   4.174   4.480  1.1723 -2.9785 -0.8779
   37CHL1  H16B 2687   0.361   4.113   4.526 -0.3109 -0.9062  1.3329
   37CHL1   C17 2688   0.478   4.207   4.692 -0.0579 -0.1158 -0.5557
   37CHL1   H17 2689   0.396   4.172   4.759  1.8468 -0.1047  1.9048
   37CHL1   C13 2690   0.608   4.149   4.766 -0.2389  0.3346  0.0292
   37CHL1   C18 2691   0.731   4.206   4.693 -0.3694 -0.3354 -0.6898
   37CHL1  H18A 2692   0.748   4.172   4.589 -1.7880 -0.9078 -0.7594
   37CHL1  H18B 2693   0.730   4.317   4.696 -0.3166 -0.2824 -2.2154
   37CHL1  H18C 2694   0.822   4.172   4.747 -0.0374  0.6006 -0.6531
   37CHL1   C12 2695   0.618   4.140   4.926 -0.6347  0.0084 -0.1904
   37CHL1  H12A 2696   0.616   4.245   4.961  0.1334 -0.3322  0.9139
   37CHL1  H12B 2697   0.524   4.090   4.958 -0.6435 -0.8196 -1.4141
   37CHL1   C11 2698   0.735   4.062   4.980 -0.0161 -0.2524 -0.6166
   37CHL1  H11A 2699   0.829   4.109   4.945 -1.7576  2.1026 -2.4318
   37CHL1  H11B 2700   0.731   4.046   5.090 -2.8999 -2.1181 -0.8753
   37CHL1    C9 2701   0.728   3.916   4.929  0.6798  0.9132  0.6024
   37CHL1    H9 2702   0.636   3.870   4.971 -0.7316  4.4558  1.7231
   37CHL1   C10 2703   0.839   3.821   4.977  0.3270  0.0456 -1.2242
   37CHL1   C19 2704   0.975   3.895   4.971  0.3030 -0.1165 -0.3251
   37CHL1  H19A 2705   0.996   3.931   4.869  0.0724 -1.0014 -0.6998
   37CHL1  H19B 2706   0.976   3.988   5.032 -0.1591 -0.9353  0.9865
   37CHL1  H19C 2707   1.056   3.826   5.004  0.0918 -0.8652 -1.3130
   37CHL1    C1 2708   0.808   3.780   5.133 -0.4530  0.1184 -0.4050
   37CHL1   H1A 2709   0.807   3.872   5.194  1.0313  1.7046 -2.6322
   37CHL1   H1B 2710   0.707   3.736   5.142  0.4650 -1.8582  1.0656
   37CHL1    C2 2711   0.905   3.676   5.197 -0.3312 -0.0477  0.3349
   37CHL1   H2A 2712   0.867   3.645   5.297 -0.2364  0.1592  0.4363
   37CHL1   H2B 2713   1.005   3.721   5.211 -0.2465 -0.1878  0.1739
   37CHL1   C20 2714   0.466   4.362   4.671 -0.0058 -0.0712 -0.6255
   37CHL1   H20 2715   0.559   4.388   4.616  0.7046  0.8241  0.9304
   37CHL1   C21 2716   0.460   4.441   4.806 -0.4788  0.1717  0.1967
   37CHL1  H21A 2717   0.455   4.550   4.790  0.4322  0.1588 -0.2821
   37CHL1  H21B 2718   0.547   4.434   4.875 -0.6865  0.7906  0.5251
   37CHL1  H21C 2719   0.376   4.405   4.869  1.2537 -2.5261  1.1778
   37CHL1   C22 2720   0.355   4.415   4.561 -0.1938 -0.1126 -0.1568
   37CHL1  H22A 2721   0.377   4.384   4.456  1.7038  2.3618 -0.5997
   37CHL1  H22B 2722   0.263   4.364   4.595 -0.1533 -2.6732 -3.4217
   37CHL1   C23 2723   0.338   4.575   4.544 -0.0755  0.1727 -0.1429
   37CHL1  H23A 2724   0.296   4.628   4.632 -2.0836  0.9715 -1.5007
   37CHL1  H23B 2725   0.437   4.620   4.524  0.3361 -0.0819  1.2406
   37CHL1   C24 2726   0.232   4.610   4.440  0.0275 -0.3140  0.3779
   37CHL1  H24A 2727   0.279   4.571   4.347  0.0664 -1.6233  0.9238
   37CHL1  H24B 2728   0.131   4.566   4.459  0.6582 -1.6048  0.8477
   37CHL1   C25 2729   0.216   4.758   4.407 -0.2239  0.3630  0.1639
   37CHL1   H25 2730   0.315   4.805   4.390  0.5823 -0.8367  1.2887
   37CHL1   C26 2731   0.133   4.780   4.279 -0.2265 -0.5910  0.1290
   37CHL1  H26A 2732   0.179   4.737   4.188 -0.7073  0.3455 -0.5739
   37CHL1  H26B 2733   0.033   4.733   4.287 -1.1199  0.3545 -3.7297
   37CHL1  H26C 2734   0.121   4.888   4.255 -0.7043 -1.1345 -2.2627
   37CHL1   C27 2735   0.161   4.827   4.526  0.7344  0.2346 -0.6344
   37CHL1  H27A 2736   0.057   4.796   4.552  1.1001 -0.5974 -0.1128
   37CHL1  H27B 2737   0.214   4.817   4.624  0.9771 -1.3315 -0.9126
   37CHL1  H27C 2738   0.149   4.937   4.511 -4.2029  0.2029  1.0750
   38CHL1    C3 2739   4.379   4.962   2.769 -1.0275 -0.4869 -0.0034
   38CHL1    H3 2740   4.269   4.974   2.763 -1.1448 -1.9728 -1.2846
   38CHL1    O3 2741   4.449   4.958   2.640  0.3490  0.4844  0.2499
   38CHL1   H3' 2742   4.542   4.934   2.652 -0.0663 -0.3660  2.1532
   38CHL1    C4 2743   4.433   5.087   2.853  0.2767  0.2877 -0.2783
   38CHL1   H4A 2744   4.543   5.069   2.851  0.3760  0.9103 -2.1017
   38CHL1   H4B 2745   4.404   5.176   2.793 -0.1886  1.6121  1.8179
   38CHL1    C5 2746   4.380   5.095   2.995 -0.0848  0.0558 -0.0073
   38CHL1    C6 2747   4.313   5.199   3.042 -0.1638 -0.6467  0.3788
   38CHL1    H6 2748   4.293   5.291   2.985  1.6869 -1.0356 -1.0097
   38CHL1    C7 2749   4.261   5.209   3.183 -0.1315  0.6469  0.8072
   38CHL1   H7A 2750   4.311   5.295   3.232 -0.2789  0.2242  1.7318
   38CHL1   H7B 2751   4.150   5.216   3.173 -0.1788 -2.0599 -2.1344
   38CHL1    C8 2752   4.310   5.090   3.267  0.4005  0.1327  0.0747
   38CHL1    H8 2753   4.412   5.122   3.296  0.3350 -0.3642  0.8820
   38CHL1   C14 2754   4.224   5.092   3.395  0.3879  0.3596 -0.0225
   38CHL1   H14 2755   4.120   5.076   3.359  0.9915 -2.2132 -0.8701
   38CHL1   C15 2756   4.218   5.220   3.472 -0.2315 -0.0987 -0.3481
   38CHL1  H15A 2757   4.319   5.264   3.482 -0.6279  1.3323 -2.2294
   38CHL1  H15B 2758   4.152   5.293   3.420  0.9624  0.3277 -1.3019
   38CHL1   C16 2759   4.168   5.170   3.609 -0.4797 -0.3796  0.3163
   38CHL1  H16A 2760   4.237   5.208   3.688 -1.6173  1.4380  0.5030
   38CHL1  H16B 2761   4.064   5.208   3.621 -0.4984 -0.0679 -0.7213
   38CHL1   C17 2762   4.169   5.018   3.614 -0.3854  0.3700  0.3639
   38CHL1   H17 2763   4.070   4.982   3.581  1.3802 -5.3846  0.3706
   38CHL1   C13 2764   4.259   4.980   3.493  1.1781  0.8408 -0.5521
   38CHL1   C18 2765   4.407   4.992   3.542  0.8048 -0.2342 -1.4446
   38CHL1  H18A 2766   4.428   5.072   3.617 -1.4118 -2.5601  1.9645
   38CHL1  H18B 2767   4.435   4.899   3.595 -2.5996 -0.0569  0.9857
   38CHL1  H18C 2768   4.482   4.989   3.460  1.6801  1.0689 -0.7367
   38CHL1   C12 2769   4.229   4.852   3.416  0.0561 -0.7887 -0.3909
   38CHL1  H12A 2770   4.242   4.762   3.480  3.0885  0.4684  0.9805
   38CHL1  H12B 2771   4.123   4.845   3.386 -0.5350 -0.0378  1.4081
   38CHL1   C11 2772   4.319   4.838   3.294  0.2361 -0.7433 -0.7712
   38CHL1  H11A 2773   4.422   4.843   3.335 -0.6693  0.6111  1.5109
   38CHL1  H11B 2774   4.291   4.745   3.240  2.0234 -1.2433 -0.9146
   38CHL1    C9 2775   4.297   4.958   3.194  0.5912  0.3368 -1.4973
   38CHL1    H9 2776   4.192   4.942   3.163 -0.5511  0.4199  1.8766
   38CHL1   C10 2777   4.388   4.959   3.067 -1.2574 -0.6808  0.2443
   38CHL1   C19 2778   4.534   4.940   3.126 -0.7179 -0.3210  0.1376
   38CHL1  H19A 2779   4.557   5.023   3.197 -2.5242  0.6412 -0.3254
   38CHL1  H19B 2780   4.557   4.848   3.184  3.4109  0.5860  0.2771
   38CHL1  H19C 2781   4.604   4.945   3.040  0.4614  2.5483  1.1248
   38CHL1    C1 2782   4.349   4.842   2.984  0.0282 -0.0456  0.5605
   38CHL1   H1A 2783   4.365   4.745   3.036 -2.8270 -0.4215  0.8792
   38CHL1   H1B 2784   4.240   4.853   2.968  0.3273  2.9274 -0.0155
   38CHL1    C2 2785   4.415   4.832   2.844  0.8060 -0.4951 -0.2920
   38CHL1   H2A 2786   4.367   4.746   2.793 -0.5452 -0.2699  0.5363
   38CHL1   H2B 2787   4.526   4.832   2.846  0.8904  2.5393  1.7022
   38CHL1   C20 2788   4.187   4.951   3.753 -0.2926 -0.1572 -0.3095
   38CHL1   H20 2789   4.289   4.973   3.791 -1.5089  2.3679  1.8679
   38CHL1   C21 2790   4.165   4.793   3.744 -0.1175 -0.0426  0.1871
   38CHL1  H21A 2791   4.200   4.737   3.834 -2.2248 -0.8466  0.5694
   38CHL1  H21B 2792   4.232   4.751   3.665 -3.7256 -1.3036 -2.4702
   38CHL1  H21C 2793   4.065   4.765   3.704  0.9993  0.0222 -2.8923
   38CHL1   C22 2794   4.093   5.012   3.852  0.2213  0.8511 -0.4275
   38CHL1  H22A 2795   3.998   5.059   3.821  0.1310  0.8471 -0.1612
   38CHL1  H22B 2796   4.055   4.933   3.921  0.9980  2.0996  1.5064
   38CHL1   C23 2797   4.167   5.111   3.948 -0.0666 -0.3951  0.0418
   38CHL1  H23A 2798   4.267   5.075   3.983 -0.3137 -1.2031 -0.0639
   38CHL1  H23B 2799   4.179   5.208   3.895 -1.5663 -0.0165  0.3586
   38CHL1   C24 2800   4.100   5.135   4.094  0.0302  0.9783  0.4795
   38CHL1  H24A 2801   3.990   5.149   4.084 -0.1216 -0.1426  0.4664
   38CHL1  H24B 2802   4.113   5.039   4.149 -1.9879  0.2330 -0.2518
   38CHL1   C25 2803   4.155   5.250   4.182  0.3258 -0.5384  0.0141
   38CHL1   H25 2804   4.155   5.337   4.113 -0.0630 -0.5408  0.0089
   38CHL1   C26 2805   4.076   5.305   4.301  0.7509  0.1335 -0.1565
   38CHL1  H26A 2806   3.969   5.328   4.284  0.7053 -0.0819 -0.1691
   38CHL1  H26B 2807   4.058   5.227   4.378 -4.3508 -0.1287 -1.2599
   38CHL1  H26C 2808   4.121   5.396   4.345 -0.8720  1.0041 -0.2208
   38CHL1   C27 2809   4.295   5.228   4.223 -0.2608  0.4647  0.2068
   38CHL1  H27A 2810   4.367   5.187   4.149  1.7905  0.9687  1.8525
   38CHL1  H27B 2811   4.350   5.317   4.260  0.6234  0.2406 -0.5622
   38CHL1  H27C 2812   4.295   5.158   4.309 -0.8051  1.7547  1.2946
   39CHL1    C3 2813   5.584   5.262   2.982  0.2550 -0.1500  0.1138
   39CHL1    H3 2814   5.568   5.366   3.016 -3.1534  1.0178 -4.0700
   39CHL1    O3 2815   5.570   5.266   2.839 -0.0563  0.1121  0.4400
   39CHL1   H3' 2816   5.600   5.349   2.802  2.0848 -1.1419 -0.8753
   39CHL1    C4 2817   5.715   5.196   3.021  0.5120  0.4942 -0.9174
   39CHL1   H4A 2818   5.708   5.099   2.966 -2.2083 -0.7398  1.3400
   39CHL1   H4B 2819   5.797   5.258   2.979 -0.0790  2.7658  1.0492
   39CHL1    C5 2820   5.731   5.180   3.173  0.0160  0.7690  0.7714
   39CHL1    C6 2821   5.828   5.241   3.244  0.1094  0.1519 -0.7381
   39CHL1    H6 2822   5.911   5.296   3.197  2.0151 -1.9433 -0.0178
   39CHL1    C7 2823   5.834   5.222   3.395  0.3119 -0.1656  0.2309
   39CHL1   H7A 2824   5.942   5.208   3.416  0.4569  1.3983  0.6411
   39CHL1   H7B 2825   5.812   5.318   3.446  0.4250  0.1497 -0.2966
   39CHL1    C8 2826   5.749   5.107   3.451 -0.3892 -0.0926 -0.9074
   39CHL1    H8 2827   5.789   5.007   3.423 -1.3548 -0.1548 -2.1932
   39CHL1   C14 2828   5.738   5.123   3.612 -0.0008 -0.0970 -0.5393
   39CHL1   H14 2829   5.689   5.222   3.627  2.5536  0.8790  2.1821
   39CHL1   C15 2830   5.871   5.129   3.692  0.2252 -0.2967  0.0994
   39CHL1  H15A 2831   5.936   5.045   3.657  1.1447  1.1620 -1.8632
   39CHL1  H15B 2832   5.930   5.222   3.702 -0.2052 -0.1366  1.2184
   39CHL1   C16 2833   5.820   5.097   3.836  0.5005  0.2000  0.5748
   39CHL1  H16A 2834   5.878   5.013   3.881 -1.5368 -1.5581  0.0810
   39CHL1  H16B 2835   5.833   5.192   3.891  1.7486  1.1990 -1.3386
   39CHL1   C17 2836   5.664   5.067   3.827 -0.3186  0.5728  0.2559
   39CHL1   H17 2837   5.598   5.154   3.845 -2.0396 -0.3126 -1.3352
   39CHL1   C13 2838   5.648   5.024   3.682 -0.2774  0.8025  0.4324
   39CHL1   C18 2839   5.699   4.881   3.658 -0.4857  0.2771  0.2214
   39CHL1  H18A 2840   5.708   4.857   3.550  0.2167  0.9616  0.1241
   39CHL1  H18B 2841   5.802   4.867   3.698 -0.5779  0.7704  0.6352
   39CHL1  H18C 2842   5.624   4.817   3.710 -0.6453  0.1544 -0.1540
   39CHL1   C12 2843   5.506   5.042   3.617  0.4248 -0.5617 -0.2554
   39CHL1  H12A 2844   5.443   4.960   3.659  2.5142 -0.2340  4.0938
   39CHL1  H12B 2845   5.469   5.141   3.650 -1.0547 -0.7081 -1.3993
   39CHL1   C11 2846   5.512   5.025   3.466  0.5711 -0.2822 -0.2750
   39CHL1  H11A 2847   5.542   4.920   3.445  1.3832 -0.3189  0.9780
   39CHL1  H11B 2848   5.408   5.037   3.430  0.0695 -1.4399  0.6972
   39CHL1    C9 2849   5.611   5.115   3.395 -0.6528 -0.1388  0.2331
   39CHL1    H9 2850   5.577   5.219   3.413 -0.6213  0.2145 -1.6194
   39CHL1   C10 2851   5.615   5.096   3.239 -0.1865 -0.1811  0.1861
   39CHL1   C19 2852   5.624   4.949   3.202  0.3842  0.3547  0.2305
   39CHL1  H19A 2853   5.612   4.935   3.093 -0.4063  1.3266  0.1789
   39CHL1  H19B 2854   5.722   4.912   3.238  0.0747 -0.5766  0.1404
   39CHL1  H19C 2855   5.544   4.893   3.256  1.4189 -0.2504  1.1769
   39CHL1    C1 2856   5.485   5.159   3.187  0.3521 -0.3584  0.6510
   39CHL1   H1A 2857   5.406   5.083   3.207  0.0743 -1.6859 -4.1991
   39CHL1   H1B 2858   5.472   5.251   3.248  0.8596 -0.0918  0.3602
   39CHL1    C2 2859   5.471   5.181   3.038 -0.6847 -0.0127  0.4951
   39CHL1   H2A 2860   5.375   5.227   3.006 -1.3714  0.8251  3.4651
   39CHL1   H2B 2861   5.463   5.084   2.984 -2.3703  0.9140 -1.0415
   39CHL1   C20 2862   5.629   4.958   3.935  0.2851  0.3601 -0.5549
   39CHL1   H20 2863   5.687   4.865   3.912 -1.1026 -0.9305  0.9212
   39CHL1   C21 2864   5.487   4.905   3.935 -0.7667 -0.2556  0.4406
   39CHL1  H21A 2865   5.472   4.817   4.001 -1.0283 -1.6903 -1.4472
   39CHL1  H21B 2866   5.458   4.864   3.836  0.7409 -1.3071  0.4055
   39CHL1  H21C 2867   5.413   4.984   3.960  1.1313  1.3624  1.2747
   39CHL1   C22 2868   5.678   5.004   4.075 -0.1851  0.0377  0.5568
   39CHL1  H22A 2869   5.662   4.926   4.153  0.9411 -0.4753  0.3043
   39CHL1  H22B 2870   5.789   5.011   4.076 -0.1697 -0.2105  1.1373
   39CHL1   C23 2871   5.616   5.141   4.126 -0.2380 -0.2952  0.1441
   39CHL1  H23A 2872   5.643   5.228   4.063 -1.4279 -0.8208 -1.1643
   39CHL1  H23B 2873   5.505   5.134   4.121 -0.2315 -0.1496 -0.2096
   39CHL1   C24 2874   5.657   5.175   4.272  0.2954  0.3621  0.9403
   39CHL1  H24A 2875   5.588   5.116   4.336  0.8894 -2.6648 -1.0255
   39CHL1  H24B 2876   5.757   5.132   4.294  0.6039 -0.8224 -2.2485
   39CHL1   C25 2877   5.660   5.325   4.296 -0.6279 -0.4619 -0.5762
   39CHL1   H25 2878   5.750   5.371   4.250  0.7953 -0.8472  1.6412
   39CHL1   C26 2879   5.528   5.394   4.255  0.5260 -0.1017  0.0999
   39CHL1  H26A 2880   5.527   5.384   4.144 -1.4190  0.2180  0.0555
   39CHL1  H26B 2881   5.438   5.340   4.291  0.9967  0.2824  1.9472
   39CHL1  H26C 2882   5.526   5.500   4.287  0.9483 -0.2903  0.7568
   39CHL1   C27 2883   5.673   5.350   4.447  0.0408  0.0788  1.0374
   39CHL1  H27A 2884   5.675   5.458   4.472  0.7966 -0.3700  3.1049
   39CHL1  H27B 2885   5.587   5.305   4.500  1.0369 -0.9093  1.8818
   39CHL1  H27C 2886   5.763   5.303   4.494 -0.1618 -1.4240  0.0230
   40CHL1    C3 2887   0.591   4.473   2.595  0.0179 -0.4579  0.8464
   40CHL1    H3 2888   0.667   4.554   2.599  0.9983 -1.1907 -1.5277
   40CHL1    O3 2889   0.559   4.450   2.457  0.0206  0.2883  0.0462
   40CHL1   H3' 2890   0.613   4.378   2.422  0.0095  0.1463  0.3181
   40CHL1    C4 2891   0.640   4.345   2.655 -0.1725  0.5570  0.1723
   40CHL1   H4A 2892   0.572   4.268   2.614  0.0609  1.2225 -1.5389
   40CHL1   H4B 2893   0.742   4.317   2.620 -0.1177 -2.8546  2.5573
   40CHL1    C5 2894   0.646   4.352   2.811  0.7407  0.1270  0.3662
   40CHL1    C6 2895   0.755   4.314   2.883  0.0003 -0.2405  0.7906
   40CHL1    H6 2896   0.837   4.276   2.820 -0.4731 -1.6724  0.9922
   40CHL1    C7 2897   0.770   4.320   3.030  0.5943 -0.5456 -0.0963
   40CHL1   H7A 2898   0.815   4.226   3.068 -0.0141 -0.5751  0.5776
   40CHL1   H7B 2899   0.841   4.402   3.055  0.5930 -1.0948  1.8583
   40CHL1    C8 2900   0.638   4.350   3.100 -0.2326 -0.0643  0.5011
   40CHL1    H8 2901   0.573   4.260   3.101  1.0631 -1.0231  1.0941
   40CHL1   C14 2902   0.670   4.388   3.247 -0.1778 -0.1758 -0.3132
   40CHL1   H14 2903   0.729   4.482   3.245 -0.1119 -0.2101 -0.0498
   40CHL1   C15 2904   0.757   4.303   3.340  0.1973  1.0412 -0.0212
   40CHL1  H15A 2905   0.709   4.203   3.347 -0.1634  1.3013  1.7543
   40CHL1  H15B 2906   0.864   4.300   3.310 -0.2868  2.3943 -2.0902
   40CHL1   C16 2907   0.739   4.375   3.473  0.3358 -0.6744 -0.0528
   40CHL1  H16A 2908   0.713   4.309   3.559  2.1296 -0.9954  0.2909
   40CHL1  H16B 2909   0.835   4.427   3.495  1.1713 -1.5951 -1.3146
   40CHL1   C17 2910   0.616   4.475   3.459 -0.0208  0.1386 -0.0185
   40CHL1   H17 2911   0.663   4.573   3.436 -0.2598  0.4803  0.8923
   40CHL1   C13 2912   0.546   4.437   3.327 -0.1057 -0.2673 -0.1570
   40CHL1   C18 2913   0.457   4.315   3.356 -0.4275  0.2878  0.6024
   40CHL1  H18A 2914   0.452   4.253   3.263 -1.6246  0.2850  0.6534
   40CHL1  H18B 2915   0.506   4.246   3.427 -1.5267 -2.0119 -0.7570
   40CHL1  H18C 2916   0.353   4.322   3.395 -2.8282 -2.0391 -4.3287
   40CHL1   C12 2917   0.477   4.556   3.253 -0.1079  0.2730  0.3026
   40CHL1  H12A 2918   0.385   4.590   3.306 -2.2853 -0.9768 -2.3685
   40CHL1  H12B 2919   0.556   4.634   3.254  2.9949 -2.6131 -0.7372
   40CHL1   C11 2920   0.447   4.516   3.106  0.4400 -1.0953  0.3339
   40CHL1  H11A 2921   0.364   4.442   3.110 -0.2783 -0.3543 -0.6397
   40CHL1  H11B 2922   0.397   4.606   3.064  1.6830  1.0248  3.0261
   40CHL1    C9 2923   0.570   4.462   3.030  0.0982 -0.1480 -0.3878
   40CHL1    H9 2924   0.647   4.542   3.028  0.9067 -0.9143 -0.6634
   40CHL1   C10 2925   0.537   4.435   2.881 -0.1237  0.1656 -0.7100
   40CHL1   C19 2926   0.423   4.334   2.873 -0.6280  0.6066 -0.2807
   40CHL1  H19A 2927   0.391   4.296   2.774 -2.2627  0.7541  0.1551
   40CHL1  H19B 2928   0.442   4.249   2.941  3.8069  1.8295  0.3083
   40CHL1  H19C 2929   0.329   4.383   2.907 -0.4395  0.6876  0.1268
   40CHL1    C1 2930   0.483   4.559   2.810  0.2433 -0.0341  0.0352
   40CHL1   H1A 2931   0.382   4.592   2.843  0.0632  0.9950 -1.4245
   40CHL1   H1B 2932   0.559   4.640   2.813  2.9015 -2.3302 -1.1049
   40CHL1    C2 2933   0.462   4.521   2.666 -0.1527 -0.1654 -0.5556
   40CHL1   H2A 2934   0.433   4.616   2.617 -0.7265  0.2646  0.5643
   40CHL1   H2B 2935   0.381   4.447   2.648 -0.2736  0.0767 -1.0253
   40CHL1   C20 2936   0.538   4.486   3.590  0.4518 -0.2676 -0.2957
   40CHL1   H20 2937   0.507   4.384   3.620 -0.8420  0.5901  1.5081
   40CHL1   C21 2938   0.408   4.569   3.576 -0.8867 -0.6096  0.7283
   40CHL1  H21A 2939   0.437   4.667   3.532  0.8219 -2.2505 -2.1495
   40CHL1  H21B 2940   0.350   4.582   3.669 -0.8432 -1.9408  0.9623
   40CHL1  H21C 2941   0.337   4.523   3.503  0.0406 -0.2970 -0.3995
   40CHL1   C22 2942   0.627   4.551   3.703 -0.3764 -0.3124 -0.9644
   40CHL1  H22A 2943   0.702   4.474   3.731  0.8569 -0.4124 -4.0625
   40CHL1  H22B 2944   0.674   4.648   3.677  0.9895 -0.2853  1.3170
   40CHL1   C23 2945   0.548   4.582   3.838 -0.3125  0.1318  0.3950
   40CHL1  H23A 2946   0.476   4.666   3.830  0.0480  0.3342 -1.0661
   40CHL1  H23B 2947   0.479   4.501   3.870  1.0259 -0.9588  0.6071
   40CHL1   C24 2948   0.655   4.611   3.948  0.0090  0.8077 -0.0213
   40CHL1  H24A 2949   0.727   4.528   3.964  0.4656  1.4133  1.1845
   40CHL1  H24B 2950   0.720   4.697   3.922 -0.4188  0.2958 -3.1705
   40CHL1   C25 2951   0.598   4.621   4.094 -0.2145  0.0275  0.1978
   40CHL1   H25 2952   0.683   4.650   4.159 -0.4220  0.7219  0.1584
   40CHL1   C26 2953   0.509   4.743   4.099  0.1069  0.8504 -0.4225
   40CHL1  H26A 2954   0.504   4.767   4.207 -1.5816 -0.8864 -0.0516
   40CHL1  H26B 2955   0.550   4.834   4.050  1.6867  0.1616 -0.4220
   40CHL1  H26C 2956   0.403   4.725   4.069 -0.2047  0.1102  1.0142
   40CHL1   C27 2957   0.536   4.495   4.144 -0.1843  0.2734 -0.5184
   40CHL1  H27A 2958   0.508   4.434   4.056 -0.6738  0.4443 -0.4806
   40CHL1  H27B 2959   0.612   4.449   4.211  1.3191  1.8375 -1.0494
   40CHL1  H27C 2960   0.449   4.514   4.209 -0.7935  1.1606 -1.5591
   41CHL1    C3 2961   5.019   0.971   2.940  1.0118  0.5093 -0.4027
   41CHL1    H3 2962   5.117   1.018   2.959  1.0570  0.0382  0.5741
   41CHL1    O3 2963   5.020   0.917   2.804 -0.0060  0.6846 -0.1796
   41CHL1   H3' 2964   4.928   0.932   2.780 -0.4391 -0.4980  0.6196
   41CHL1    C4 2965   5.004   0.857   3.041 -0.0117  0.0295 -0.2529
   41CHL1   H4A 2966   4.908   0.803   3.032  1.2671 -2.4086  0.0516
   41CHL1   H4B 2967   5.085   0.784   3.023  0.8930  1.0314 -0.3561
   41CHL1    C5 2968   4.996   0.920   3.181 -0.7085  0.9873 -0.6506
   41CHL1    C6 2969   5.099   0.914   3.267 -0.4544 -0.0792  0.3374
   41CHL1    H6 2970   5.183   0.857   3.225 -0.0792  0.5693  0.1928
   41CHL1    C7 2971   5.094   0.964   3.401 -0.0291  0.2892  0.2830
   41CHL1   H7A 2972   5.136   0.894   3.477  0.0347 -0.9193 -0.8173
   41CHL1   H7B 2973   5.146   1.061   3.412 -1.4919  0.9759  1.5419
   41CHL1    C8 2974   4.952   0.988   3.454 -0.3268 -0.2030  0.2449
   41CHL1    H8 2975   4.898   0.891   3.454 -2.9181  1.1185 -1.2278
   41CHL1   C14 2976   4.952   1.048   3.593  0.1542 -0.4314 -0.4008
   41CHL1   H14 2977   5.024   1.132   3.592  1.2632 -1.3514 -1.3000
   41CHL1   C15 2978   5.003   0.962   3.707 -0.4304  0.3670 -0.1555
   41CHL1  H15A 2979   4.963   0.858   3.704  0.3668  0.0673 -0.8052
   41CHL1  H15B 2980   5.113   0.947   3.701 -0.0836  0.7554  3.2014
   41CHL1   C16 2981   4.972   1.048   3.828  0.1659 -0.3346 -0.4330
   41CHL1  H16A 2982   4.949   0.976   3.909  0.2451 -0.0576 -0.1634
   41CHL1  H16B 2983   5.055   1.114   3.861  0.7145 -1.7429  1.0994
   41CHL1   C17 2984   4.862   1.144   3.783  0.0067  0.5761 -0.7923
   41CHL1   H17 2985   4.906   1.245   3.765 -1.1199  0.9633 -1.4381
   41CHL1   C13 2986   4.820   1.097   3.648  0.3550 -0.4704  0.1586
   41CHL1   C18 2987   4.723   0.974   3.657 -0.3578 -0.2593  0.2468
   41CHL1  H18A 2988   4.723   0.917   3.562  1.1519 -0.5614  0.4041
   41CHL1  H18B 2989   4.742   0.913   3.748 -1.0369 -1.7405 -0.5734
   41CHL1  H18C 2990   4.620   1.016   3.664  0.9602  3.3430  0.4936
   41CHL1   C12 2991   4.767   1.204   3.549 -0.5777  0.2218  0.0451
   41CHL1  H12A 2992   4.663   1.228   3.579 -1.2314 -3.0985  0.8702
   41CHL1  H12B 2993   4.830   1.296   3.547 -1.6944  1.0093 -0.0428
   41CHL1   C11 2994   4.757   1.144   3.412 -0.1932 -0.4850  0.3585
   41CHL1  H11A 2995   4.671   1.074   3.402 -1.5299  1.0189  0.9025
   41CHL1  H11B 2996   4.719   1.226   3.347 -1.2826 -0.5439  0.8913
   41CHL1    C9 2997   4.882   1.076   3.354  0.1877 -0.4065  0.4322
   41CHL1    H9 2998   4.956   1.156   3.334  0.2321 -0.0855  1.7810
   41CHL1   C10 2999   4.877   1.012   3.211 -0.2712  0.1527  0.1275
   41CHL1   C19 3000   4.746   0.924   3.210 -0.0424 -0.8360  0.6937
   41CHL1  H19A 3001   4.742   0.862   3.303  1.2655  0.7873  1.8892
   41CHL1  H19B 3002   4.655   0.989   3.213  0.4546 -0.0545 -0.6655
   41CHL1  H19C 3003   4.722   0.861   3.121 -0.5350  0.3893 -0.0604
   41CHL1    C1 3004   4.875   1.120   3.097 -0.3596 -0.5960  0.2633
   41CHL1   H1A 3005   4.790   1.191   3.100  0.8487  0.9151 -0.2802
   41CHL1   H1B 3006   4.966   1.181   3.113  1.1761 -3.1039  1.6525
   41CHL1    C2 3007   4.897   1.067   2.952  0.5468 -1.0540 -0.9016
   41CHL1   H2A 3008   4.926   1.153   2.888 -2.8484  1.2140  0.3560
   41CHL1   H2B 3009   4.797   1.031   2.920 -1.5554  0.8766  2.7746
   41CHL1   C20 3010   4.756   1.166   3.900 -0.1842  0.1294  0.6433
   41CHL1   H20 3011   4.710   1.069   3.928 -0.0766 -0.1084  0.0051
   41CHL1   C21 3012   4.644   1.268   3.856 -0.2209  0.1522 -0.0917
   41CHL1  H21A 3013   4.577   1.211   3.788  0.5993 -0.5074 -0.3652
   41CHL1  H21B 3014   4.698   1.344   3.797  0.4277  1.3804  1.9675
   41CHL1  H21C 3015   4.574   1.300   3.936  1.5856  2.1652  0.7758
   41CHL1   C22 3016   4.834   1.195   4.029  0.0061  0.2477 -0.2431
   41CHL1  H22A 3017   4.919   1.130   4.060 -1.6070 -1.4922  0.7703
   41CHL1  H22B 3018   4.872   1.299   4.020  2.4414 -0.6118 -0.6144
   41CHL1   C23 3019   4.736   1.178   4.144 -0.4715 -0.2973 -0.2890
   41CHL1  H23A 3020   4.631   1.203   4.122 -1.0467 -3.1714 -1.3655
   41CHL1  H23B 3021   4.736   1.069   4.166  1.1565 -0.1624  0.5484
   41CHL1   C24 3022   4.776   1.258   4.270  0.1740 -0.0453  0.1048
   41CHL1  H24A 3023   4.748   1.195   4.357 -0.9722  0.2427 -0.0361
   41CHL1  H24B 3024   4.886   1.276   4.266  0.2243 -0.4636 -0.4227
   41CHL1   C25 3025   4.691   1.382   4.284 -0.4133  0.4650  0.4306
   41CHL1   H25 3026   4.584   1.352   4.293 -0.8039  0.0955 -3.5871
   41CHL1   C26 3027   4.713   1.460   4.414 -0.8042 -0.0859 -0.1977
   41CHL1  H26A 3028   4.677   1.395   4.497  1.3097  2.0384  2.6271
   41CHL1  H26B 3029   4.817   1.495   4.431 -1.5812  1.5933  1.4529
   41CHL1  H26C 3030   4.657   1.555   4.420  1.6784  1.4894 -0.4534
   41CHL1   C27 3031   4.706   1.490   4.176 -0.0022  0.6229 -0.4956
   41CHL1  H27A 3032   4.661   1.587   4.206  0.4155  0.2950  1.3244
   41CHL1  H27B 3033   4.816   1.507   4.172  0.0384  0.4429 -0.1593
   41CHL1  H27C 3034   4.666   1.452   4.080 -0.3318 -2.8350  0.8653
   42CHL1    C3 3035   1.711   5.947   3.080  0.7657 -0.1288 -0.6511
   42CHL1    H3 3036   1.680   5.840   3.079 -0.4842  0.2076 -0.2634
   42CHL1    O3 3037   1.772   5.979   2.955  0.4668 -1.1766 -0.4371
   42CHL1   H3' 3038   1.728   5.918   2.895 -0.9379 -1.0883  0.4660
   42CHL1    C4 3039   1.590   6.030   3.113  0.6538 -0.0103  0.5316
   42CHL1   H4A 3040   1.624   6.135   3.096 -4.5069  1.4234 -3.2404
   42CHL1   H4B 3041   1.512   6.016   3.035  2.8065 -1.7743 -1.4497
   42CHL1    C5 3042   1.539   6.012   3.255 -0.1527 -0.5735 -0.3582
   42CHL1    C6 3043   1.413   5.966   3.276 -0.1268 -0.0652  0.4921
   42CHL1    H6 3044   1.351   5.957   3.185 -1.6819 -0.9495  1.5965
   42CHL1    C7 3045   1.348   5.933   3.404  0.8632 -0.0481  0.1691
   42CHL1   H7A 3046   1.245   5.975   3.407  1.8039  2.5000 -0.1099
   42CHL1   H7B 3047   1.345   5.825   3.428  0.2594  0.2465  1.5131
   42CHL1    C8 3048   1.434   6.001   3.518  0.3384 -0.1638  0.0425
   42CHL1    H8 3049   1.410   6.110   3.519 -2.7552 -0.7475  0.4386
   42CHL1   C14 3050   1.384   5.946   3.658  0.1135 -0.4578  0.6467
   42CHL1   H14 3051   1.410   5.838   3.665  0.8478 -0.4039 -0.7614
   42CHL1   C15 3052   1.236   5.958   3.676 -0.0000  0.1406 -0.4266
   42CHL1  H15A 3053   1.216   6.061   3.639  0.6548 -0.1514 -1.6551
   42CHL1  H15B 3054   1.167   5.890   3.621  1.7863 -0.8503 -1.5524
   42CHL1   C16 3055   1.217   5.953   3.836  0.4028 -0.1717  0.3031
   42CHL1  H16A 3056   1.175   6.050   3.871 -0.3872 -1.1035  2.0653
   42CHL1  H16B 3057   1.159   5.870   3.882 -0.3741  0.5090  0.5827
   42CHL1   C17 3058   1.358   5.941   3.890 -0.6691 -0.3531  0.6092
   42CHL1   H17 3059   1.385   5.834   3.887 -1.0084 -0.5079  2.0568
   42CHL1   C13 3060   1.452   6.009   3.784  0.1838  0.9132 -0.1031
   42CHL1   C18 3061   1.457   6.162   3.792  0.0498  0.2330  0.1257
   42CHL1  H18A 3062   1.356   6.208   3.803 -0.8806 -1.6195 -0.2162
   42CHL1  H18B 3063   1.519   6.197   3.877  1.4720 -0.0348 -0.7712
   42CHL1  H18C 3064   1.492   6.204   3.695 -1.3704 -1.3522 -1.1416
   42CHL1   C12 3065   1.600   5.957   3.773 -1.4455  0.6831  0.1176
   42CHL1  H12A 3066   1.646   6.009   3.860 -1.7588  0.1663  0.5973
   42CHL1  H12B 3067   1.620   5.848   3.781 -0.0681  0.8978 -0.0513
   42CHL1   C11 3068   1.659   6.004   3.636  0.7646 -0.3874  0.4925
   42CHL1  H11A 3069   1.670   6.114   3.648 -1.3672 -0.2203  1.2258
   42CHL1  H11B 3070   1.763   5.969   3.618  0.2904  0.0609 -4.4431
   42CHL1    C9 3071   1.578   5.972   3.501 -0.0069  0.1873 -0.8602
   42CHL1    H9 3072   1.576   5.862   3.492 -1.3621  0.0314  0.8887
   42CHL1   C10 3073   1.641   6.028   3.365  0.6523  0.0278  0.2881
   42CHL1   C19 3074   1.676   6.177   3.387 -0.2358 -0.2767  0.0918
   42CHL1  H19A 3075   1.762   6.180   3.458 -0.5361 -1.7710  0.5566
   42CHL1  H19B 3076   1.706   6.225   3.291  0.9520 -0.6479  0.2599
   42CHL1  H19C 3077   1.600   6.235   3.443 -1.4692 -0.4382 -1.3766
   42CHL1    C1 3078   1.766   5.944   3.335 -0.0837 -0.1945  0.0409
   42CHL1   H1A 3079   1.847   5.976   3.404  1.8398 -1.4496 -1.5110
   42CHL1   H1B 3080   1.743   5.836   3.338  2.0402 -0.9015 -3.3115
   42CHL1    C2 3081   1.816   5.968   3.192 -0.3439 -0.0828 -0.5447
   42CHL1   H2A 3082   1.904   5.904   3.170  0.1495  0.6312 -0.6905
   42CHL1   H2B 3083   1.846   6.075   3.185 -0.4212 -0.1476 -2.2285
   42CHL1   C20 3084   1.359   6.005   4.032 -0.3331 -0.5077 -0.1858
   42CHL1   H20 3085   1.349   6.116   4.029  2.3402 -0.2055 -0.6788
   42CHL1   C21 3086   1.485   5.970   4.104 -0.3461 -0.3196 -1.2185
   42CHL1  H21A 3087   1.508   5.862   4.100 -0.0877 -0.3036 -0.4211
   42CHL1  H21B 3088   1.495   5.999   4.211  0.8635  2.7521 -2.0583
   42CHL1  H21C 3089   1.575   6.020   4.061  1.3920 -0.1527  2.2556
   42CHL1   C22 3090   1.243   5.954   4.123 -0.3610 -0.6630  0.1195
   42CHL1  H22A 3091   1.150   5.925   4.069 -0.3168 -0.2601 -0.1806
   42CHL1  H22B 3092   1.278   5.864   4.177 -1.9504 -0.1779  2.0646
   42CHL1   C23 3093   1.198   6.062   4.218  0.1887 -0.5723  0.2879
   42CHL1  H23A 3094   1.277   6.108   4.281 -1.4843  0.5228  1.6871
   42CHL1  H23B 3095   1.161   6.140   4.149 -1.0040 -0.9187  0.5109
   42CHL1   C24 3096   1.073   6.024   4.301  0.2854 -0.1773 -0.6471
   42CHL1  H24A 3097   0.987   5.972   4.252 -1.1763  0.2257  1.3582
   42CHL1  H24B 3098   1.112   5.942   4.365 -1.4191 -1.2950 -0.9460
   42CHL1   C25 3099   0.999   6.142   4.374 -0.4076  0.5012  0.4080
   42CHL1   H25 3100   0.949   6.212   4.304  0.3186  1.6974  1.0416
   42CHL1   C26 3101   0.886   6.100   4.461 -0.3056  0.7209 -0.1580
   42CHL1  H26A 3102   0.837   6.187   4.510  0.6918  1.6601 -0.7838
   42CHL1  H26B 3103   0.806   6.038   4.414 -0.7751  0.0942  1.3797
   42CHL1  H26C 3104   0.921   6.041   4.548  0.7071  2.0607  0.3675
   42CHL1   C27 3105   1.097   6.224   4.459 -0.0291  0.5084 -0.7532
   42CHL1  H27A 3106   1.188   6.260   4.406  0.7923  0.9593  0.8663
   42CHL1  H27B 3107   1.042   6.316   4.486  0.6040  0.2247  1.8172
   42CHL1  H27C 3108   1.131   6.168   4.549 -0.8293  0.2494 -0.6090
   43CHL1    C3 3109   2.771   5.584   2.737  0.5594  0.4482  0.4459
   43CHL1    H3 3110   2.665   5.553   2.751  0.7827  0.0535  1.3328
   43CHL1    O3 3111   2.802   5.602   2.597  0.1248  0.3987 -0.8045
   43CHL1   H3' 3112   2.828   5.514   2.569  1.3064  1.0064 -1.6812
   43CHL1    C4 3113   2.786   5.713   2.815  0.0954  0.0260  0.1627
   43CHL1   H4A 3114   2.885   5.758   2.793  0.2956 -0.3829  0.2123
   43CHL1   H4B 3115   2.727   5.791   2.763  0.2369  0.5911  0.8314
   43CHL1    C5 3116   2.762   5.706   2.964 -0.0666 -0.1758  0.8054
   43CHL1    C6 3117   2.677   5.785   3.037  0.4546 -0.0316  0.3259
   43CHL1    H6 3118   2.616   5.862   2.987  0.9524 -1.5038 -2.7515
   43CHL1    C7 3119   2.654   5.779   3.185 -0.1173 -0.6307  0.2301
   43CHL1   H7A 3120   2.645   5.879   3.232 -1.7188 -1.2812  1.3587
   43CHL1   H7B 3121   2.557   5.726   3.194 -0.6539  0.5589  1.9283
   43CHL1    C8 3122   2.762   5.701   3.260  0.2914  0.0419  0.2159
   43CHL1    H8 3123   2.857   5.758   3.256  0.2102  0.0930 -2.3659
   43CHL1   C14 3124   2.711   5.674   3.410  0.0335 -1.1001 -0.1080
   43CHL1   H14 3125   2.618   5.614   3.402 -0.0144 -1.2480  1.3316
   43CHL1   C15 3126   2.684   5.786   3.507  0.3174  0.4665 -0.6029
   43CHL1  H15A 3127   2.759   5.865   3.487 -0.9735  1.7349 -0.5844
   43CHL1  H15B 3128   2.588   5.838   3.491 -0.8789 -1.6421 -0.6912
   43CHL1   C16 3129   2.705   5.719   3.644  0.2626 -0.2395 -0.4556
   43CHL1  H16A 3130   2.790   5.765   3.699 -0.3320  1.2265 -0.7276
   43CHL1  H16B 3131   2.616   5.735   3.708  2.0731  5.3221  1.2433
   43CHL1   C17 3132   2.734   5.573   3.615  0.8618 -0.3420  0.2694
   43CHL1   H17 3133   2.635   5.524   3.614  0.4654  0.1357  3.5390
   43CHL1   C13 3134   2.798   5.570   3.476 -0.4694  0.3463 -0.3241
   43CHL1   C18 3135   2.949   5.626   3.496  0.1026  0.3042 -1.0542
   43CHL1  H18A 3136   3.006   5.633   3.401  1.8851 -1.5011 -0.2107
   43CHL1  H18B 3137   2.955   5.729   3.537  0.2492 -0.5964  1.3507
   43CHL1  H18C 3138   3.010   5.568   3.569 -3.5597 -0.5484  1.6048
   43CHL1   C12 3139   2.805   5.439   3.398  0.1267  0.2448  0.1796
   43CHL1  H12A 3140   2.868   5.362   3.447  1.8622  0.2349 -1.8901
   43CHL1  H12B 3141   2.699   5.415   3.376  0.1081  1.7248 -1.6001
   43CHL1   C11 3142   2.860   5.458   3.259  0.6659 -0.1160  1.0129
   43CHL1  H11A 3143   2.969   5.482   3.254  0.5230  0.3003 -1.5323
   43CHL1  H11B 3144   2.854   5.365   3.198  1.4825 -0.0247  0.7847
   43CHL1    C9 3145   2.790   5.573   3.178 -0.0120 -0.0049  0.5524
   43CHL1    H9 3146   2.684   5.542   3.168  0.4878 -1.3658 -1.1636
   43CHL1   C10 3147   2.846   5.595   3.034  0.3086 -0.1664  1.0283
   43CHL1   C19 3148   2.996   5.647   3.039  0.2936 -0.1483  0.2046
   43CHL1  H19A 3149   3.004   5.718   3.125 -2.9954  1.3499 -0.5946
   43CHL1  H19B 3150   3.063   5.562   3.064 -1.4647 -2.3389 -2.0715
   43CHL1  H19C 3151   3.038   5.690   2.946 -2.6222  1.8423 -0.3221
   43CHL1    C1 3152   2.837   5.471   2.956  0.2245 -0.1220 -0.4319
   43CHL1   H1A 3153   2.912   5.402   3.000 -0.7361 -0.9052  0.0093
   43CHL1   H1B 3154   2.735   5.428   2.969  0.2699  0.4865  2.6782
   43CHL1    C2 3155   2.868   5.476   2.802 -0.3173 -0.4958 -0.7368
   43CHL1   H2A 3156   2.862   5.372   2.762 -1.4290 -0.3921 -0.8708
   43CHL1   H2B 3157   2.971   5.513   2.787  0.2250 -1.7053 -0.1659
   43CHL1   C20 3158   2.815   5.512   3.738  0.2479  0.1694  0.8436
   43CHL1   H20 3159   2.913   5.565   3.736  0.5519 -0.3778 -1.1942
   43CHL1   C21 3160   2.849   5.366   3.708  0.4047  0.2201 -0.5611
   43CHL1  H21A 3161   2.939   5.365   3.643  0.1844 -1.5894 -0.8971
   43CHL1  H21B 3162   2.769   5.308   3.657  0.5982  0.2631 -0.9178
   43CHL1  H21C 3163   2.868   5.310   3.802  2.0810 -0.3942 -1.2324
   43CHL1   C22 3164   2.756   5.513   3.884  0.0670 -0.3181 -0.1822
   43CHL1  H22A 3165   2.832   5.459   3.945 -0.0031 -0.3834 -0.1523
   43CHL1  H22B 3166   2.751   5.617   3.923 -1.3676 -0.8602  1.1577
   43CHL1   C23 3167   2.621   5.440   3.904  0.2994  0.2605  0.8134
   43CHL1  H23A 3168   2.556   5.494   3.832  0.2434  0.3427  0.9269
   43CHL1  H23B 3169   2.627   5.331   3.880  2.0859  0.0022  2.2255
   43CHL1   C24 3170   2.574   5.446   4.050  0.1682 -0.9868  0.3277
   43CHL1  H24A 3171   2.577   5.555   4.072  0.1219 -0.5679 -1.5982
   43CHL1  H24B 3172   2.479   5.395   4.079  0.2761 -0.3541  1.9057
   43CHL1   C25 3173   2.661   5.381   4.155 -0.5050 -0.7440  0.1502
   43CHL1   H25 3174   2.759   5.433   4.154 -0.1945 -1.3300 -1.0112
   43CHL1   C26 3175   2.611   5.395   4.304 -0.5639  0.2497  0.2217
   43CHL1  H26A 3176   2.522   5.335   4.333  1.1800 -2.2447  0.8011
   43CHL1  H26B 3177   2.691   5.355   4.371  0.2295  2.2240  0.5038
   43CHL1  H26C 3178   2.598   5.498   4.343 -1.8597 -0.3791  1.5935
   43CHL1   C27 3179   2.690   5.233   4.125 -0.0325 -0.8825 -0.2797
   43CHL1  H27A 3180   2.740   5.170   4.201  3.4807  2.6438  0.6532
   43CHL1  H27B 3181   2.589   5.189   4.106 -1.4959  1.6214  1.1456
   43CHL1  H27C 3182   2.759   5.213   4.040  2.6664  1.9986  1.0471
   44CHL1    C3 3183   4.809   0.192   2.699 -0.0820 -0.1139 -0.6753
   44CHL1    H3 3184   4.708   0.154   2.728  0.4913 -1.2019 -0.0189
   44CHL1    O3 3185   4.819   0.189   2.555 -0.0204  0.0016 -0.8789
   44CHL1   H3' 3186   4.745   0.238   2.519 -0.2762 -0.4305 -0.9497
   44CHL1    C4 3187   4.825   0.345   2.731  0.7260 -0.6051  0.5419
   44CHL1   H4A 3188   4.920   0.376   2.682  0.3480  1.4717  1.0016
   44CHL1   H4B 3189   4.736   0.388   2.680 -0.5854 -2.0399  1.5530
   44CHL1    C5 3190   4.832   0.373   2.884 -0.3890  0.5468  0.7783
   44CHL1    C6 3191   4.750   0.460   2.937  0.0286 -0.5686 -0.0404
   44CHL1    H6 3192   4.671   0.509   2.878  1.0682 -1.1916 -2.0555
   44CHL1    C7 3193   4.760   0.484   3.082  0.1372 -0.2513 -0.1103
   44CHL1   H7A 3194   4.754   0.592   3.108  2.1726 -0.3823  1.0735
   44CHL1   H7B 3195   4.675   0.437   3.136  1.1114  0.2774  1.9915
   44CHL1    C8 3196   4.902   0.449   3.141  0.1151  0.0580  0.5097
   44CHL1    H8 3197   4.981   0.514   3.098 -1.4462  0.6243 -1.6843
   44CHL1   C14 3198   4.891   0.461   3.290  0.2763  0.3026 -0.3944
   44CHL1   H14 3199   4.813   0.390   3.326  2.1517 -1.5500  0.2572
   44CHL1   C15 3200   4.839   0.594   3.344 -0.5401 -0.1291  0.1040
   44CHL1  H15A 3201   4.874   0.677   3.279 -2.8451  0.4275 -0.5170
   44CHL1  H15B 3202   4.729   0.585   3.338 -0.5919  1.1024 -1.4724
   44CHL1   C16 3203   4.886   0.588   3.494  0.3754  0.6819  0.2897
   44CHL1  H16A 3204   4.956   0.673   3.505  0.1547  1.2748 -2.2565
   44CHL1  H16B 3205   4.802   0.592   3.566 -0.3528  2.8824 -0.5852
   44CHL1   C17 3206   4.972   0.455   3.518 -0.1181 -0.0713 -0.5470
   44CHL1   H17 3207   4.900   0.376   3.548 -0.7481 -0.0682 -1.9360
   44CHL1   C13 3208   5.018   0.429   3.370 -0.1553  0.0860  0.0150
   44CHL1   C18 3209   5.144   0.527   3.336  0.2137  0.4119  0.1837
   44CHL1  H18A 3210   5.224   0.491   3.404  0.2835  2.2895  1.1637
   44CHL1  H18B 3211   5.169   0.497   3.232 -0.8015  1.7952 -0.4921
   44CHL1  H18C 3212   5.121   0.634   3.355 -1.2621 -0.3503  3.5397
   44CHL1   C12 3213   5.053   0.284   3.340  0.0603 -0.0816 -0.1898
   44CHL1  H12A 3214   5.151   0.265   3.388  1.0331 -0.1828 -2.1266
   44CHL1  H12B 3215   4.989   0.203   3.380  1.4701 -0.5641  1.2023
   44CHL1   C11 3216   5.061   0.252   3.192  0.5295 -0.5532 -0.5007
   44CHL1  H11A 3217   5.156   0.297   3.154  0.8229 -1.8933 -1.4724
   44CHL1  H11B 3218   5.076   0.142   3.180 -0.8569 -0.8896  0.6622
   44CHL1    C9 3219   4.935   0.300   3.106 -0.2047 -0.3816  0.4525
   44CHL1    H9 3220   4.850   0.236   3.139 -1.4522 -0.2286 -2.1896
   44CHL1   C10 3221   4.938   0.281   2.955 -0.8576 -0.2366  0.1115
   44CHL1   C19 3222   5.075   0.327   2.907  0.3918 -0.2406  0.8751
   44CHL1  H19A 3223   5.078   0.332   2.796 -2.2620 -0.0563  0.7444
   44CHL1  H19B 3224   5.116   0.424   2.940  0.4246  0.6206 -1.5268
   44CHL1  H19C 3225   5.151   0.250   2.932  0.3922 -0.8894 -0.9108
   44CHL1    C1 3226   4.921   0.133   2.910  0.4479  0.0655  0.1360
   44CHL1   H1A 3227   5.001   0.075   2.961  0.0300  0.3261  1.1114
   44CHL1   H1B 3228   4.826   0.093   2.951  0.8681  0.2742  1.3438
   44CHL1    C2 3229   4.914   0.104   2.760 -0.1792 -0.0243 -0.1431
   44CHL1   H2A 3230   4.890  -0.003   2.744  1.8105 -0.8684  1.9128
   44CHL1   H2B 3231   5.013   0.120   2.711  0.3365 -1.0247  0.5486
   44CHL1   C20 3232   5.073   0.467   3.624  1.1438 -0.1608  0.0576
   44CHL1   H20 3233   5.160   0.527   3.589  0.0593  1.5063  0.1039
   44CHL1   C21 3234   5.126   0.331   3.664  0.0153 -0.2558 -0.4000
   44CHL1  H21A 3235   5.189   0.339   3.756  1.4484  0.5321 -1.4155
   44CHL1  H21B 3236   5.192   0.296   3.582 -1.3983 -1.2957 -1.1350
   44CHL1  H21C 3237   5.047   0.255   3.677  0.2402 -0.6072 -1.0868
   44CHL1   C22 3238   5.035   0.548   3.747  0.2415 -0.2721  0.3842
   44CHL1  H22A 3239   5.121   0.556   3.817 -0.5694  1.7127  1.2451
   44CHL1  H22B 3240   5.003   0.652   3.722  1.1756 -0.1399 -0.3283
   44CHL1   C23 3241   4.920   0.496   3.832 -1.0618 -0.4869  0.1611
   44CHL1  H23A 3242   4.826   0.502   3.773  0.5004  3.1615 -2.3173
   44CHL1  H23B 3243   4.949   0.391   3.855 -1.3598 -0.9991 -1.6868
   44CHL1   C24 3244   4.895   0.563   3.968 -0.2336 -0.5471 -0.5219
   44CHL1  H24A 3245   4.813   0.500   4.009 -0.5277 -0.1471 -0.4870
   44CHL1  H24B 3246   4.975   0.560   4.045 -0.7642  2.9200  0.3122
   44CHL1   C25 3247   4.839   0.712   3.966  0.2397 -0.1020  0.0861
   44CHL1   H25 3248   4.902   0.780   3.906 -0.0900  0.0588 -0.0800
   44CHL1   C26 3249   4.703   0.722   3.901  0.0678 -0.1531 -0.5537
   44CHL1  H26A 3250   4.700   0.713   3.791 -2.1102 -2.3720 -0.4100
   44CHL1  H26B 3251   4.634   0.642   3.937 -1.7924  1.1506 -1.0678
   44CHL1  H26C 3252   4.652   0.819   3.921  1.2581  0.4085 -0.1572
   44CHL1   C27 3253   4.843   0.777   4.107  0.6986  0.1732 -0.5809
   44CHL1  H27A 3254   4.793   0.713   4.182  1.8349 -0.1883 -0.1122
   44CHL1  H27B 3255   4.948   0.782   4.142  1.3096  0.3991 -2.3211
   44CHL1  H27C 3256   4.799   0.879   4.102  1.1222  0.3832 -0.0936
   45CHL1    C3 3257   0.706   2.907   2.677  0.0754 -0.9597 -0.0403
   45CHL1    H3 3258   0.720   3.015   2.656 -0.5018 -1.2214 -1.9651
   45CHL1    O3 3259   0.693   2.846   2.549  0.0463  0.1545 -0.1078
   45CHL1   H3' 3260   0.763   2.882   2.495  0.6911 -1.0544 -0.1134
   45CHL1    C4 3261   0.826   2.864   2.763 -0.2087  0.4004  0.0214
   45CHL1   H4A 3262   0.826   2.753   2.762 -0.5189  0.3990 -1.6421
   45CHL1   H4B 3263   0.923   2.888   2.713  0.0858  1.0810  0.8826
   45CHL1    C5 3264   0.823   2.913   2.903  0.7709 -0.2734 -0.6121
   45CHL1    C6 3265   0.933   2.972   2.956 -0.8087 -0.6826 -0.1662
   45CHL1    H6 3266   1.018   2.996   2.891  0.3508  3.1281  2.4253
   45CHL1    C7 3267   0.946   3.027   3.097 -0.4101 -0.4865  0.4576
   45CHL1   H7A 3268   1.047   3.003   3.137  0.0825 -0.2919 -0.6171
   45CHL1   H7B 3269   0.926   3.136   3.092 -1.7688 -0.7680 -1.1972
   45CHL1    C8 3270   0.841   2.957   3.185 -0.9331 -0.0813 -0.2506
   45CHL1    H8 3271   0.874   2.852   3.193  0.6238  0.4522  1.0237
   45CHL1   C14 3272   0.832   3.029   3.318  0.4233 -0.9821 -0.4696
   45CHL1   H14 3273   0.793   3.132   3.301 -0.8364 -1.5604 -1.2702
   45CHL1   C15 3274   0.963   3.052   3.399  0.4299  0.4142 -0.6703
   45CHL1  H15A 3275   1.024   2.960   3.387 -0.5423 -0.6058  1.5900
   45CHL1  H15B 3276   1.016   3.135   3.347  2.6352 -0.8262 -0.5287
   45CHL1   C16 3277   0.906   3.054   3.541 -0.5904 -0.2036  0.6667
   45CHL1  H16A 3278   0.958   2.972   3.596  0.2972 -0.0495  0.0884
   45CHL1  H16B 3279   0.936   3.149   3.590 -2.0349  0.1310  0.9330
   45CHL1   C17 3280   0.752   3.049   3.543  0.2756 -0.8500  0.6587
   45CHL1   H17 3281   0.708   3.151   3.531 -3.4760 -2.3713  0.1156
   45CHL1   C13 3282   0.722   2.980   3.413  0.2169 -0.0841  0.0319
   45CHL1   C18 3283   0.740   2.826   3.434  0.3633 -0.1605 -0.0843
   45CHL1  H18A 3284   0.830   2.800   3.495 -0.2081 -0.4323  0.6630
   45CHL1  H18B 3285   0.648   2.783   3.479 -0.8639  2.9325  0.5981
   45CHL1  H18C 3286   0.746   2.775   3.336  0.2883  1.0471 -0.7341
   45CHL1   C12 3287   0.582   3.013   3.345  0.2254  0.2191  0.6442
   45CHL1  H12A 3288   0.503   2.964   3.405 -2.2808  1.5654 -1.3602
   45CHL1  H12B 3289   0.565   3.122   3.342  2.5991  0.6899 -3.7670
   45CHL1   C11 3290   0.577   2.941   3.207 -0.1675 -0.2945  0.0498
   45CHL1  H11A 3291   0.553   2.836   3.233 -3.8534  0.4622  0.3189
   45CHL1  H11B 3292   0.488   2.980   3.154 -0.2630 -1.8949 -1.0398
   45CHL1    C9 3293   0.698   2.968   3.120  0.1062  0.4375 -0.6476
   45CHL1    H9 3294   0.703   3.078   3.102 -0.4604  0.8044  1.2357
   45CHL1   C10 3295   0.699   2.893   2.987  0.4234 -0.2793  0.3680
   45CHL1   C19 3296   0.691   2.741   3.021 -0.2922 -0.1680  0.3750
   45CHL1  H19A 3297   0.589   2.708   3.050 -2.1104  1.2923 -3.5767
   45CHL1  H19B 3298   0.727   2.681   2.935  0.2988  0.2582  0.3204
   45CHL1  H19C 3299   0.765   2.717   3.100  0.2818 -3.5874 -1.0193
   45CHL1    C1 3300   0.580   2.954   2.896  0.8035  0.2139 -0.2822
   45CHL1   H1A 3301   0.482   2.928   2.940 -0.0697  2.3129 -0.8980
   45CHL1   H1B 3302   0.586   3.065   2.905 -0.4917  0.4795 -2.1216
   45CHL1    C2 3303   0.576   2.893   2.755 -0.0045  0.0700  0.2951
   45CHL1   H2A 3304   0.489   2.942   2.705  0.2076 -0.0594 -0.2033
   45CHL1   H2B 3305   0.550   2.785   2.760  0.1462 -0.0625 -1.1684
   45CHL1   C20 3306   0.698   2.987   3.680  0.5521 -0.3662 -0.4065
   45CHL1   H20 3307   0.716   2.877   3.684 -0.0601 -0.4912 -1.0007
   45CHL1   C21 3308   0.545   3.016   3.689  0.0901 -0.2884 -0.3107
   45CHL1  H21A 3309   0.486   2.958   3.614 -0.2258  0.9555 -1.0505
   45CHL1  H21B 3310   0.515   3.116   3.653 -3.5587 -1.3870 -0.6989
   45CHL1  H21C 3311   0.513   2.996   3.794  1.5225  1.2761  0.4628
   45CHL1   C22 3312   0.770   3.048   3.803  0.2878 -0.1216 -0.1353
   45CHL1  H22A 3313   0.881   3.040   3.793  0.2489  0.4668 -1.1210
   45CHL1  H22B 3314   0.745   3.156   3.796  0.3658 -0.0638  0.4382
   45CHL1   C23 3315   0.718   2.992   3.940  0.7791 -0.3908 -1.4949
   45CHL1  H23A 3316   0.608   2.996   3.954  0.5214  0.4960 -3.4418
   45CHL1  H23B 3317   0.733   2.882   3.951 -0.1444 -0.3022  1.5419
   45CHL1   C24 3318   0.796   3.064   4.053  0.3538  0.2818 -0.6905
   45CHL1  H24A 3319   0.900   3.025   4.044 -0.2473 -2.2676  1.8954
   45CHL1  H24B 3320   0.786   3.174   4.037 -2.5501  0.1279 -0.4091
   45CHL1   C25 3321   0.758   3.031   4.194 -0.2090  0.3530  0.1769
   45CHL1   H25 3322   0.763   2.924   4.223 -2.4046 -0.2193 -1.3487
   45CHL1   C26 3323   0.845   3.107   4.298  0.6829 -0.5230  0.9018
   45CHL1  H26A 3324   0.953   3.101   4.271  0.6780  1.0296  0.4247
   45CHL1  H26B 3325   0.816   3.214   4.290  1.8179 -0.2844 -0.4406
   45CHL1  H26C 3326   0.829   3.074   4.402 -0.9742  1.0499  1.1932
   45CHL1   C27 3327   0.611   3.066   4.240 -0.2348 -0.1878 -0.0322
   45CHL1  H27A 3328   0.538   3.023   4.167 -1.1584  0.8146  0.2806
   45CHL1  H27B 3329   0.593   3.009   4.333 -3.1659  2.2054  1.0409
   45CHL1  H27C 3330   0.605   3.176   4.253  2.0164  0.1539 -1.3981
   46CHL1    C3 3331   3.960   0.871   2.400  0.2058 -0.0227 -0.0462
   46CHL1    H3 3332   3.927   0.768   2.424  0.8528  0.1990  2.0428
   46CHL1    O3 3333   3.977   0.880   2.258 -0.4549  0.1998  0.2083
   46CHL1   H3' 3334   3.915   0.821   2.216  0.9846 -2.0119  0.9739
   46CHL1    C4 3335   3.849   0.974   2.440 -1.0985  0.2740 -0.1823
   46CHL1   H4A 3336   3.880   1.071   2.398 -0.0647  1.3043  2.6973
   46CHL1   H4B 3337   3.766   0.924   2.386  0.4605 -2.3219 -0.3308
   46CHL1    C5 3338   3.831   0.985   2.585 -0.0828 -0.3330 -0.1089
   46CHL1    C6 3339   3.705   0.966   2.649 -0.0047 -0.0621  0.1260
   46CHL1    H6 3340   3.622   0.929   2.588  2.2085 -3.1211 -1.3131
   46CHL1    C7 3341   3.682   1.000   2.792  0.3246 -0.1537 -0.7266
   46CHL1   H7A 3342   3.583   1.046   2.815 -0.4524 -1.9831 -0.1895
   46CHL1   H7B 3343   3.666   0.906   2.849  0.4742  1.5326  2.3334
   46CHL1    C8 3344   3.797   1.059   2.870  0.3835  0.4366  0.1694
   46CHL1    H8 3345   3.808   1.167   2.845  0.4577  0.7050  1.2745
   46CHL1   C14 3346   3.770   1.036   3.017  0.2296 -0.4684 -1.1193
   46CHL1   H14 3347   3.789   0.929   3.036  0.7325 -0.3054 -0.6718
   46CHL1   C15 3348   3.631   1.060   3.086 -0.5044  0.3269  1.1678
   46CHL1  H15A 3349   3.588   1.146   3.031  1.5633  0.3603 -0.5380
   46CHL1  H15B 3350   3.570   0.969   3.069  0.3082 -0.2654  1.3402
   46CHL1   C16 3351   3.660   1.085   3.232  0.8645 -0.0314  0.3802
   46CHL1  H16A 3352   3.623   1.190   3.237 -1.8341 -0.7585 -1.7912
   46CHL1  H16B 3353   3.600   1.020   3.299  1.0748  0.7334  1.3408
   46CHL1   C17 3354   3.812   1.062   3.256 -0.1785  1.1156  0.3987
   46CHL1   H17 3355   3.829   0.952   3.262  0.4009  1.1079 -1.0240
   46CHL1   C13 3356   3.872   1.097   3.110 -0.9312 -0.6560 -0.4516
   46CHL1   C18 3357   3.878   1.254   3.105  0.0144  0.2432 -0.1264
   46CHL1  H18A 3358   3.966   1.294   3.160 -0.7705  4.0027 -1.3116
   46CHL1  H18B 3359   3.890   1.287   2.999 -0.1532  0.1048 -0.1900
   46CHL1  H18C 3360   3.789   1.300   3.152 -0.1082  0.0819 -0.1977
   46CHL1   C12 3361   4.009   1.029   3.077  0.1163  0.3780  0.1120
   46CHL1  H12A 3362   4.093   1.073   3.134  0.0075  1.1852 -0.3308
   46CHL1  H12B 3363   4.000   0.920   3.095 -2.0359  0.0931 -2.0746
   46CHL1   C11 3364   4.042   1.047   2.927  0.2676 -0.3639 -0.7622
   46CHL1  H11A 3365   4.048   1.156   2.909 -1.4544 -0.2652 -0.8722
   46CHL1  H11B 3366   4.148   1.015   2.916  0.3850 -1.5467  2.5723
   46CHL1    C9 3367   3.934   0.995   2.833 -0.0279 -0.0706  0.2292
   46CHL1    H9 3368   3.934   0.888   2.864  1.5880  0.1043  0.9341
   46CHL1   C10 3369   3.962   1.014   2.679 -0.3998 -0.0635  0.0721
   46CHL1   C19 3370   4.000   1.163   2.641 -0.1629 -0.1797 -0.1474
   46CHL1  H19A 3371   4.032   1.153   2.536 -2.6513 -2.2419 -0.7977
   46CHL1  H19B 3372   3.912   1.230   2.654  1.1360  1.5170  0.3847
   46CHL1  H19C 3373   4.084   1.194   2.708 -0.0689 -1.8324  0.5414
   46CHL1    C1 3374   4.070   0.911   2.630  0.0075  0.9044  0.2414
   46CHL1   H1A 3375   4.166   0.948   2.671 -0.9212  1.3436  2.1311
   46CHL1   H1B 3376   4.047   0.808   2.663 -1.0232  0.5583 -1.4553
   46CHL1    C2 3377   4.088   0.903   2.475 -0.1134  0.4119 -0.0102
   46CHL1   H2A 3378   4.153   0.818   2.448 -1.0081 -0.0605 -0.7319
   46CHL1   H2B 3379   4.137   0.994   2.433  0.7334 -0.5611 -1.1820
   46CHL1   C20 3380   3.865   1.126   3.379  0.6984 -0.1864  0.2791
   46CHL1   H20 3381   3.855   1.236   3.381  0.4174 -0.2166  1.6254
   46CHL1   C21 3382   4.008   1.076   3.404  0.5581  0.7472  0.0863
   46CHL1  H21A 3383   4.078   1.117   3.329 -0.2086 -0.6528 -1.4484
   46CHL1  H21B 3384   3.995   0.968   3.384  0.6167  0.8485 -0.5120
   46CHL1  H21C 3385   4.045   1.089   3.508  0.4652  1.7374  0.0058
   46CHL1   C22 3386   3.776   1.095   3.500 -0.1137 -0.3063 -0.5793
   46CHL1  H22A 3387   3.672   1.133   3.492 -0.5381 -1.2666  0.2361
   46CHL1  H22B 3388   3.755   0.986   3.502  1.0376 -0.5624  2.2511
   46CHL1   C23 3389   3.807   1.152   3.642 -0.5291  0.3634  0.3084
   46CHL1  H23A 3390   3.885   1.089   3.689 -0.0368  1.3046  0.7738
   46CHL1  H23B 3391   3.860   1.249   3.633  0.0501  0.0221 -0.0195
   46CHL1   C24 3392   3.689   1.147   3.740 -0.3581  1.2448 -0.4511
   46CHL1  H24A 3393   3.596   1.189   3.695 -2.1887 -0.2723  1.6858
   46CHL1  H24B 3394   3.657   1.043   3.763  0.8406  1.0466  0.4028
   46CHL1   C25 3395   3.716   1.224   3.870 -0.1604  0.5156 -0.3494
   46CHL1   H25 3396   3.769   1.317   3.839  0.9607 -0.5594 -1.7777
   46CHL1   C26 3397   3.592   1.260   3.943  0.1045 -0.1191  0.0831
   46CHL1  H26A 3398   3.614   1.280   4.050 -1.4847  1.7851  0.1181
   46CHL1  H26B 3399   3.541   1.349   3.900 -1.8356 -0.3988  1.6549
   46CHL1  H26C 3400   3.519   1.176   3.946 -1.5231  1.2209 -0.3420
   46CHL1   C27 3401   3.820   1.153   3.963  1.0575 -0.3225 -0.2473
   46CHL1  H27A 3402   3.819   1.208   4.059 -0.3804  0.4482 -0.6582
   46CHL1  H27B 3403   3.784   1.049   3.977  0.4207 -0.9597 -4.8723
   46CHL1  H27C 3404   3.914   1.144   3.906 -0.6084 -0.1185 -3.2500
   47CHL1    C3 3405   2.984   0.957   2.817  0.9222 -0.0409  1.2290
   47CHL1    H3 3406   2.980   1.067   2.804  0.0092 -0.1360  0.6192
   47CHL1    O3 3407   2.967   0.896   2.687 -0.0489  0.2812 -0.0418
   47CHL1   H3' 3408   2.951   0.807   2.719 -0.8442  0.3100 -0.3425
   47CHL1    C4 3409   3.120   0.923   2.872  0.1472  0.1285  0.6402
   47CHL1   H4A 3410   3.128   0.814   2.851 -1.2208  0.0208  0.5741
   47CHL1   H4B 3411   3.199   0.961   2.804 -0.2366 -0.3972 -0.1097
   47CHL1    C5 3412   3.134   0.953   3.017 -0.1204 -0.3351 -0.6552
   47CHL1    C6 3413   3.242   1.029   3.054  0.1360 -0.2991  0.1036
   47CHL1    H6 3414   3.322   1.056   2.983  1.0119 -0.6219  0.9442
   47CHL1    C7 3415   3.268   1.070   3.199  0.2537  0.0073  0.7922
   47CHL1   H7A 3416   3.375   1.067   3.228  0.2907 -3.4904  0.7825
   47CHL1   H7B 3417   3.240   1.177   3.208 -1.4801 -0.4930  1.6958
   47CHL1    C8 3418   3.177   0.994   3.301  0.3003 -0.3100  0.2369
   47CHL1    H8 3419   3.219   0.894   3.325 -0.8568 -0.6923  0.7362
   47CHL1   C14 3420   3.181   1.068   3.437  0.3282  0.1182  0.6138
   47CHL1   H14 3421   3.142   1.171   3.423 -1.9347 -0.7720 -0.1044
   47CHL1   C15 3422   3.319   1.095   3.495  0.5207 -0.3683 -0.4224
   47CHL1  H15A 3423   3.384   1.005   3.499 -1.0436 -1.5379 -0.3751
   47CHL1  H15B 3424   3.372   1.169   3.431 -2.1975  1.0533 -1.1439
   47CHL1   C16 3425   3.279   1.146   3.634  0.5991  0.2638  0.5068
   47CHL1  H16A 3426   3.349   1.102   3.708 -0.1720 -1.2926  0.3475
   47CHL1  H16B 3427   3.285   1.255   3.652  1.1076 -0.0959  2.8425
   47CHL1   C17 3428   3.130   1.102   3.663  0.6651 -0.5751 -0.5351
   47CHL1   H17 3429   3.081   1.200   3.647  0.2069 -0.6635  0.2561
   47CHL1   C13 3430   3.096   1.006   3.550 -0.1789  0.0019  0.1085
   47CHL1   C18 3431   3.157   0.869   3.577 -0.0072  0.6715 -0.1909
   47CHL1  H18A 3432   3.113   0.814   3.663  3.3451 -1.7333  0.1793
   47CHL1  H18B 3433   3.138   0.794   3.497  0.0247 -2.2772  2.3839
   47CHL1  H18C 3434   3.264   0.873   3.607 -0.6633  1.0988  2.2994
   47CHL1   C12 3435   2.947   1.008   3.499 -1.0528  0.8011  0.0763
   47CHL1  H12A 3436   2.881   0.962   3.576  1.2258 -0.4300  1.4058
   47CHL1  H12B 3437   2.910   1.112   3.500  0.6293  1.4564 -0.9782
   47CHL1   C11 3438   2.937   0.932   3.363  0.3662  0.4043  0.3538
   47CHL1  H11A 3439   2.951   0.823   3.377  0.2298  0.4773  1.0543
   47CHL1  H11B 3440   2.831   0.949   3.334  0.5326  0.4898 -0.2356
   47CHL1    C9 3441   3.037   0.981   3.249  0.3669  0.7697  0.7693
   47CHL1    H9 3442   3.006   1.087   3.233 -0.9768  0.1944 -0.7416
   47CHL1   C10 3443   3.025   0.906   3.115 -0.2446 -0.5618 -0.2112
   47CHL1   C19 3444   3.032   0.754   3.137 -0.3762  0.3105  0.1286
   47CHL1  H19A 3445   2.938   0.722   3.187  1.0178 -2.1900  1.3970
   47CHL1  H19B 3446   3.042   0.693   3.045 -3.1667  0.0383 -0.0543
   47CHL1  H19C 3447   3.112   0.730   3.211 -0.3805 -0.4497 -0.1028
   47CHL1    C1 3448   2.899   0.958   3.050  0.2560 -0.7509  0.0779
   47CHL1   H1A 3449   2.814   0.928   3.115  1.1525  0.1092  1.7011
   47CHL1   H1B 3450   2.897   1.069   3.047  1.4868 -0.7398 -0.8764
   47CHL1    C2 3451   2.864   0.907   2.906 -0.0317 -0.0931  0.5141
   47CHL1   H2A 3452   2.774   0.964   2.875  0.9897  1.5615  0.4484
   47CHL1   H2B 3453   2.862   0.797   2.917 -1.4868 -0.1871 -0.4753
   47CHL1   C20 3454   3.103   1.066   3.810  0.8040 -0.6323  0.7053
   47CHL1   H20 3455   3.173   0.985   3.839  3.1295  0.3851 -1.6183
   47CHL1   C21 3456   2.952   1.025   3.827  0.7163  0.9151 -0.1091
   47CHL1  H21A 3457   2.936   0.934   3.767 -0.5938  0.3001  1.1216
   47CHL1  H21B 3458   2.884   1.104   3.788 -1.6036 -1.2588 -0.7017
   47CHL1  H21C 3459   2.931   0.989   3.930  1.7811 -1.7876 -0.7577
   47CHL1   C22 3460   3.129   1.190   3.901 -0.2497 -0.0517  0.0566
   47CHL1  H22A 3461   3.233   1.226   3.890  0.0933 -1.0948 -0.1622
   47CHL1  H22B 3462   3.049   1.260   3.867  0.4302  0.5999 -0.2343
   47CHL1   C23 3463   3.102   1.167   4.051 -0.3975 -0.3567 -0.1222
   47CHL1  H23A 3464   2.994   1.147   4.060 -0.2234 -1.3952 -0.2409
   47CHL1  H23B 3465   3.157   1.076   4.083 -1.5023 -1.4691 -1.2541
   47CHL1   C24 3466   3.141   1.278   4.151  0.3539  0.0493  0.5138
   47CHL1  H24A 3467   3.252   1.281   4.159  0.3629 -1.8396  1.5945
   47CHL1  H24B 3468   3.111   1.368   4.093 -0.7876 -1.4895 -1.4037
   47CHL1   C25 3469   3.073   1.270   4.280 -0.2244 -0.3343 -1.5298
   47CHL1   H25 3470   3.064   1.163   4.308 -3.1528 -0.0194 -0.9153
   47CHL1   C26 3471   3.157   1.342   4.387  0.1889 -0.1180 -0.1845
   47CHL1  H26A 3472   3.172   1.448   4.359  0.3213 -0.7676 -2.8511
   47CHL1  H26B 3473   3.104   1.348   4.485  0.2465  0.3510 -0.1820
   47CHL1  H26C 3474   3.258   1.297   4.400 -0.5531 -1.7118  0.4085
   47CHL1   C27 3475   2.931   1.326   4.276 -0.0729 -0.4769 -0.3416
   47CHL1  H27A 3476   2.914   1.426   4.233 -1.6683 -0.6375 -0.1691
   47CHL1  H27B 3477   2.865   1.265   4.210 -1.7099  0.0998  0.6966
   47CHL1  H27C 3478   2.881   1.317   4.375  1.0154 -1.3451  0.1498
   48CHL1    C3 3479   4.317   6.491   2.572  0.1456  0.0533 -0.7668
   48CHL1    H3 3480   4.415   6.536   2.597 -0.0954 -0.5706  1.5320
   48CHL1    O3 3481   4.298   6.486   2.433  0.3699 -0.2136  0.2024
   48CHL1   H3' 3482   4.218   6.437   2.414 -2.1494  3.1304  1.0529
   48CHL1    C4 3483   4.311   6.348   2.630  0.5748 -0.4596  0.5838
   48CHL1   H4A 3484   4.209   6.305   2.620  0.1131  0.9761 -1.9044
   48CHL1   H4B 3485   4.388   6.288   2.578 -0.3539 -2.4445  1.4164
   48CHL1    C5 3486   4.335   6.359   2.777 -1.0411 -0.3467 -0.2999
   48CHL1    C6 3487   4.446   6.311   2.831 -0.5006 -0.6174 -0.0110
   48CHL1    H6 3488   4.517   6.251   2.771  2.2396  0.6737  1.7281
   48CHL1    C7 3489   4.484   6.313   2.976  0.2142  0.0754 -1.0416
   48CHL1   H7A 3490   4.528   6.219   3.016  2.3571  0.2544 -2.7733
   48CHL1   H7B 3491   4.569   6.384   2.990 -0.9663  1.2308  0.5359
   48CHL1    C8 3492   4.372   6.365   3.068 -0.1445 -0.0729 -0.1849
   48CHL1    H8 3493   4.301   6.282   3.084  0.3384 -0.6068 -0.7519
   48CHL1   C14 3494   4.428   6.420   3.202  0.5979 -0.6079  0.0156
   48CHL1   H14 3495   4.483   6.510   3.166  0.1556 -0.0643  0.6486
   48CHL1   C15 3496   4.538   6.341   3.275 -0.0693  0.3087  1.0755
   48CHL1  H15A 3497   4.522   6.232   3.271 -0.6347  0.4176 -1.1045
   48CHL1  H15B 3498   4.633   6.358   3.219 -1.3832  1.4215 -0.9699
   48CHL1   C16 3499   4.534   6.398   3.419  0.7613  0.5078 -0.3672
   48CHL1  H16A 3500   4.509   6.316   3.489  1.3140  0.0218 -0.7318
   48CHL1  H16B 3501   4.630   6.444   3.450  1.0335  2.2134 -3.2994
   48CHL1   C17 3502   4.430   6.507   3.425  0.2288 -0.0758  0.1602
   48CHL1   H17 3503   4.478   6.601   3.391  0.8139 -0.6400 -0.5976
   48CHL1   C13 3504   4.327   6.472   3.310  0.4369  0.0388 -0.0961
   48CHL1   C18 3505   4.236   6.363   3.361 -0.3105  1.0266 -0.0575
   48CHL1  H18A 3506   4.296   6.282   3.408 -3.4654 -1.3345  0.2827
   48CHL1  H18B 3507   4.163   6.399   3.437 -0.7563  2.6935 -1.2307
   48CHL1  H18C 3508   4.176   6.314   3.281 -0.3752 -0.3936  0.8157
   48CHL1   C12 3509   4.245   6.583   3.239  0.0437  0.1901  0.5056
   48CHL1  H12A 3510   4.160   6.619   3.301  0.4610 -1.7775  2.2803
   48CHL1  H12B 3511   4.310   6.672   3.222 -0.0906  0.3101  0.6139
   48CHL1   C11 3512   4.188   6.544   3.105  0.5039 -0.3270  0.2567
   48CHL1  H11A 3513   4.110   6.467   3.121  0.8891 -0.9397 -0.7573
   48CHL1  H11B 3514   4.149   6.632   3.048 -2.3055 -1.3008  0.5203
   48CHL1    C9 3515   4.295   6.483   3.003  0.3259 -1.1702 -0.1871
   48CHL1    H9 3516   4.369   6.565   2.994  0.3435 -1.1719 -0.0555
   48CHL1   C10 3517   4.240   6.457   2.855  0.0226 -0.6251 -0.3574
   48CHL1   C19 3518   4.105   6.380   2.856  0.6708  0.8055  0.0309
   48CHL1  H19A 3519   4.022   6.454   2.863 -0.4109 -0.3757  0.2000
   48CHL1  H19B 3520   4.081   6.300   2.783 -0.1907  0.2783  0.8718
   48CHL1  H19C 3521   4.095   6.332   2.955 -0.5952  0.8856 -0.0418
   48CHL1    C1 3522   4.216   6.589   2.780  0.2267 -0.1017  0.0739
   48CHL1   H1A 3523   4.124   6.637   2.820  1.6893  1.3905  1.7841
   48CHL1   H1B 3524   4.295   6.661   2.812  0.8821 -1.2985  1.2156
   48CHL1    C2 3525   4.208   6.581   2.626  0.5407  0.5577 -0.4397
   48CHL1   H2A 3526   4.207   6.683   2.583 -0.8463  0.8982  0.3084
   48CHL1   H2B 3527   4.112   6.532   2.596  1.3255 -0.7639 -0.8751
   48CHL1   C20 3528   4.379   6.547   3.571 -0.0927  0.1295 -0.2427
   48CHL1   H20 3529   4.297   6.474   3.589 -1.0864  1.3271  0.2220
   48CHL1   C21 3530   4.320   6.688   3.555  0.5184 -0.0367  0.2702
   48CHL1  H21A 3531   4.261   6.706   3.463  0.7772 -0.8076 -0.0499
   48CHL1  H21B 3532   4.409   6.754   3.563  1.2929 -1.1549  1.2058
   48CHL1  H21C 3533   4.257   6.706   3.646  0.5131 -0.2482  0.3075
   48CHL1   C22 3534   4.472   6.547   3.694 -0.0536 -0.2088 -0.1404
   48CHL1  H22A 3535   4.533   6.455   3.700  1.6958  0.8798 -0.3888
   48CHL1  H22B 3536   4.544   6.630   3.677  1.9490 -1.9414 -0.5468
   48CHL1   C23 3537   4.388   6.556   3.826  0.7657 -0.2677 -0.6741
   48CHL1  H23A 3538   4.328   6.649   3.834 -1.4481 -1.6596 -0.3145
   48CHL1  H23B 3539   4.320   6.469   3.818  0.1175  0.3437 -2.3182
   48CHL1   C24 3540   4.478   6.542   3.951 -0.4483  0.2427  0.0860
   48CHL1  H24A 3541   4.542   6.455   3.926  2.8539  2.2819  0.7868
   48CHL1  H24B 3542   4.547   6.628   3.966  0.9111 -0.8402  0.3276
   48CHL1   C25 3543   4.412   6.538   4.090  0.9589 -0.5804 -0.5496
   48CHL1   H25 3544   4.347   6.448   4.097 -0.6935  0.5698 -0.4588
   48CHL1   C26 3545   4.526   6.541   4.197 -0.2407  0.2708  0.1195
   48CHL1  H26A 3546   4.605   6.467   4.172 -1.0324  0.2067 -2.5132
   48CHL1  H26B 3547   4.568   6.643   4.205 -0.2925  0.2390  0.8412
   48CHL1  H26C 3548   4.470   6.508   4.287  1.2187  0.8093  1.2447
   48CHL1   C27 3549   4.318   6.663   4.118 -0.4738 -0.4403 -0.1841
   48CHL1  H27A 3550   4.231   6.641   4.053 -0.9233 -0.7957  0.5268
   48CHL1  H27B 3551   4.281   6.660   4.223  2.2482 -3.5965  0.8920
   48CHL1  H27C 3552   4.371   6.759   4.099 -0.4837 -0.8735 -2.7442
   49CHL1    C3 3553   2.485   1.801   2.507 -0.5007  0.5875  0.5228
   49CHL1    H3 3554   2.493   1.910   2.527 -3.7037  0.8977  0.6314
   49CHL1    O3 3555   2.461   1.774   2.370  0.1880 -0.7749 -0.8624
   49CHL1   H3' 3556   2.447   1.679   2.362 -2.4518 -0.6713  1.2143
   49CHL1    C4 3557   2.609   1.731   2.559 -1.0325  0.0586  0.3616
   49CHL1   H4A 3558   2.601   1.621   2.560  3.3469 -0.4232  0.2187
   49CHL1   H4B 3559   2.690   1.754   2.486  0.1504  1.7588  2.0916
   49CHL1    C5 3560   2.625   1.770   2.696 -0.4207 -0.4499  0.6147
   49CHL1    C6 3561   2.749   1.812   2.734  0.6281 -0.2319  0.6772
   49CHL1    H6 3562   2.824   1.822   2.654  0.1465 -1.4059  0.0530
   49CHL1    C7 3563   2.792   1.844   2.875 -0.0198 -0.2000 -0.5243
   49CHL1   H7A 3564   2.894   1.804   2.895 -0.8946 -1.2073  2.4769
   49CHL1   H7B 3565   2.795   1.955   2.876 -1.6139 -0.1251  1.5378
   49CHL1    C8 3566   2.688   1.789   2.983 -0.1438  0.6101  0.1116
   49CHL1    H8 3567   2.710   1.681   2.994 -2.1474  0.0894 -0.6738
   49CHL1   C14 3568   2.713   1.860   3.109  0.0101 -0.4453  0.5967
   49CHL1   H14 3569   2.711   1.968   3.082  1.4560 -0.7348 -0.8610
   49CHL1   C15 3570   2.852   1.852   3.165 -0.0634 -0.2934  0.2025
   49CHL1  H15A 3571   2.893   1.750   3.176  1.0519  0.3054  1.9614
   49CHL1  H15B 3572   2.933   1.903   3.107  1.7093 -1.2988  1.6838
   49CHL1   C16 3573   2.830   1.916   3.302 -0.4713 -0.5962  0.1162
   49CHL1  H16A 3574   2.892   1.858   3.374 -2.0402 -1.1851  1.0393
   49CHL1  H16B 3575   2.865   2.022   3.301 -1.8459 -0.1217 -0.0827
   49CHL1   C17 3576   2.673   1.922   3.328 -0.2864  0.0449 -0.2848
   49CHL1   H17 3577   2.656   2.031   3.312 -1.1934  0.2400  1.7094
   49CHL1   C13 3578   2.606   1.828   3.221  0.3657 -0.2189 -0.2229
   49CHL1   C18 3579   2.614   1.682   3.267 -0.3816 -0.3823 -0.1517
   49CHL1  H18A 3580   2.605   1.609   3.184  3.3557 -0.0397 -1.0394
   49CHL1  H18B 3581   2.715   1.666   3.311  0.0041 -0.3628 -0.9955
   49CHL1  H18C 3582   2.533   1.665   3.341 -0.2955 -1.6538 -0.3285
   49CHL1   C12 3583   2.469   1.868   3.178  0.4366  0.0378  0.5496
   49CHL1  H12A 3584   2.386   1.822   3.237 -0.0362 -1.9003 -1.5239
   49CHL1  H12B 3585   2.451   1.976   3.159  0.0983 -0.3718 -1.5979
   49CHL1   C11 3586   2.436   1.792   3.039 -0.1285  0.0227 -0.8130
   49CHL1  H11A 3587   2.418   1.689   3.076 -2.3976  0.9631  0.9629
   49CHL1  H11B 3588   2.339   1.828   3.000  0.1405  0.0562 -1.4573
   49CHL1    C9 3589   2.540   1.821   2.933 -0.3154  0.0825 -0.2920
   49CHL1    H9 3590   2.536   1.931   2.912 -1.0427  0.0650 -0.2650
   49CHL1   C10 3591   2.515   1.752   2.800  0.2689 -0.4836 -0.3577
   49CHL1   C19 3592   2.493   1.604   2.840 -0.3597  0.4598  0.4444
   49CHL1  H19A 3593   2.455   1.544   2.755  1.6274 -2.8847  1.7231
   49CHL1  H19B 3594   2.594   1.560   2.851 -0.0597 -0.0401 -3.0748
   49CHL1  H19C 3595   2.410   1.582   2.911 -1.5045 -1.2323 -1.3138
   49CHL1    C1 3596   2.383   1.807   2.738 -0.3378  0.1930  0.3234
   49CHL1   H1A 3597   2.302   1.785   2.810 -0.7551 -0.3774 -0.3075
   49CHL1   H1B 3598   2.387   1.917   2.723  1.0331 -0.1706 -3.0412
   49CHL1    C2 3599   2.363   1.766   2.591 -0.1931  0.4151 -0.6025
   49CHL1   H2A 3600   2.266   1.806   2.553 -2.5858 -1.7926  2.6153
   49CHL1   H2B 3601   2.355   1.656   2.581  1.6989  0.3728 -2.0028
   49CHL1   C20 3602   2.630   1.920   3.474  0.0476  0.0196 -0.3809
   49CHL1   H20 3603   2.520   1.901   3.478 -0.2215  1.3041 -1.1383
   49CHL1   C21 3604   2.670   2.056   3.538  0.1027 -0.5215  0.2619
   49CHL1  H21A 3605   2.653   2.052   3.647 -2.2277 -0.3115 -0.0379
   49CHL1  H21B 3606   2.609   2.142   3.505  2.0437  0.1759 -1.7697
   49CHL1  H21C 3607   2.775   2.084   3.515 -0.3591 -1.0192 -2.9476
   49CHL1   C22 3608   2.697   1.813   3.564  0.5033 -0.5260  0.1037
   49CHL1  H22A 3609   2.697   1.717   3.508 -0.2228 -1.3109  1.3831
   49CHL1  H22B 3610   2.794   1.864   3.581 -0.6862  1.3172  1.8880
   49CHL1   C23 3611   2.622   1.801   3.698  0.4737  0.0606 -0.6774
   49CHL1  H23A 3612   2.583   1.898   3.737  1.2102 -0.4516  1.4537
   49CHL1  H23B 3613   2.528   1.742   3.687  0.2153  0.5893 -1.3616
   49CHL1   C24 3614   2.723   1.757   3.802 -0.5622 -0.2304 -0.3367
   49CHL1  H24A 3615   2.753   1.653   3.773 -2.0215 -0.3513 -1.5323
   49CHL1  H24B 3616   2.809   1.827   3.802 -1.2412  0.7027 -2.8878
   49CHL1   C25 3617   2.677   1.743   3.950  0.4141 -0.2130 -0.4834
   49CHL1   H25 3618   2.574   1.701   3.952 -0.3802  1.5428 -1.9214
   49CHL1   C26 3619   2.774   1.654   4.022 -0.7558  0.3591 -0.5263
   49CHL1  H26A 3620   2.858   1.719   4.053  1.1772 -0.8251 -2.8885
   49CHL1  H26B 3621   2.724   1.614   4.113 -1.4105 -0.4619 -1.2207
   49CHL1  H26C 3622   2.804   1.562   3.967  5.1056  0.5534  1.6611
   49CHL1   C27 3623   2.653   1.870   4.038  0.0534 -0.4618 -0.5802
   49CHL1  H27A 3624   2.573   1.942   4.010 -0.5471 -0.0268  1.9462
   49CHL1  H27B 3625   2.639   1.836   4.143  1.7317  1.1624  0.2274
   49CHL1  H27C 3626   2.740   1.937   4.052  1.6564 -2.6188  0.2841
   50CHL1    C3 3627   6.613   0.635   2.886 -0.3271 -0.1044 -0.0146
   50CHL1    H3 3628   6.527   0.703   2.867 -0.1964  0.4023  1.0931
   50CHL1    O3 3629   6.657   0.601   2.760  0.5206  0.0104 -0.1193
   50CHL1   H3' 3630   6.596   0.540   2.720 -2.0733  1.8315  0.7930
   50CHL1    C4 3631   6.718   0.710   2.970 -0.0485  0.2883 -0.3529
   50CHL1   H4A 3632   6.819   0.664   2.965 -0.7409 -1.2546 -0.7967
   50CHL1   H4B 3633   6.737   0.800   2.907 -0.9846 -0.1726 -1.3215
   50CHL1    C5 3634   6.671   0.758   3.103  0.3595  1.2368 -0.2331
   50CHL1    C6 3635   6.660   0.890   3.141 -0.7646 -0.2466  0.8474
   50CHL1    H6 3636   6.703   0.959   3.067 -1.4559  0.5685  1.1882
   50CHL1    C7 3637   6.624   0.938   3.280 -0.2326  0.7306 -0.2033
   50CHL1   H7A 3638   6.698   1.017   3.300  0.1415  0.6227 -1.1220
   50CHL1   H7B 3639   6.521   0.979   3.286 -0.8933 -0.9353  0.7074
   50CHL1    C8 3640   6.642   0.822   3.388  0.1491  0.3144 -0.0343
   50CHL1    H8 3641   6.749   0.795   3.401 -0.3678 -1.4656  0.7415
   50CHL1   C14 3642   6.583   0.862   3.518  0.1981  0.5125  1.0385
   50CHL1   H14 3643   6.480   0.880   3.481 -0.3878  0.8453  2.7198
   50CHL1   C15 3644   6.630   0.991   3.597 -0.2896 -0.5464 -0.3285
   50CHL1  H15A 3645   6.741   0.986   3.600 -0.1270 -0.2979 -3.2176
   50CHL1  H15B 3646   6.597   1.085   3.547 -1.7089 -2.4231 -3.2523
   50CHL1   C16 3647   6.567   0.971   3.742 -0.1414 -0.4775  0.2630
   50CHL1  H16A 3648   6.649   0.995   3.812 -1.6732  0.8345  1.7189
   50CHL1  H16B 3649   6.486   1.046   3.762 -0.9865 -0.8180 -1.5970
   50CHL1   C17 3650   6.504   0.829   3.742 -0.6837 -0.0856  0.2042
   50CHL1   H17 3651   6.398   0.838   3.711 -0.9622 -0.8767  0.8954
   50CHL1   C13 3652   6.568   0.748   3.627  0.9108  0.1416 -0.1368
   50CHL1   C18 3653   6.709   0.701   3.665 -0.4999 -0.0383  0.0295
   50CHL1  H18A 3654   6.763   0.681   3.570 -0.5660 -0.6541  0.1123
   50CHL1  H18B 3655   6.747   0.796   3.706 -0.6764 -0.0302  0.1759
   50CHL1  H18C 3656   6.724   0.615   3.734  1.2878 -0.4370 -0.8090
   50CHL1   C12 3657   6.489   0.635   3.566  0.0108 -0.3881  0.0319
   50CHL1  H12A 3658   6.505   0.537   3.617 -0.4712 -1.7418 -2.2766
   50CHL1  H12B 3659   6.379   0.652   3.561  0.0631  0.2717  0.8769
   50CHL1   C11 3660   6.539   0.590   3.425 -0.1872 -0.0263  0.2208
   50CHL1  H11A 3661   6.626   0.526   3.451 -0.9144 -1.2057 -0.1757
   50CHL1  H11B 3662   6.468   0.515   3.384  1.7472 -0.8481 -1.8660
   50CHL1    C9 3663   6.565   0.696   3.327  0.5652 -0.4391  0.3273
   50CHL1    H9 3664   6.464   0.735   3.302 -0.3123 -1.8385  1.5024
   50CHL1   C10 3665   6.626   0.644   3.191 -0.0883 -0.1514 -0.1486
   50CHL1   C19 3666   6.758   0.570   3.228  0.5100 -0.3933 -0.1030
   50CHL1  H19A 3667   6.752   0.482   3.295  1.2625  1.1691  2.1323
   50CHL1  H19B 3668   6.810   0.541   3.133  0.5201  1.5505 -0.7349
   50CHL1  H19C 3669   6.825   0.643   3.278 -0.7623  2.0342 -1.7661
   50CHL1    C1 3670   6.521   0.552   3.108 -0.3407  0.5003 -0.1065
   50CHL1   H1A 3671   6.493   0.460   3.164  0.2091  0.3585 -0.0616
   50CHL1   H1B 3672   6.433   0.618   3.095 -0.0511  1.1617  1.2092
   50CHL1    C2 3673   6.569   0.517   2.966  0.3186  0.1071  0.1560
   50CHL1   H2A 3674   6.482   0.470   2.914 -0.3088  1.7427 -0.3325
   50CHL1   H2B 3675   6.658   0.451   2.978 -0.8694 -1.5931  0.0943
   50CHL1   C20 3676   6.520   0.764   3.890 -1.1747  0.6986  0.1426
   50CHL1   H20 3677   6.628   0.755   3.915 -1.6339 -0.7999  1.8308
   50CHL1   C21 3678   6.468   0.620   3.875  0.3188  0.5707  0.2544
   50CHL1  H21A 3679   6.379   0.608   3.810  1.1314 -2.2143 -0.5066
   50CHL1  H21B 3680   6.440   0.586   3.977  3.4374  0.2670  1.1076
   50CHL1  H21C 3681   6.544   0.550   3.834 -1.4987 -0.6948 -1.1188
   50CHL1   C22 3682   6.452   0.842   4.010 -0.0796 -0.1329 -0.3500
   50CHL1  H22A 3683   6.471   0.779   4.100 -0.1413 -0.3683 -0.5009
   50CHL1  H22B 3684   6.504   0.937   4.032 -1.1809  0.2941  0.5046
   50CHL1   C23 3685   6.307   0.868   4.017  0.7492  0.2345  0.7423
   50CHL1  H23A 3686   6.270   0.914   3.923  2.1589  0.5935  0.3338
   50CHL1  H23B 3687   6.256   0.770   4.030  1.6346 -0.5407 -1.1351
   50CHL1   C24 3688   6.263   0.968   4.130 -0.3158  0.6345  0.2733
   50CHL1  H24A 3689   6.315   0.926   4.219  0.9345 -0.0812 -0.7504
   50CHL1  H24B 3690   6.318   1.061   4.106  1.4768 -0.8187 -1.6967
   50CHL1   C25 3691   6.113   0.993   4.155  0.1242  0.7855 -0.0454
   50CHL1   H25 3692   6.112   1.071   4.234  0.8408 -1.1041  1.9580
   50CHL1   C26 3693   6.024   1.028   4.034 -0.2023  0.1408 -0.4193
   50CHL1  H26A 3694   6.013   0.942   3.965 -1.0033  0.0595 -0.1972
   50CHL1  H26B 3695   5.932   1.066   4.084  1.0167  0.8599  1.4046
   50CHL1  H26C 3696   6.069   1.105   3.968  0.0103 -1.0783 -1.7598
   50CHL1   C27 3697   6.050   0.871   4.237 -0.5632  0.5215  0.4144
   50CHL1  H27A 3698   6.120   0.833   4.315 -0.8964 -1.5038 -0.2027
   50CHL1  H27B 3699   5.953   0.887   4.289 -1.5852 -1.4462 -0.7642
   50CHL1  H27C 3700   6.030   0.789   4.165 -0.6342  1.9067 -1.2022
   51CHL1    C3 3701   0.751   1.298   3.057 -0.3098 -0.2848  0.3487
   51CHL1    H3 3702   0.812   1.391   3.053  0.6236 -0.9222 -1.4062
   51CHL1    O3 3703   0.739   1.258   2.919 -0.4759 -0.5519 -0.0316
   51CHL1   H3' 3704   0.656   1.211   2.904 -0.7203  0.5393 -2.7443
   51CHL1    C4 3705   0.818   1.185   3.138 -0.3861  0.0940  0.1538
   51CHL1   H4A 3706   0.751   1.099   3.121 -0.8848  0.5132 -0.0489
   51CHL1   H4B 3707   0.921   1.162   3.102 -0.4296 -0.9989  0.7120
   51CHL1    C5 3708   0.817   1.218   3.283  0.5851 -0.6623 -0.6067
   51CHL1    C6 3709   0.927   1.222   3.355 -0.4575  0.2120  0.8258
   51CHL1    H6 3710   1.014   1.176   3.306  0.4430  2.0324  0.6247
   51CHL1    C7 3711   0.945   1.237   3.502 -0.5106  0.7289 -0.3498
   51CHL1   H7A 3712   1.008   1.158   3.549 -1.0717  0.2003 -0.4676
   51CHL1   H7B 3713   0.989   1.338   3.510  0.4279  0.3795 -1.0215
   51CHL1    C8 3714   0.809   1.235   3.569  0.4741  0.0390 -0.7120
   51CHL1    H8 3715   0.773   1.131   3.572 -0.5666  0.3688 -1.4050
   51CHL1   C14 3716   0.825   1.286   3.712 -1.2481  0.0021  0.2207
   51CHL1   H14 3717   0.856   1.392   3.705  0.5440 -0.5487 -0.8665
   51CHL1   C15 3718   0.924   1.224   3.807  0.2776 -0.2155 -0.1718
   51CHL1  H15A 3719   0.932   1.114   3.803  0.2034 -0.2647  0.6872
   51CHL1  H15B 3720   1.020   1.275   3.781  0.7712 -0.6473  0.7416
   51CHL1   C16 3721   0.876   1.267   3.951  0.9173 -0.6782  0.4358
   51CHL1  H16A 3722   0.861   1.185   4.024  1.9355 -0.0131  1.4431
   51CHL1  H16B 3723   0.949   1.336   3.999  1.4856 -1.6835  1.0647
   51CHL1   C17 3724   0.741   1.351   3.921 -0.4653 -0.1359 -0.2930
   51CHL1   H17 3725   0.760   1.460   3.907  0.1746  0.3990  3.4774
   51CHL1   C13 3726   0.687   1.292   3.787 -0.3899 -0.0439 -0.2623
   51CHL1   C18 3727   0.629   1.150   3.814  0.7890  0.7060  0.2036
   51CHL1  H18A 3728   0.690   1.083   3.879 -1.1033  0.1866  1.5226
   51CHL1  H18B 3729   0.532   1.154   3.867  0.4203 -0.0955 -0.3856
   51CHL1  H18C 3730   0.617   1.093   3.719 -0.9797 -0.9155  1.3313
   51CHL1   C12 3731   0.589   1.386   3.705 -0.5697 -0.2067 -0.2804
   51CHL1  H12A 3732   0.487   1.399   3.746 -0.8394 -0.4454 -0.8716
   51CHL1  H12B 3733   0.636   1.486   3.700 -0.3578 -0.0381  2.9343
   51CHL1   C11 3734   0.575   1.329   3.561  0.9624  0.8408 -0.3499
   51CHL1  H11A 3735   0.527   1.230   3.574 -1.4587  1.8225 -1.3446
   51CHL1  H11B 3736   0.504   1.393   3.506 -1.2349 -0.0888  1.2671
   51CHL1    C9 3737   0.703   1.315   3.490 -0.0796 -0.3363 -0.4926
   51CHL1    H9 3738   0.753   1.414   3.480  1.7196 -1.2069 -0.5394
   51CHL1   C10 3739   0.680   1.264   3.345  0.2801  0.0469  0.8512
   51CHL1   C19 3740   0.597   1.137   3.357  0.1516 -0.0755 -0.0448
   51CHL1  H19A 3741   0.498   1.153   3.405 -0.0286 -0.4144 -0.3000
   51CHL1  H19B 3742   0.577   1.089   3.259  2.0552  0.1842 -0.5866
   51CHL1  H19C 3743   0.640   1.058   3.422 -1.9217 -0.8746  0.4684
   51CHL1    C1 3744   0.607   1.374   3.252 -0.3047  0.0153 -0.5342
   51CHL1   H1A 3745   0.506   1.386   3.295 -0.0049  0.0170  0.1788
   51CHL1   H1B 3746   0.670   1.461   3.279  1.0278 -1.6467  2.0861
   51CHL1    C2 3747   0.610   1.340   3.106 -0.4121 -0.1711  0.3984
   51CHL1   H2A 3748   0.576   1.424   3.042  1.3772 -0.7858 -1.4449
   51CHL1   H2B 3749   0.548   1.250   3.086 -1.1014  0.9102 -3.1997
   51CHL1   C20 3750   0.640   1.346   4.040 -0.5665  0.4900  0.3634
   51CHL1   H20 3751   0.581   1.251   4.040  1.3232 -0.7374  0.9928
   51CHL1   C21 3752   0.552   1.464   4.016  0.1072 -0.4445  0.5389
   51CHL1  H21A 3753   0.525   1.484   3.910  0.8229 -0.3085  0.3762
   51CHL1  H21B 3754   0.589   1.558   4.062  1.5143 -0.6200 -0.1771
   51CHL1  H21C 3755   0.456   1.443   4.068 -0.0767  0.0305  0.3999
   51CHL1   C22 3756   0.708   1.364   4.180 -0.0443  0.1124 -0.8437
   51CHL1  H22A 3757   0.781   1.280   4.190 -0.2753  0.1232  1.4053
   51CHL1  H22B 3758   0.764   1.460   4.176 -0.1721  0.1613 -3.2831
   51CHL1   C23 3759   0.622   1.363   4.308 -0.4563  0.2914 -0.5295
   51CHL1  H23A 3760   0.536   1.431   4.290 -0.9385 -0.5294 -1.4243
   51CHL1  H23B 3761   0.580   1.262   4.327 -1.4659  0.5795 -1.1531
   51CHL1   C24 3762   0.702   1.402   4.438  0.9844  0.3994 -0.2245
   51CHL1  H24A 3763   0.795   1.342   4.437  0.1933 -0.8654 -0.2725
   51CHL1  H24B 3764   0.726   1.510   4.434  3.8046 -0.1893 -4.2648
   51CHL1   C25 3765   0.631   1.384   4.581 -0.1400  0.1663 -0.6622
   51CHL1   H25 3766   0.530   1.427   4.564 -0.8819 -1.0019  0.5414
   51CHL1   C26 3767   0.615   1.235   4.604  0.0283 -0.3596  0.4813
   51CHL1  H26A 3768   0.580   1.179   4.514  2.1178  0.8183 -1.1443
   51CHL1  H26B 3769   0.717   1.201   4.631  0.0045 -0.1078  0.9006
   51CHL1  H26C 3770   0.546   1.201   4.684 -0.4545  1.3131  0.8010
   51CHL1   C27 3771   0.712   1.462   4.692  0.4078 -0.1881 -0.4877
   51CHL1  H27A 3772   0.731   1.564   4.653  2.8515  0.2165  1.4891
   51CHL1  H27B 3773   0.650   1.466   4.784 -1.4352 -0.7546 -1.6454
   51CHL1  H27C 3774   0.807   1.411   4.718 -0.1436 -0.9489  0.0895
   52CHL1    C3 3775   6.820   4.469   2.964  0.0211 -0.1434 -0.1491
   52CHL1    H3 3776   6.763   4.561   2.940  1.6728  0.6708 -1.1774
   52CHL1    O3 3777   6.866   4.429   2.841  0.2108 -0.2771 -0.2634
   52CHL1   H3' 3778   6.911   4.349   2.869 -0.5958  0.2581  3.0207
   52CHL1    C4 3779   6.947   4.509   3.047  0.2591  0.0390  0.3745
   52CHL1   H4A 3780   7.012   4.420   3.048 -1.2418 -1.1638 -1.2941
   52CHL1   H4B 3781   6.997   4.586   2.984 -0.5485 -0.5718 -1.0637
   52CHL1    C5 3782   6.904   4.567   3.188  0.6359 -0.2540  0.5328
   52CHL1    C6 3783   6.926   4.699   3.216 -0.3218  0.9594  0.7157
   52CHL1    H6 3784   6.977   4.768   3.147  1.6546  1.7569  2.8459
   52CHL1    C7 3785   6.906   4.756   3.353 -0.5267  0.9681 -0.3312
   52CHL1   H7A 3786   6.986   4.817   3.400 -2.2855  3.9884 -0.9738
   52CHL1   H7B 3787   6.827   4.834   3.343 -2.2976 -0.6697  0.2030
   52CHL1    C8 3788   6.867   4.644   3.453  0.0514  0.2307  0.4992
   52CHL1    H8 3789   6.959   4.592   3.488 -1.7126 -0.7233  4.2220
   52CHL1   C14 3790   6.801   4.713   3.579  0.6901  0.1295  0.0505
   52CHL1   H14 3791   6.712   4.762   3.535  1.1905  0.6745 -0.3816
   52CHL1   C15 3792   6.869   4.836   3.645 -0.2929  0.5530 -0.4498
   52CHL1  H15A 3793   6.970   4.793   3.664  0.8774  3.0199 -0.7531
   52CHL1  H15B 3794   6.866   4.915   3.566  0.2328 -0.9092 -2.0071
   52CHL1   C16 3795   6.781   4.850   3.768 -0.0112 -0.3515 -0.1932
   52CHL1  H16A 3796   6.849   4.857   3.856 -0.2483 -2.0445  0.1572
   52CHL1  H16B 3797   6.718   4.941   3.758  1.1682  0.3614 -1.5397
   52CHL1   C17 3798   6.686   4.728   3.781 -0.0291  0.4141 -0.2220
   52CHL1   H17 3799   6.588   4.753   3.736  0.1071 -1.3162 -1.5668
   52CHL1   C13 3800   6.751   4.627   3.690  0.6498  0.0112  0.4098
   52CHL1   C18 3801   6.869   4.554   3.760 -0.2343  0.1964 -0.0957
   52CHL1  H18A 3802   6.939   4.620   3.815 -0.1793 -1.5215  2.0480
   52CHL1  H18B 3803   6.827   4.481   3.833  1.5622  0.9587  1.8051
   52CHL1  H18C 3804   6.936   4.500   3.690 -1.1331 -0.6683 -0.3061
   52CHL1   C12 3805   6.655   4.519   3.630 -0.0573  0.1045 -0.4038
   52CHL1  H12A 3806   6.625   4.440   3.701  1.1828 -0.2718 -0.2678
   52CHL1  H12B 3807   6.558   4.567   3.604  0.7370  1.2993 -1.2951
   52CHL1   C11 3808   6.709   4.443   3.510 -0.6883 -0.8327  0.6123
   52CHL1  H11A 3809   6.792   4.375   3.538 -0.3026 -0.4090  0.5101
   52CHL1  H11B 3810   6.627   4.387   3.461  0.5995 -0.5568 -2.0686
   52CHL1    C9 3811   6.769   4.542   3.400 -1.2424  0.3727  0.1839
   52CHL1    H9 3812   6.681   4.601   3.366 -2.2791 -1.4811 -0.4897
   52CHL1   C10 3813   6.818   4.467   3.269  0.3427  0.3536 -0.4423
   52CHL1   C19 3814   6.909   4.354   3.311  0.2164  0.8276  0.0042
   52CHL1  H19A 3815   6.847   4.279   3.364  3.3021 -0.2686  2.3322
   52CHL1  H19B 3816   6.950   4.307   3.219  0.1176 -0.5370  0.6307
   52CHL1  H19C 3817   6.994   4.380   3.377  0.0968  1.7495 -0.1831
   52CHL1    C1 3818   6.694   4.413   3.185 -0.1570  0.2169  0.1846
   52CHL1   H1A 3819   6.644   4.332   3.244 -0.8711  0.5316  0.0171
   52CHL1   H1B 3820   6.613   4.488   3.175 -1.3002 -1.0634 -0.4348
   52CHL1    C2 3821   6.738   4.370   3.045 -0.6226 -0.0492 -0.1381
   52CHL1   H2A 3822   6.652   4.353   2.976 -0.4436  0.4808 -0.5038
   52CHL1   H2B 3823   6.807   4.283   3.053  0.2608  0.5182 -1.2338
   52CHL1   C20 3824   6.656   4.681   3.919  0.3070  0.1613  0.0203
   52CHL1   H20 3825   6.736   4.625   3.972 -1.2983 -0.0831  2.3661
   52CHL1   C21 3826   6.536   4.584   3.920 -0.1854  0.6654  0.2222
   52CHL1  H21A 3827   6.490   4.571   4.020 -1.2535  0.6042 -0.2740
   52CHL1  H21B 3828   6.576   4.486   3.885  0.6728 -0.2306  3.3680
   52CHL1  H21C 3829   6.458   4.623   3.852 -3.4241 -0.6984  2.8710
   52CHL1   C22 3830   6.629   4.801   4.017  0.3858  0.1540 -0.1212
   52CHL1  H22A 3831   6.732   4.833   4.045  0.8824 -0.4993 -1.1161
   52CHL1  H22B 3832   6.578   4.887   3.969 -0.8114  0.2179  1.2171
   52CHL1   C23 3833   6.572   4.762   4.155  0.2023  0.2845 -0.1866
   52CHL1  H23A 3834   6.464   4.740   4.145 -0.1093  1.9838 -0.9300
   52CHL1  H23B 3835   6.625   4.672   4.191  0.3837  0.4030 -0.1548
   52CHL1   C24 3836   6.577   4.878   4.259 -0.9032 -0.1829 -0.2367
   52CHL1  H24A 3837   6.685   4.896   4.272 -0.6759 -1.6546  0.1001
   52CHL1  H24B 3838   6.523   4.964   4.214 -0.6411 -0.5165 -1.2244
   52CHL1   C25 3839   6.525   4.823   4.400  0.8935 -0.1877  0.1160
   52CHL1   H25 3840   6.418   4.807   4.374  0.2282  1.7046  1.3892
   52CHL1   C26 3841   6.597   4.693   4.442  0.5872 -0.4964 -0.1366
   52CHL1  H26A 3842   6.573   4.604   4.380  1.0755 -0.8889  0.2245
   52CHL1  H26B 3843   6.707   4.710   4.451  0.5494  0.8524 -1.7275
   52CHL1  H26C 3844   6.553   4.672   4.542  1.0436  2.3381  0.7354
   52CHL1   C27 3845   6.524   4.929   4.507 -0.0539 -0.0125  0.1332
   52CHL1  H27A 3846   6.477   4.882   4.596  0.8280  0.2871  0.7697
   52CHL1  H27B 3847   6.626   4.966   4.528  0.3990 -0.2802 -1.4957
   52CHL1  H27C 3848   6.473   5.021   4.473  1.7420  1.1778  0.5227
   53CHL1    C3 3849   2.369   1.074   2.888  0.3629 -0.5999 -0.6464
   53CHL1    H3 3850   2.288   1.012   2.933 -1.7930  2.8944  0.6632
   53CHL1    O3 3851   2.363   1.067   2.745  0.5372 -0.1074  0.0528
   53CHL1   H3' 3852   2.281   1.115   2.731  0.7742  0.4086  0.3800
   53CHL1    C4 3853   2.334   1.227   2.926 -0.4748  0.1523  0.4187
   53CHL1   H4A 3854   2.392   1.302   2.868 -0.0265  0.7928  1.6598
   53CHL1   H4B 3855   2.225   1.231   2.905 -0.5532  1.9741  0.9785
   53CHL1    C5 3856   2.344   1.257   3.073 -1.0839  0.0856  0.1191
   53CHL1    C6 3857   2.250   1.329   3.138 -0.5471 -0.6124 -0.1118
   53CHL1    H6 3858   2.156   1.342   3.083  1.2894 -1.2907 -3.6562
   53CHL1    C7 3859   2.263   1.361   3.285  0.0749 -0.8149  0.2479
   53CHL1   H7A 3860   2.230   1.466   3.302 -0.4173 -0.7926 -0.7850
   53CHL1   H7B 3861   2.185   1.299   3.333 -1.4833 -1.0954 -2.4600
   53CHL1    C8 3862   2.397   1.336   3.345 -0.3979 -0.4406  0.5502
   53CHL1    H8 3863   2.465   1.423   3.332  0.8966 -1.2482  1.5666
   53CHL1   C14 3864   2.381   1.341   3.497  0.0485 -0.3561 -0.4320
   53CHL1   H14 3865   2.314   1.258   3.529  1.5211 -0.7726  1.8077
   53CHL1   C15 3866   2.315   1.464   3.559 -0.0136 -0.2630 -0.2842
   53CHL1  H15A 3867   2.361   1.560   3.528  0.7344  0.4580  2.7382
   53CHL1  H15B 3868   2.205   1.470   3.541 -0.1483 -1.1465  0.2201
   53CHL1   C16 3869   2.341   1.446   3.708  0.8394 -0.3532  0.8407
   53CHL1  H16A 3870   2.388   1.541   3.744 -0.3562  0.1805  1.0190
   53CHL1  H16B 3871   2.247   1.423   3.762  0.4032  0.7652  0.5765
   53CHL1   C17 3872   2.445   1.329   3.724 -0.1784 -0.5045 -0.1332
   53CHL1   H17 3873   2.393   1.233   3.746 -0.6981 -0.6175 -1.6702
   53CHL1   C13 3874   2.503   1.320   3.578  0.5401 -0.5207  0.2849
   53CHL1   C18 3875   2.604   1.439   3.570  0.7504  0.2515  0.5021
   53CHL1  H18A 3876   2.694   1.416   3.631  0.6658 -0.1352  0.4843
   53CHL1  H18B 3877   2.638   1.441   3.465 -0.3864 -3.2107 -0.0653
   53CHL1  H18C 3878   2.573   1.539   3.608 -0.5077  0.5563 -1.2364
   53CHL1   C12 3879   2.570   1.192   3.528  0.1118 -0.8922  0.1317
   53CHL1  H12A 3880   2.670   1.177   3.573  1.4051  1.6542 -1.6089
   53CHL1  H12B 3881   2.504   1.112   3.567 -0.5259  0.2146  1.4121
   53CHL1   C11 3882   2.591   1.179   3.376  0.0959 -0.2572  0.9861
   53CHL1  H11A 3883   2.670   1.250   3.341 -1.3092  0.9192  0.0794
   53CHL1  H11B 3884   2.622   1.075   3.354 -0.2462  0.1614 -1.8581
   53CHL1    C9 3885   2.462   1.208   3.300  0.3134  0.0713  0.5186
   53CHL1    H9 3886   2.392   1.126   3.325  1.0253 -0.8085 -0.3267
   53CHL1   C10 3887   2.479   1.199   3.141  0.8053  0.1140 -0.1765
   53CHL1   C19 3888   2.602   1.283   3.097  0.3100 -0.3871  0.7793
   53CHL1  H19A 3889   2.594   1.308   2.989  0.1979  1.7825  1.2386
   53CHL1  H19B 3890   2.610   1.380   3.150  1.8833 -0.6214  1.0087
   53CHL1  H19C 3891   2.695   1.224   3.114  1.9317  1.8739  0.2355
   53CHL1    C1 3892   2.511   1.054   3.097 -0.1799  0.4256  0.2166
   53CHL1   H1A 3893   2.606   1.015   3.139  0.2382  0.8594 -0.3120
   53CHL1   H1B 3894   2.437   0.987   3.146 -0.8361  1.4396  0.6539
   53CHL1    C2 3895   2.510   1.040   2.946  1.0411  0.0512 -0.1995
   53CHL1   H2A 3896   2.531   0.935   2.918 -2.6175 -0.5051 -1.3981
   53CHL1   H2B 3897   2.581   1.110   2.898  0.2784  0.6398 -0.4921
   53CHL1   C20 3898   2.536   1.352   3.848  0.0160  0.3719 -0.0576
   53CHL1   H20 3899   2.577   1.455   3.841 -1.4140  0.9943  0.3817
   53CHL1   C21 3900   2.655   1.250   3.853 -1.0213 -0.0882  0.2488
   53CHL1  H21A 3901   2.724   1.273   3.937  3.0854 -0.2249 -2.7860
   53CHL1  H21B 3902   2.708   1.249   3.756  0.0850  0.3545  0.8388
   53CHL1  H21C 3903   2.615   1.147   3.865  0.4141 -0.5360  1.4526
   53CHL1   C22 3904   2.447   1.344   3.974 -0.3565 -0.0082  0.4539
   53CHL1  H22A 3905   2.364   1.418   3.968 -0.2229  0.3786  2.5402
   53CHL1  H22B 3906   2.396   1.246   3.987  0.4115 -0.5050 -0.2696
   53CHL1   C23 3907   2.533   1.366   4.104 -0.1449  0.1496  0.2095
   53CHL1  H23A 3908   2.607   1.284   4.114  1.2336  1.4470  0.9975
   53CHL1  H23B 3909   2.591   1.457   4.080  0.0451 -0.7864 -3.4507
   53CHL1   C24 3910   2.461   1.366   4.245  0.0542 -0.1167  0.0371
   53CHL1  H24A 3911   2.365   1.311   4.238 -0.5947  0.9132  0.6304
   53CHL1  H24B 3912   2.527   1.306   4.311 -0.6990 -1.1645 -0.1367
   53CHL1   C25 3913   2.431   1.507   4.296  0.0382 -0.1715 -0.1982
   53CHL1   H25 3914   2.381   1.558   4.212 -0.7456 -1.1806 -0.3578
   53CHL1   C26 3915   2.322   1.485   4.409 -0.1006 -0.0499  0.7330
   53CHL1  H26A 3916   2.275   1.579   4.446  0.8480 -0.1328  2.2404
   53CHL1  H26B 3917   2.239   1.420   4.375 -1.5833  2.4668 -0.7220
   53CHL1  H26C 3918   2.373   1.434   4.494  1.6758 -0.0227 -0.2608
   53CHL1   C27 3919   2.552   1.586   4.345  0.5204  0.0767 -0.3155
   53CHL1  H27A 3920   2.613   1.633   4.265 -0.4125 -3.0338 -3.0734
   53CHL1  H27B 3921   2.516   1.659   4.421 -1.4106 -0.2026 -0.8951
   53CHL1  H27C 3922   2.623   1.521   4.400  0.8349  0.4948 -0.2187
   54CHL1    C3 3923   2.054   0.602   2.745  0.3621  0.3715 -0.5892
   54CHL1    H3 3924   1.950   0.584   2.781 -0.4710 -0.1550 -2.9989
   54CHL1    O3 3925   2.080   0.561   2.612 -0.3962 -0.9083  0.1195
   54CHL1   H3' 3926   2.174   0.547   2.602 -0.4672 -1.3373  0.0486
   54CHL1    C4 3927   2.116   0.742   2.763  0.1061 -0.7410 -0.8202
   54CHL1   H4A 3928   2.224   0.748   2.737  0.6993  0.5342  1.6413
   54CHL1   H4B 3929   2.063   0.819   2.703 -0.2016  0.9344  1.4515
   54CHL1    C5 3930   2.103   0.783   2.910  0.1144 -0.1390  0.3021
   54CHL1    C6 3931   2.040   0.893   2.944  0.5070 -0.3204  0.3508
   54CHL1    H6 3932   2.015   0.963   2.863  3.0420 -0.6083 -0.7933
   54CHL1    C7 3933   2.032   0.939   3.081 -0.0986 -0.0922  0.6834
   54CHL1   H7A 3934   2.051   1.049   3.088  2.1348 -0.4566  1.1235
   54CHL1   H7B 3935   1.931   0.940   3.129  0.3574  1.4159  1.7113
   54CHL1    C8 3936   2.127   0.866   3.179 -0.4943  0.6356  0.0263
   54CHL1    H8 3937   2.235   0.884   3.164 -0.1578  0.3029  1.8435
   54CHL1   C14 3938   2.088   0.898   3.326 -0.0108  0.0934 -0.0266
   54CHL1   H14 3939   1.984   0.861   3.332 -0.3696  0.7375 -1.6970
   54CHL1   C15 3940   2.083   1.046   3.377  0.4882 -0.2876  0.5962
   54CHL1  H15A 3941   2.178   1.090   3.339  0.5739 -0.7732  0.2348
   54CHL1  H15B 3942   2.003   1.099   3.322  1.1165  0.1418  0.0769
   54CHL1   C16 3943   2.083   1.029   3.527  0.1750  0.3570 -0.8862
   54CHL1  H16A 3944   2.174   1.082   3.563 -0.7067  0.8190  0.7721
   54CHL1  H16B 3945   1.990   1.068   3.572 -0.2673 -1.2294 -0.3719
   54CHL1   C17 3946   2.098   0.872   3.554  0.6960  0.5945 -0.0890
   54CHL1   H17 3947   1.995   0.830   3.548  0.7351  0.6893 -1.6545
   54CHL1   C13 3948   2.169   0.816   3.433  0.2861 -0.4541 -0.0498
   54CHL1   C18 3949   2.321   0.851   3.446  0.1663 -0.0089  0.5955
   54CHL1  H18A 3950   2.329   0.951   3.494  0.4096 -1.0369  2.8150
   54CHL1  H18B 3951   2.365   0.774   3.513  0.8722 -0.3597 -0.2574
   54CHL1  H18C 3952   2.372   0.851   3.347  1.1842 -1.9871  1.0686
   54CHL1   C12 3953   2.163   0.672   3.404  0.0600  0.0469  0.5653
   54CHL1  H12A 3954   2.230   0.608   3.466 -1.6835 -1.2514  1.1987
   54CHL1  H12B 3955   2.068   0.618   3.422 -0.2811  0.6705  0.6619
   54CHL1   C11 3956   2.206   0.640   3.256  0.7600 -0.2942  0.3991
   54CHL1  H11A 3957   2.309   0.682   3.251  1.1252 -0.9023  2.0065
   54CHL1  H11B 3958   2.230   0.533   3.235 -0.0865  0.0156 -2.4280
   54CHL1    C9 3959   2.119   0.713   3.160 -0.1487 -0.7902  0.3038
   54CHL1    H9 3960   2.013   0.681   3.176 -0.0472 -0.6341  1.3897
   54CHL1   C10 3961   2.164   0.681   3.016  0.4673 -0.3454  0.7314
   54CHL1   C19 3962   2.317   0.689   2.996 -0.1373  0.3173  0.4117
   54CHL1  H19A 3963   2.360   0.787   3.024 -0.1618  0.2100  0.8425
   54CHL1  H19B 3964   2.363   0.612   3.063  1.7865 -0.7744 -1.9969
   54CHL1  H19C 3965   2.345   0.660   2.893 -0.1632 -0.1197  0.5244
   54CHL1    C1 3966   2.122   0.538   2.981 -0.3069 -0.1420 -0.2751
   54CHL1   H1A 3967   2.177   0.465   3.044 -1.6056 -0.5414  0.4302
   54CHL1   H1B 3968   2.015   0.520   3.001 -0.3554  1.0823  0.6710
   54CHL1    C2 3969   2.140   0.496   2.829 -0.0714  0.5448  0.7868
   54CHL1   H2A 3970   2.091   0.399   2.809 -1.4026  1.1120  1.1611
   54CHL1   H2B 3971   2.240   0.504   2.782 -1.7700  0.4056 -3.2335
   54CHL1   C20 3972   2.148   0.837   3.694  0.0877  1.0012  0.2074
   54CHL1   H20 3973   2.254   0.865   3.708  1.1544 -2.6214  0.2672
   54CHL1   C21 3974   2.142   0.687   3.727 -0.9625  0.2230  0.7484
   54CHL1  H21A 3975   2.036   0.654   3.724 -1.4255  1.6923  0.0370
   54CHL1  H21B 3976   2.195   0.665   3.822 -0.0342  2.2987  0.7759
   54CHL1  H21C 3977   2.206   0.634   3.653 -1.6768  2.7254 -1.8343
   54CHL1   C22 3978   2.054   0.913   3.794 -0.3792 -0.2059 -0.0728
   54CHL1  H22A 3979   2.078   1.021   3.795 -2.9296  0.4222  0.9152
   54CHL1  H22B 3980   1.947   0.886   3.783 -0.5498  0.7542 -0.9320
   54CHL1   C23 3981   2.080   0.885   3.949 -0.2241  0.2832  0.4034
   54CHL1  H23A 3982   2.015   0.946   4.016  0.0401 -0.8980  1.7893
   54CHL1  H23B 3983   2.058   0.777   3.968  0.1762  0.2137  0.4766
   54CHL1   C24 3984   2.224   0.897   3.986  0.2486 -0.3804  0.0410
   54CHL1  H24A 3985   2.291   0.833   3.925 -0.3809  1.1510 -2.4038
   54CHL1  H24B 3986   2.252   1.005   3.983 -1.4858  0.1740  1.7138
   54CHL1   C25 3987   2.256   0.841   4.130 -0.8513  0.0634 -0.5519
   54CHL1   H25 3988   2.241   0.731   4.135  0.9449 -0.1710  0.5002
   54CHL1   C26 3989   2.407   0.861   4.146 -0.2496  1.3123 -0.6746
   54CHL1  H26A 3990   2.433   0.969   4.132  0.4010  1.3827  0.8817
   54CHL1  H26B 3991   2.437   0.838   4.250  3.2709  3.4738 -1.0264
   54CHL1  H26C 3992   2.472   0.799   4.080 -0.3056  0.7976 -0.2493
   54CHL1   C27 3993   2.179   0.909   4.248 -0.0226 -0.2622 -0.0210
   54CHL1  H27A 3994   2.197   1.019   4.248  0.0452 -0.2623  1.1676
   54CHL1  H27B 3995   2.071   0.884   4.234  0.3310 -2.1083  0.3418
   54CHL1  H27C 3996   2.217   0.872   4.345  3.1845  2.4432 -0.0707
   55CHL1    C3 3997   6.326   1.366   2.987 -0.4619  0.2829 -0.2566
   55CHL1    H3 3998   6.345   1.475   2.988  1.1618  0.0504 -1.4492
   55CHL1    O3 3999   6.337   1.321   2.855  0.8241  0.1894  0.0752
   55CHL1   H3' 4000   6.430   1.316   2.831  1.0284  1.0205  0.6303
   55CHL1    C4 4001   6.436   1.297   3.081  0.4210 -0.3741 -1.2135
   55CHL1   H4A 4002   6.421   1.187   3.069  0.6649 -0.6606  0.7940
   55CHL1   H4B 4003   6.537   1.315   3.040  0.8753  3.1834  1.0262
   55CHL1    C5 4004   6.433   1.330   3.228  0.1081  0.3442  0.1604
   55CHL1    C6 4005   6.535   1.375   3.299 -0.6794  0.7242 -0.3736
   55CHL1    H6 4006   6.628   1.395   3.244  0.6035 -0.3862  1.2857
   55CHL1    C7 4007   6.538   1.402   3.450 -0.0630 -0.5065 -0.9311
   55CHL1   H7A 4008   6.626   1.347   3.490  1.1573  0.0494 -2.7423
   55CHL1   H7B 4009   6.541   1.510   3.478 -0.8831 -0.7008 -0.0699
   55CHL1    C8 4010   6.410   1.331   3.515 -0.5517 -0.0681 -0.3981
   55CHL1    H8 4011   6.426   1.222   3.526 -0.5217 -0.0042  0.2382
   55CHL1   C14 4012   6.395   1.406   3.647 -0.0087 -0.5197 -0.0909
   55CHL1   H14 4013   6.399   1.516   3.629 -0.0824 -0.7416 -1.5755
   55CHL1   C15 4014   6.503   1.377   3.751 -0.0233  1.0845 -0.3146
   55CHL1  H15A 4015   6.529   1.269   3.738  3.8424  1.4583  2.2298
   55CHL1  H15B 4016   6.609   1.409   3.739  1.6457 -2.5067  2.6361
   55CHL1   C16 4017   6.446   1.391   3.888 -0.2097 -0.1008 -0.5428
   55CHL1  H16A 4018   6.453   1.302   3.954 -0.3379 -0.3598 -0.8776
   55CHL1  H16B 4019   6.491   1.479   3.940 -1.8643  1.1247 -1.1091
   55CHL1   C17 4020   6.296   1.441   3.866  0.0789 -0.0613  0.0908
   55CHL1   H17 4021   6.302   1.551   3.849 -1.3343 -0.0619 -0.5539
   55CHL1   C13 4022   6.265   1.374   3.725 -0.1692 -0.8751 -0.0249
   55CHL1   C18 4023   6.260   1.218   3.754  0.1366 -0.1675 -0.1045
   55CHL1  H18A 4024   6.294   1.152   3.671  0.0033  0.0294 -0.3136
   55CHL1  H18B 4025   6.322   1.189   3.842  0.8139  1.8371  0.1320
   55CHL1  H18C 4026   6.155   1.193   3.777  0.0328  0.3854  0.0232
   55CHL1   C12 4027   6.143   1.414   3.639  0.1879 -0.4019  0.4256
   55CHL1  H12A 4028   6.047   1.378   3.682 -0.1926 -1.7440 -1.4089
   55CHL1  H12B 4029   6.146   1.523   3.616 -0.6971 -0.3801  0.3680
   55CHL1   C11 4030   6.149   1.353   3.497  0.5134 -0.0242 -0.0904
   55CHL1  H11A 4031   6.135   1.244   3.512  0.2886  0.0730  0.4057
   55CHL1  H11B 4032   6.058   1.383   3.442 -0.0524 -2.1116 -0.3719
   55CHL1    C9 4033   6.284   1.363   3.426  0.2802 -1.1775  0.9787
   55CHL1    H9 4034   6.287   1.473   3.407  0.3896 -1.4542 -0.7525
   55CHL1   C10 4035   6.291   1.303   3.283  0.2908 -0.0643 -0.4904
   55CHL1   C19 4036   6.271   1.153   3.294  0.1501 -0.4446  0.7067
   55CHL1  H19A 4037   6.261   1.106   3.193 -0.0807  0.0197  0.5125
   55CHL1  H19B 4038   6.363   1.110   3.338  2.8355  0.3698 -3.4761
   55CHL1  H19C 4039   6.184   1.121   3.355  0.6329 -0.2025  1.5382
   55CHL1    C1 4040   6.176   1.365   3.190  0.7129  0.4207  0.1701
   55CHL1   H1A 4041   6.075   1.330   3.221  0.1427 -0.5650 -2.5113
   55CHL1   H1B 4042   6.174   1.476   3.196 -0.5720  0.4920 -0.9067
   55CHL1    C2 4043   6.191   1.329   3.040 -0.4483 -0.4731 -0.6176
   55CHL1   H2A 4044   6.110   1.382   2.985  0.8421  1.8395 -0.4401
   55CHL1   H2B 4045   6.179   1.220   3.023 -1.0360 -0.2261 -1.8587
   55CHL1   C20 4046   6.215   1.414   3.987  0.5713 -0.3710 -0.1709
   55CHL1   H20 4047   6.225   1.308   4.017  0.2402 -0.5464 -0.6628
   55CHL1   C21 4048   6.062   1.422   3.954  0.0787  0.4407 -0.4679
   55CHL1  H21A 4049   6.046   1.333   3.889  1.2774  0.0652 -0.2722
   55CHL1  H21B 4050   6.031   1.509   3.893  2.8677  0.0577 -2.6695
   55CHL1  H21C 4051   5.992   1.409   4.039 -0.4481 -0.7775 -1.0557
   55CHL1   C22 4052   6.254   1.507   4.098 -0.1658  0.1007 -0.7143
   55CHL1  H22A 4053   6.364   1.520   4.098 -0.3615  2.5177 -2.6401
   55CHL1  H22B 4054   6.214   1.607   4.070  0.7747  0.9160  0.7165
   55CHL1   C23 4055   6.188   1.474   4.229 -0.4168 -0.9008  0.4350
   55CHL1  H23A 4056   6.079   1.470   4.209 -0.0953 -3.4461 -1.1786
   55CHL1  H23B 4057   6.219   1.375   4.268  1.8983 -0.8128 -0.9877
   55CHL1   C24 4058   6.209   1.584   4.333  0.0542 -0.5001  0.0529
   55CHL1  H24A 4059   6.159   1.679   4.307  1.3772 -0.1494 -1.3264
   55CHL1  H24B 4060   6.158   1.548   4.425  1.3014  0.4038  1.1257
   55CHL1   C25 4061   6.358   1.608   4.365  0.3214 -0.0936  0.4850
   55CHL1   H25 4062   6.412   1.634   4.271  1.0612  0.1424  0.9662
   55CHL1   C26 4063   6.366   1.714   4.480 -0.3978  0.0983  0.0823
   55CHL1  H26A 4064   6.319   1.665   4.568  0.2506  0.5331  0.6848
   55CHL1  H26B 4065   6.473   1.728   4.506  0.0095  0.9596 -1.9047
   55CHL1  H26C 4066   6.322   1.813   4.454  2.0064  0.9422 -1.0152
   55CHL1   C27 4067   6.419   1.480   4.424  0.4690  0.3366 -0.0408
   55CHL1  H27A 4068   6.488   1.516   4.504  0.8863  0.7803 -0.5849
   55CHL1  H27B 4069   6.333   1.424   4.464  0.8629 -0.2723 -0.0403
   55CHL1  H27C 4070   6.478   1.410   4.361  1.7863  0.4863  0.9848
   56CHL1    C3 4071   2.049   3.184   2.476  0.5270 -0.2307 -0.0420
   56CHL1    H3 4072   2.031   3.293   2.465  0.6498 -0.0901  1.0548
   56CHL1    O3 4073   2.077   3.117   2.353 -0.1434 -0.6153 -0.2163
   56CHL1   H3' 4074   2.020   3.042   2.336  1.0775 -0.9510 -3.4923
   56CHL1    C4 4075   2.167   3.167   2.567  0.1099 -0.1695  0.3991
   56CHL1   H4A 4076   2.197   3.060   2.571 -0.0624 -0.1859  1.9946
   56CHL1   H4B 4077   2.253   3.221   2.522 -1.4250  1.2300 -0.9768
   56CHL1    C5 4078   2.138   3.220   2.710 -0.0745  0.0393  0.7842
   56CHL1    C6 4079   2.221   3.314   2.764 -0.3904  0.2468  0.5195
   56CHL1    H6 4080   2.302   3.359   2.705  1.3184  0.1610  2.6689
   56CHL1    C7 4081   2.211   3.353   2.909  0.7338  1.0259 -0.4826
   56CHL1   H7A 4082   2.314   3.346   2.948  0.3999 -0.1300  0.2441
   56CHL1   H7B 4083   2.160   3.448   2.934 -1.1823 -0.2879  0.9910
   56CHL1    C8 4084   2.132   3.240   2.994 -0.0356 -0.1442 -0.0350
   56CHL1    H8 4085   2.194   3.148   2.997 -0.7964 -0.7047 -1.1529
   56CHL1   C14 4086   2.103   3.286   3.139  0.4696  0.0694 -0.0772
   56CHL1   H14 4087   2.048   3.382   3.133  1.1042  0.4084 -0.7438
   56CHL1   C15 4088   2.226   3.321   3.227  0.2722  0.2172  0.3038
   56CHL1  H15A 4089   2.306   3.245   3.212  0.8701  0.6192  1.3340
   56CHL1  H15B 4090   2.262   3.417   3.184 -2.5003  0.8656 -0.7761
   56CHL1   C16 4091   2.167   3.324   3.374 -0.0565 -0.7345  0.1380
   56CHL1  H16A 4092   2.230   3.261   3.441  1.1314  0.5682  0.3011
   56CHL1  H16B 4093   2.168   3.427   3.415  0.4783 -0.8084  0.3211
   56CHL1   C17 4094   2.027   3.265   3.358  0.1294 -0.6848 -0.5767
   56CHL1   H17 4095   1.962   3.355   3.355  2.7732  1.3690  0.1240
   56CHL1   C13 4096   2.017   3.187   3.225  0.8853  0.3484 -0.2875
   56CHL1   C18 4097   2.086   3.054   3.253  0.2952  0.4108 -0.2382
   56CHL1  H18A 4098   2.165   3.068   3.329  0.5823  1.2621 -0.6828
   56CHL1  H18B 4099   2.008   2.979   3.280  0.3061  0.2051 -0.7570
   56CHL1  H18C 4100   2.133   3.022   3.158 -0.1524 -0.1125 -0.2891
   56CHL1   C12 4101   1.887   3.178   3.151 -0.7287  0.3837  0.3027
   56CHL1  H12A 4102   1.819   3.111   3.208 -0.3596 -1.8807 -1.7414
   56CHL1  H12B 4103   1.845   3.281   3.147 -0.4914  0.5428  1.6741
   56CHL1   C11 4104   1.903   3.125   3.009 -0.0686  0.1796  1.0577
   56CHL1  H11A 4105   1.924   3.017   3.019  0.9065  0.3825  1.3314
   56CHL1  H11B 4106   1.804   3.136   2.960  0.6575 -0.5912 -0.6462
   56CHL1    C9 4107   2.000   3.211   2.924  0.3582  0.2024 -0.2612
   56CHL1    H9 4108   1.946   3.307   2.910 -0.9650 -0.0077  2.6664
   56CHL1   C10 4109   2.024   3.148   2.782 -0.3865  0.2500 -0.1978
   56CHL1   C19 4110   2.045   2.989   2.788  0.6856  0.9858 -0.6514
   56CHL1  H19A 4111   2.114   2.968   2.872 -0.2698 -4.4699 -0.7929
   56CHL1  H19B 4112   1.954   2.928   2.811  2.2169 -1.2195 -0.0921
   56CHL1  H19C 4113   2.093   2.948   2.696  4.1857 -1.6570  2.0613
   56CHL1    C1 4114   1.905   3.178   2.693  0.5738 -0.0061  0.4670
   56CHL1   H1A 4115   1.812   3.140   2.740 -0.6123  1.5776 -0.5100
   56CHL1   H1B 4116   1.884   3.287   2.693  0.6492  0.0313 -1.0556
   56CHL1    C2 4117   1.916   3.130   2.542 -0.1458  0.1397 -0.6698
   56CHL1   H2A 4118   1.826   3.172   2.492 -0.4606  2.2130  1.4727
   56CHL1   H2B 4119   1.918   3.020   2.551  1.7500  0.2983  1.8952
   56CHL1   C20 4120   1.972   3.203   3.491  0.9170 -0.6161 -0.4686
   56CHL1   H20 4121   2.037   3.118   3.521  0.8709 -0.1683  0.9961
   56CHL1   C21 4122   1.822   3.164   3.467 -0.2494  0.0495  0.5505
   56CHL1  H21A 4123   1.769   3.133   3.560  0.9838 -1.7090  0.7231
   56CHL1  H21B 4124   1.831   3.064   3.418  0.8762  0.0019  0.8441
   56CHL1  H21C 4125   1.754   3.231   3.411  1.2361  0.8629 -0.3388
   56CHL1   C22 4126   1.980   3.292   3.620 -0.3096  0.1554 -0.0366
   56CHL1  H22A 4127   2.073   3.352   3.626 -0.8025  0.9195  0.1131
   56CHL1  H22B 4128   1.893   3.360   3.629 -1.2396 -1.1184  1.0076
   56CHL1   C23 4129   1.978   3.215   3.749 -0.1811  0.4335 -0.1311
   56CHL1  H23A 4130   1.875   3.180   3.772  1.2151 -3.4894  0.9433
   56CHL1  H23B 4131   2.031   3.122   3.717 -0.9069  1.1605 -3.8899
   56CHL1   C24 4132   2.044   3.281   3.866 -0.5350 -0.4076  0.0745
   56CHL1  H24A 4133   2.152   3.282   3.841 -0.7414  1.4535 -0.9088
   56CHL1  H24B 4134   2.015   3.388   3.861  0.1500 -0.2493 -0.6602
   56CHL1   C25 4135   2.018   3.216   4.006 -0.0660  0.1823  0.0856
   56CHL1   H25 4136   1.908   3.202   4.011 -0.6168  2.8848 -1.8720
   56CHL1   C26 4137   2.094   3.091   4.026 -0.3964 -0.2402 -0.2443
   56CHL1  H26A 4138   2.078   3.010   3.952  0.5344 -0.0956 -0.6162
   56CHL1  H26B 4139   2.203   3.112   4.017  0.1507 -2.8022 -0.4356
   56CHL1  H26C 4140   2.091   3.059   4.133  1.2660  2.8425  0.8662
   56CHL1   C27 4141   2.060   3.309   4.120  0.0530  0.3109 -0.0563
   56CHL1  H27A 4142   2.022   3.262   4.214 -0.6741  1.2353  0.1252
   56CHL1  H27B 4143   2.170   3.305   4.133  0.2005 -3.6043 -1.0429
   56CHL1  H27C 4144   2.015   3.410   4.128  0.9459  0.6035  4.2607
   57SAPC     N 4145   5.361   2.052   7.179  1.0016 -0.3244  1.2091
   57SAPC   C12 4146   5.422   1.976   7.063 -0.3089  0.9948 -0.3410
   57SAPC  H12A 4147   5.454   1.880   7.100 -2.4490 -0.2529 -1.5334
   57SAPC  H12B 4148   5.507   2.033   7.029 -1.1194  0.8598 -2.7878
   57SAPC   C13 4149   5.229   1.982   7.218 -1.2536 -0.5267  0.4911
   57SAPC  H13A 4150   5.245   1.878   7.243  1.3713  0.0080  1.2623
   57SAPC  H13B 4151   5.183   2.037   7.300 -2.6516 -0.4600 -0.3012
   57SAPC  H13C 4152   5.158   1.981   7.136 -0.3892 -2.5560 -0.2865
   57SAPC   C14 4153   5.458   2.066   7.288  0.7702 -0.0062  0.1778
   57SAPC  H14A 4154   5.549   2.114   7.255  1.0572 -0.5083  0.2190
   57SAPC  H14B 4155   5.419   2.131   7.365  2.8532  0.9881  0.4582
   57SAPC  H14C 4156   5.493   1.975   7.334 -0.5391 -0.1484  0.9385
   57SAPC   C15 4157   5.321   2.191   7.137 -0.3473  0.3891 -0.2465
   57SAPC  H15A 4158   5.253   2.227   7.212 -1.4961  1.1207 -1.6007
   57SAPC  H15B 4159   5.412   2.247   7.118  2.4223 -2.9300  1.9290
   57SAPC  H15C 4160   5.269   2.183   7.042 -0.6263  1.9952 -0.2556
   57SAPC   C11 4161   5.339   1.944   6.940  0.6356 -0.7598 -0.3617
   57SAPC  H11A 4162   5.248   1.889   6.972 -0.9763  1.5580 -0.7144
   57SAPC  H11B 4163   5.391   1.876   6.870  0.1950 -0.9493 -0.5094
   57SAPC     P 4164   5.370   2.151   6.795 -0.1980  0.1991  0.1466
   57SAPC   O13 4165   5.290   2.279   6.789  0.1443  0.2724 -0.0800
   57SAPC   O14 4166   5.510   2.155   6.846 -0.1553  0.4783  0.2242
   57SAPC   O12 4167   5.283   2.055   6.875 -0.0314  0.0527  0.2933
   57SAPC   O11 4168   5.384   2.094   6.648  0.1151  0.3543  0.0007
   57SAPC    C1 4169   5.258   2.051   6.587  0.0056  0.7151 -0.3406
   57SAPC    HA 4170   5.248   1.944   6.613 -0.3271  0.7954 -0.1303
   57SAPC    HB 4171   5.163   2.099   6.618 -1.4358 -1.8612 -0.5275
   57SAPC    C2 4172   5.249   2.073   6.430  0.1287 -0.5113 -0.8428
   57SAPC    HS 4173   5.158   2.028   6.384  0.1788 -0.4423 -1.0088
   57SAPC   O21 4174   5.364   2.027   6.361  0.0399 -0.6834  0.5752
   57SAPC   C21 4175   5.371   1.889   6.341  0.1877  0.6100 -0.4085
   57SAPC   O22 4176   5.293   1.807   6.387  0.1906 -0.3475 -0.3193
   57SAPC   C22 4177   5.493   1.845   6.259  0.1943 -0.8338 -0.0391
   57SAPC   H2R 4178   5.520   1.941   6.210 -2.2912 -1.1756 -2.3584
   57SAPC   H2S 4179   5.566   1.823   6.340  1.9060 -0.3211 -1.3725
   57SAPC    C3 4180   5.230   2.226   6.410 -0.4278 -0.3737 -0.4722
   57SAPC    HX 4181   5.303   2.274   6.479 -0.0908 -2.9862  1.1514
   57SAPC    HY 4182   5.130   2.264   6.440 -0.8397 -2.3443  0.8412
   57SAPC   O31 4183   5.247   2.252   6.264  0.2282  0.3736 -0.0881
   57SAPC   C31 4184   5.358   2.320   6.242  0.2243 -0.5979  0.6918
   57SAPC   O32 4185   5.433   2.374   6.315 -0.3643 -0.2012 -0.3108
   57SAPC   C32 4186   5.387   2.322   6.090  0.5259 -0.4633 -0.2230
   57SAPC   H2X 4187   5.339   2.412   6.046  1.2631  0.0911  0.0848
   57SAPC   H2Y 4188   5.353   2.228   6.042 -0.3497 -0.4068  0.2642
   57SAPC   C23 4189   5.455   1.739   6.155 -0.6873 -0.2269  0.5187
   57SAPC   H3R 4190   5.373   1.770   6.087 -1.1893  1.4036  1.7716
   57SAPC   H3S 4191   5.427   1.645   6.207  0.3461  0.7480  2.9920
   57SAPC   C24 4192   5.570   1.700   6.057 -0.5809  0.1216  0.4291
   57SAPC   H4R 4193   5.528   1.622   5.989  0.0109 -0.0759  0.2856
   57SAPC   H4S 4194   5.646   1.639   6.111 -0.7294 -0.7000 -0.2554
   57SAPC   C25 4195   5.643   1.797   5.974 -0.2223 -0.5136 -0.8009
   57SAPC   H5R 4196   5.668   1.891   6.025 -0.3561 -0.4841 -0.7898
   57SAPC   C26 4197   5.678   1.790   5.843  0.2122  0.4388  0.3587
   57SAPC   H6R 4198   5.744   1.870   5.807  1.2840  1.1760  3.6279
   57SAPC   C27 4199   5.653   1.682   5.742 -0.1325  0.4768  0.0943
   57SAPC   H7R 4200   5.599   1.725   5.655  1.4456  1.3866 -0.4621
   57SAPC   H7S 4201   5.594   1.595   5.778  2.5771 -0.7582  1.8562
   57SAPC   C28 4202   5.784   1.632   5.694 -0.3262  1.1438  0.5291
   57SAPC   H8R 4203   5.875   1.650   5.754 -0.7544 -0.8968  1.9026
   57SAPC   C29 4204   5.800   1.538   5.592 -0.0718 -1.0460  0.1426
   57SAPC   H9R 4205   5.907   1.519   5.575  0.5220  1.6308  0.3976
   57SAPC  C210 4206   5.700   1.485   5.492 -0.7925  0.9206 -0.1282
   57SAPC  H10R 4207   5.721   1.521   5.389 -1.3858 -1.2773 -1.0952
   57SAPC  H10S 4208   5.599   1.526   5.512 -1.4980 -1.0800  0.7340
   57SAPC  C211 4209   5.704   1.336   5.503  0.2177  0.2367 -0.7609
   57SAPC  H11R 4210   5.664   1.295   5.597  0.4147 -0.7454 -1.0861
   57SAPC  C212 4211   5.727   1.261   5.397  0.0515  0.0030  0.0137
   57SAPC  H12R 4212   5.728   1.152   5.416  1.6253 -0.5649 -2.6787
   57SAPC  C213 4213   5.764   1.295   5.256  0.4399 -1.1522  0.0487
   57SAPC  H13R 4214   5.710   1.388   5.231  2.1419 -0.3774 -0.8884
   57SAPC  H13S 4215   5.724   1.218   5.187 -0.1146 -0.3092 -0.5778
   57SAPC  C214 4216   5.915   1.311   5.219  0.3713 -0.3002 -0.1770
   57SAPC  H14R 4217   5.974   1.312   5.312  0.6661  1.8988 -0.3352
   57SAPC  C215 4218   5.970   1.345   5.098 -0.1758  0.2103 -0.3568
   57SAPC  H15R 4219   6.079   1.350   5.081 -0.0675 -0.9203 -0.1044
   57SAPC  C216 4220   5.896   1.348   4.964 -0.3804  0.3843 -0.0859
   57SAPC  H16R 4221   5.874   1.453   4.933  0.4754  0.3931 -0.6932
   57SAPC  H16S 4222   5.805   1.285   4.972 -1.1329  1.5781  1.4227
   57SAPC  C217 4223   5.991   1.282   4.860 -0.0490 -0.0732 -0.7378
   57SAPC  H17R 4224   6.029   1.181   4.884 -0.8449 -0.2624 -0.2386
   57SAPC  H17S 4225   6.082   1.346   4.874 -2.5150  3.5354  0.3421
   57SAPC  C218 4226   5.943   1.291   4.710 -0.1122  0.2586  0.1053
   57SAPC  H18R 4227   5.926   1.399   4.693  1.9918  0.5273 -0.5870
   57SAPC  H18S 4228   5.843   1.244   4.698  1.1305 -1.7153 -4.3150
   57SAPC  C219 4229   6.029   1.234   4.601 -0.4173  0.5234  0.0568
   57SAPC  H19R 4230   6.022   1.123   4.606  2.2113  0.3426  0.9588
   57SAPC  H19S 4231   6.134   1.263   4.623  0.4392 -0.3289 -2.5129
   57SAPC  C220 4232   5.985   1.278   4.458  0.1940  0.7252  0.1363
   57SAPC  H20R 4233   5.887   1.232   4.435  0.3849 -0.0735  0.8685
   57SAPC  H20S 4234   6.061   1.238   4.387 -1.4326 -0.2184 -1.1285
   57SAPC  H20T 4235   5.977   1.387   4.437  1.3561  0.7752 -0.1044
   57SAPC   C33 4236   5.538   2.347   6.068 -0.0404  0.0726  0.4725
   57SAPC   H3X 4237   5.597   2.288   6.141 -0.2902  1.0538  1.4991
   57SAPC   H3Y 4238   5.561   2.451   6.100 -1.3347  1.1251 -1.7252
   57SAPC   C34 4239   5.578   2.333   5.916 -0.4251  0.3252  0.7439
   57SAPC   H4X 4240   5.588   2.224   5.897 -1.3226  0.3356  0.1870
   57SAPC   H4Y 4241   5.673   2.389   5.906 -0.8391  1.0350  0.7716
   57SAPC   C35 4242   5.482   2.395   5.809 -0.2246  0.7141 -1.1191
   57SAPC   H5X 4243   5.440   2.490   5.848 -0.6040 -0.3013  1.1020
   57SAPC   H5Y 4244   5.413   2.311   5.786 -1.6438  1.4811  0.1678
   57SAPC   C36 4245   5.561   2.429   5.682  0.0669 -0.1265 -0.6882
   57SAPC   H6X 4246   5.477   2.439   5.611 -0.5494 -0.2456  0.0113
   57SAPC   H6Y 4247   5.627   2.347   5.647  1.5778  0.2313  1.1570
   57SAPC   C37 4248   5.642   2.560   5.696  0.3467 -0.6281 -0.7038
   57SAPC   H7X 4249   5.717   2.541   5.775 -0.8576 -0.1581  0.5870
   57SAPC   H7Y 4250   5.577   2.640   5.737  0.4936 -0.1942 -1.2940
   57SAPC   C38 4251   5.702   2.602   5.561  0.1226 -0.4981 -0.3001
   57SAPC   H8X 4252   5.736   2.707   5.572 -1.1614 -0.1670  0.8680
   57SAPC   H8Y 4253   5.630   2.597   5.477  0.8754 -0.3428 -0.9607
   57SAPC   C39 4254   5.808   2.506   5.509  1.0717  0.1389 -0.4790
   57SAPC   H9X 4255   5.763   2.406   5.495 -0.5571  1.1568 -3.2839
   57SAPC   H9Y 4256   5.889   2.504   5.585  0.4732 -1.7340  0.1690
   57SAPC  C310 4257   5.845   2.551   5.365 -0.1069  0.4106  0.5978
   57SAPC  H10X 4258   5.866   2.660   5.368 -0.1155  0.3980  1.7034
   57SAPC  H10Y 4259   5.754   2.540   5.301  0.5570 -0.4949 -0.2111
   57SAPC  C311 4260   5.955   2.471   5.304 -0.7890  0.2734  0.3050
   57SAPC  H11X 4261   5.944   2.366   5.337  0.5255  0.4796  1.5231
   57SAPC  H11Y 4262   6.054   2.503   5.343  0.1416 -0.1125 -1.5967
   57SAPC  C312 4263   5.968   2.500   5.157  0.6225 -0.2365 -0.2057
   57SAPC  H12X 4264   5.986   2.606   5.129  0.2459 -0.7636 -2.6575
   57SAPC  H12Y 4265   5.874   2.469   5.106  0.2827 -1.2792  0.9919
   57SAPC  C313 4266   6.078   2.418   5.088  0.4045 -0.5474  0.3692
   57SAPC  H13X 4267   6.079   2.319   5.139  2.6250  0.4160  2.3751
   57SAPC  H13Y 4268   6.177   2.466   5.103  1.7400 -2.6148 -1.2642
   57SAPC  C314 4269   6.064   2.424   4.934 -0.2927  0.6829  0.1241
   57SAPC  H14X 4270   6.071   2.531   4.907 -2.2030  0.7447 -0.2628
   57SAPC  H14Y 4271   5.967   2.375   4.910  0.2169 -1.3271  1.8449
   57SAPC  C315 4272   6.179   2.344   4.866 -0.1559  0.2198 -0.0159
   57SAPC  H15X 4273   6.180   2.238   4.901  0.4686  0.0748 -0.4724
   57SAPC  H15Y 4274   6.272   2.389   4.905 -0.2792 -0.6877  1.4099
   57SAPC  C316 4275   6.178   2.357   4.717 -0.6842 -0.0200 -0.0511
   57SAPC  H16X 4276   6.282   2.344   4.679 -0.2393 -0.1916  1.1727
   57SAPC  H16Y 4277   6.140   2.460   4.699  1.7989  1.0450  0.3720
   57SAPC  C317 4278   6.074   2.279   4.650  0.5191 -0.1983  0.1824
   57SAPC  H17X 4279   6.043   2.326   4.554  1.4283 -1.9314 -1.0274
   57SAPC  H17Y 4280   5.982   2.276   4.712 -1.5120 -0.1902 -2.6460
   57SAPC  C318 4281   6.127   2.142   4.611 -0.1287  0.4231 -0.2379
   57SAPC  H18X 4282   6.155   2.073   4.693  0.2393  1.9174  0.9342
   57SAPC  H18Y 4283   6.203   2.155   4.531  0.1096 -1.6240 -0.3860
   57SAPC  H18Z 4284   6.045   2.095   4.553 -1.6246  3.9235 -1.2538
   58SAPC     N 4285   4.900   3.492   6.613  0.3604  0.3928 -0.1777
   58SAPC   C12 4286   4.834   3.482   6.475  0.3211  0.7962 -0.4519
   58SAPC  H12A 4287   4.805   3.580   6.440 -0.1569  0.1799 -1.9163
   58SAPC  H12B 4288   4.745   3.422   6.492  0.2022  1.2961  0.7982
   58SAPC   C13 4289   5.035   3.563   6.591 -0.0297  0.1447  0.1686
   58SAPC  H13A 4290   5.007   3.660   6.552 -3.5271 -0.9205 -0.2587
   58SAPC  H13B 4291   5.092   3.558   6.682  0.4535  2.4007  0.0651
   58SAPC  H13C 4292   5.095   3.512   6.516  3.3100  0.5757  2.3454
   58SAPC   C14 4293   4.811   3.560   6.712  0.2618 -0.2455 -0.2384
   58SAPC  H14A 4294   4.725   3.503   6.742  2.4618 -3.3611  0.7292
   58SAPC  H14B 4295   4.850   3.573   6.812  1.9360  2.8660 -1.1674
   58SAPC  H14C 4296   4.773   3.655   6.678  0.9660  1.5627  3.4937
   58SAPC   C15 4297   4.936   3.358   6.675 -0.2023 -0.5173  0.6966
   58SAPC  H15A 4298   4.992   3.374   6.765  1.8445  1.3078 -0.7998
   58SAPC  H15B 4299   4.843   3.308   6.700 -1.1377  1.3056  1.0160
   58SAPC  H15C 4300   4.993   3.306   6.599 -0.0626 -1.6911  1.5668
   58SAPC   C11 4301   4.902   3.394   6.368 -0.0044 -0.3155  0.3182
   58SAPC  H11A 4302   5.002   3.440   6.352 -0.4032  0.6573  0.5506
   58SAPC  H11B 4303   4.858   3.402   6.266 -0.8246 -2.6885  0.4118
   58SAPC     P 4304   4.797   3.157   6.419  0.2850  0.2893  0.1800
   58SAPC   O13 4305   4.853   3.042   6.492 -0.3104  0.2331 -0.6284
   58SAPC   O14 4306   4.688   3.239   6.478  0.1194 -0.0731 -1.0574
   58SAPC   O12 4307   4.922   3.254   6.404  0.1421  0.0258 -0.2294
   58SAPC   O11 4308   4.754   3.127   6.266 -0.1422 -0.0301 -0.0661
   58SAPC    C1 4309   4.860   3.067   6.178  0.2212  0.9224 -0.1898
   58SAPC    HA 4310   4.917   2.991   6.235 -1.2068 -0.1115 -0.1136
   58SAPC    HB 4311   4.812   3.009   6.097 -1.0297 -0.0453  1.2003
   58SAPC    C2 4312   4.947   3.167   6.097 -1.1059  0.5278 -0.4892
   58SAPC    HS 4313   5.000   3.231   6.171  1.2839 -2.5410  0.6621
   58SAPC   O21 4314   4.859   3.248   6.015  0.3391  0.0533 -0.0026
   58SAPC   C21 4315   4.916   3.345   5.958 -0.1996  0.3136  0.4264
   58SAPC   O22 4316   5.032   3.383   5.958 -0.1905  0.1215  0.5639
   58SAPC   C22 4317   4.800   3.417   5.885 -0.0957 -0.3537 -0.2589
   58SAPC   H2R 4318   4.762   3.347   5.808  1.6247  1.2565 -2.7168
   58SAPC   H2S 4319   4.730   3.453   5.964  2.4590 -1.2575  2.6348
   58SAPC    C3 4320   5.054   3.102   6.017  0.8324  0.4121 -0.3843
   58SAPC    HX 4321   5.119   3.039   6.082 -1.6695 -1.5826  0.3733
   58SAPC    HY 4322   5.117   3.179   5.968  1.9779 -1.0136 -1.2504
   58SAPC   O31 4323   4.994   3.002   5.923  0.3975 -0.3265  0.0771
   58SAPC   C31 4324   4.994   3.046   5.793 -0.6317 -0.0710 -0.5312
   58SAPC   O32 4325   5.029   3.155   5.753  0.2636  0.8327  0.4117
   58SAPC   C32 4326   4.955   2.929   5.707 -0.2624 -0.5423 -0.2259
   58SAPC   H2X 4327   4.892   2.861   5.768 -0.0854 -1.3360 -0.8991
   58SAPC   H2Y 4328   5.047   2.880   5.668 -0.3542 -0.1291 -1.0006
   58SAPC   C23 4329   4.848   3.535   5.799 -0.1510 -0.0726 -0.9055
   58SAPC   H3R 4330   4.921   3.517   5.717  2.0982  0.7996  0.7899
   58SAPC   H3S 4331   4.902   3.617   5.851  0.5614 -1.1316  0.0616
   58SAPC   C24 4332   4.732   3.607   5.723 -0.3933 -0.2016  0.2389
   58SAPC   H4R 4333   4.769   3.698   5.672  2.4645 -0.4982  1.6170
   58SAPC   H4S 4334   4.679   3.647   5.813  1.1125  0.1406  0.9964
   58SAPC   C25 4335   4.648   3.505   5.649  0.5512  0.4112  0.6430
   58SAPC   H5R 4336   4.565   3.458   5.703  0.9891 -0.5284  0.5129
   58SAPC   C26 4337   4.670   3.462   5.522  0.0057 -0.4989  0.3864
   58SAPC   H6R 4338   4.605   3.391   5.470  0.5893  0.3569 -1.5986
   58SAPC   C27 4339   4.783   3.498   5.432  0.3820 -0.0401 -0.2210
   58SAPC   H7R 4340   4.785   3.422   5.351 -0.3304 -0.7113  0.3714
   58SAPC   H7S 4341   4.875   3.493   5.494  0.2837  2.3822  0.2032
   58SAPC   C28 4342   4.769   3.638   5.373  0.0791  0.2539  0.3247
   58SAPC   H8R 4343   4.738   3.720   5.440 -0.4951  2.0034 -1.9725
   58SAPC   C29 4344   4.781   3.680   5.247  0.2112 -0.3444  1.1398
   58SAPC   H9R 4345   4.762   3.787   5.235  1.6548 -0.1097  0.7966
   58SAPC  C210 4346   4.806   3.590   5.126  0.2036 -0.6513  0.0899
   58SAPC  H10R 4347   4.730   3.510   5.126  0.2746 -0.7220  0.9554
   58SAPC  H10S 4348   4.901   3.535   5.142 -0.0431 -0.8670  0.8321
   58SAPC  C211 4349   4.797   3.674   5.004  1.1911 -0.5853  1.0317
   58SAPC  H11R 4350   4.797   3.783   5.014 -1.9112  0.0922 -3.2520
   58SAPC  C212 4351   4.796   3.623   4.878  0.4211 -0.2253 -0.0325
   58SAPC  H12R 4352   4.773   3.697   4.801 -1.3513 -0.7776 -0.0801
   58SAPC  C213 4353   4.787   3.475   4.836 -0.6222  0.0408 -0.1850
   58SAPC  H13R 4354   4.684   3.434   4.826  0.1876 -2.2252  0.2404
   58SAPC  H13S 4355   4.839   3.410   4.910 -1.1605 -0.0257  0.1392
   58SAPC  C214 4356   4.857   3.448   4.700  0.3902 -0.1590  0.1940
   58SAPC  H14R 4357   4.929   3.528   4.677 -1.0660  1.5385  1.2573
   58SAPC  C215 4358   4.855   3.326   4.641  0.1827  0.1932 -0.2490
   58SAPC  H15R 4359   4.913   3.307   4.549 -0.2115  1.1329 -0.7031
   58SAPC  C216 4360   4.765   3.208   4.673 -0.2754 -0.7657  1.2527
   58SAPC  H16R 4361   4.664   3.223   4.630  0.0047  0.4047  0.9906
   58SAPC  H16S 4362   4.764   3.182   4.781  0.7684 -0.9997  1.2182
   58SAPC  C217 4363   4.815   3.073   4.602 -0.3820 -0.1421 -0.8705
   58SAPC  H17R 4364   4.772   3.002   4.675 -3.7719  1.5317 -0.9934
   58SAPC  H17S 4365   4.925   3.063   4.606 -0.3992 -0.1026 -0.1252
   58SAPC  C218 4366   4.762   3.058   4.460  0.3652 -0.3781 -0.4610
   58SAPC  H18R 4367   4.809   3.141   4.402  0.9348  0.8605  1.6488
   58SAPC  H18S 4368   4.652   3.073   4.461  0.4026 -0.0985  0.2599
   58SAPC  C219 4369   4.792   2.918   4.392 -0.2083 -0.3170 -0.1396
   58SAPC  H19R 4370   4.742   2.843   4.457  2.8343 -2.9889 -0.6368
   58SAPC  H19S 4371   4.901   2.905   4.377 -0.1620  1.6125 -1.9046
   58SAPC  C220 4372   4.734   2.923   4.243 -0.4014  0.0101 -0.3038
   58SAPC  H20R 4373   4.770   3.006   4.179  0.1041  0.5333  0.6419
   58SAPC  H20S 4374   4.625   2.938   4.258 -0.7758 -3.0028  0.8014
   58SAPC  H20T 4375   4.729   2.822   4.196  1.0325  1.0452 -2.9047
   58SAPC   C33 4376   4.872   2.979   5.579 -0.2447  0.7487 -0.3637
   58SAPC   H3X 4377   4.860   2.897   5.505 -1.9649  1.9344 -1.4684
   58SAPC   H3Y 4378   4.927   3.055   5.519  1.4568  0.2700  0.5203
   58SAPC   C34 4379   4.730   3.013   5.619  0.5948  0.5431 -0.4518
   58SAPC   H4X 4380   4.712   3.114   5.660  0.4516 -0.1901  1.3817
   58SAPC   H4Y 4381   4.708   2.954   5.711 -0.4124  1.4191 -0.1216
   58SAPC   C35 4382   4.623   2.976   5.517  0.1901  0.4443 -0.3063
   58SAPC   H5X 4383   4.526   2.984   5.570 -0.6478 -1.5233 -1.4238
   58SAPC   H5Y 4384   4.635   2.867   5.498 -1.9453 -0.4491  2.7641
   58SAPC   C36 4385   4.627   3.058   5.390  0.4622 -0.2691  0.5814
   58SAPC   H6X 4386   4.727   3.062   5.342  0.5031  1.1482  0.7287
   58SAPC   H6Y 4387   4.615   3.162   5.428 -0.0464 -0.4010  0.7919
   58SAPC   C37 4388   4.514   3.035   5.292 -0.0854  0.2014 -0.5097
   58SAPC   H7X 4389   4.419   3.076   5.332  0.4686  0.0973  0.9835
   58SAPC   H7Y 4390   4.486   2.928   5.284 -0.3237  0.3006 -1.0258
   58SAPC   C38 4391   4.544   3.079   5.149 -0.0976  0.0500 -0.2951
   58SAPC   H8X 4392   4.611   3.010   5.093  0.5350  2.2882 -2.5169
   58SAPC   H8Y 4393   4.602   3.172   5.167 -0.9603  1.3155 -3.3293
   58SAPC   C39 4394   4.428   3.117   5.064  0.5022 -0.2125  0.2319
   58SAPC   H9X 4395   4.399   3.215   5.108  2.0443 -0.4545  1.9240
   58SAPC   H9Y 4396   4.351   3.042   5.091 -0.9354  1.1360 -0.0313
   58SAPC  C310 4397   4.451   3.127   4.913  0.2348  0.0445  0.4829
   58SAPC  H10X 4398   4.531   3.202   4.894  0.0637  1.3653  4.0842
   58SAPC  H10Y 4399   4.359   3.155   4.857  0.2966 -2.0371 -0.7186
   58SAPC  C311 4400   4.491   3.000   4.839  0.2102 -0.5057 -0.0115
   58SAPC  H11X 4401   4.590   2.976   4.884  0.3884  0.6987  0.2773
   58SAPC  H11Y 4402   4.507   3.017   4.731 -1.6500 -1.2698 -0.4401
   58SAPC  C312 4403   4.396   2.884   4.866  0.2685 -0.2594  0.3584
   58SAPC  H12X 4404   4.299   2.910   4.820  0.7283 -0.1356 -0.5653
   58SAPC  H12Y 4405   4.392   2.869   4.976  0.9973 -1.3886  0.2496
   58SAPC  C313 4406   4.454   2.760   4.793  0.2133 -0.0721  1.0388
   58SAPC  H13X 4407   4.375   2.683   4.808 -0.1982 -0.7441 -3.3779
   58SAPC  H13Y 4408   4.553   2.742   4.841  0.6387 -2.5328 -0.5642
   58SAPC  C314 4409   4.464   2.775   4.640 -0.3784 -0.1534  0.2666
   58SAPC  H14X 4410   4.531   2.861   4.615 -1.4113  0.3774 -0.8066
   58SAPC  H14Y 4411   4.362   2.805   4.607 -0.0543  1.3711  0.5633
   58SAPC  C315 4412   4.516   2.657   4.559  0.1712  0.3999 -0.1618
   58SAPC  H15X 4413   4.543   2.690   4.456  0.1440 -0.5219 -0.4703
   58SAPC  H15Y 4414   4.439   2.578   4.541  0.7388  0.0080 -0.9187
   58SAPC  C316 4415   4.642   2.587   4.615  0.3547  0.0980  0.7231
   58SAPC  H16X 4416   4.624   2.549   4.717  0.6317 -0.3414  0.6090
   58SAPC  H16Y 4417   4.728   2.657   4.620 -0.4287  1.2907 -1.0213
   58SAPC  C317 4418   4.698   2.472   4.527 -0.3157 -0.1098 -0.6395
   58SAPC  H17X 4419   4.614   2.402   4.508  0.2566 -0.7064 -1.0110
   58SAPC  H17Y 4420   4.776   2.418   4.585  0.6670  0.4687 -1.3887
   58SAPC  C318 4421   4.756   2.518   4.395  0.2223  0.1688  0.4773
   58SAPC  H18X 4422   4.855   2.567   4.403  0.1345  0.6461 -1.0200
   58SAPC  H18Y 4423   4.680   2.580   4.344  0.5425  0.3993  0.2806
   58SAPC  H18Z 4424   4.774   2.433   4.325 -0.7288  0.4784 -0.1675
   59SAPC     N 4425   1.256   6.187   6.749  0.4250 -0.6411 -0.4377
   59SAPC   C12 4426   1.348   6.207   6.629 -0.1446  1.0442 -0.1424
   59SAPC  H12A 4427   1.326   6.308   6.599  0.6179  2.3613  3.2600
   59SAPC  H12B 4428   1.309   6.134   6.559 -0.3363 -0.6387  1.6176
   59SAPC   C13 4429   1.256   6.058   6.814 -0.1345  0.2852 -0.2126
   59SAPC  H13A 4430   1.221   5.981   6.746  1.1490  1.8998 -2.8554
   59SAPC  H13B 4431   1.359   6.035   6.835 -0.1747 -0.4662 -0.7791
   59SAPC  H13C 4432   1.205   6.056   6.909 -2.3237  2.5191 -1.2231
   59SAPC   C14 4433   1.292   6.277   6.859 -0.3609 -0.6734 -0.1154
   59SAPC  H14A 4434   1.357   6.224   6.927 -1.0849  0.0154  1.1829
   59SAPC  H14B 4435   1.347   6.361   6.819  0.9795 -0.6512  1.6220
   59SAPC  H14C 4436   1.208   6.324   6.909 -0.6781 -1.1767 -0.1746
   59SAPC   C15 4437   1.115   6.212   6.702 -0.6761  0.0135 -0.7144
   59SAPC  H15A 4438   1.089   6.145   6.622 -3.4615 -1.0156  0.8926
   59SAPC  H15B 4439   1.044   6.209   6.784  0.2809  0.1597  0.1377
   59SAPC  H15C 4440   1.100   6.313   6.666 -0.0217  0.5916  0.5565
   59SAPC   C11 4441   1.494   6.195   6.655  0.2142 -0.0235 -0.8138
   59SAPC  H11A 4442   1.527   6.270   6.729 -0.6301 -0.8985  0.4877
   59SAPC  H11B 4443   1.552   6.222   6.564  0.0989 -0.1309 -0.9202
   59SAPC     P 4444   1.551   5.945   6.608 -0.4069  0.2912 -0.1990
   59SAPC   O13 4445   1.671   5.962   6.527  0.1001 -0.1368  0.5405
   59SAPC   O14 4446   1.533   5.819   6.683 -0.2528 -0.2443  0.1465
   59SAPC   O12 4447   1.536   6.068   6.705  0.0342 -0.6028 -0.0125
   59SAPC   O11 4448   1.426   5.954   6.517  0.1844  0.1452 -0.0208
   59SAPC    C1 4449   1.429   5.924   6.369 -0.0515 -0.8521  0.9459
   59SAPC    HA 4450   1.530   5.908   6.326 -1.1925 -0.7543 -2.0800
   59SAPC    HB 4451   1.384   5.824   6.347  0.9936 -1.2354  0.4722
   59SAPC    C2 4452   1.366   6.041   6.278 -0.1967 -0.7416 -0.2699
   59SAPC    HS 4453   1.414   6.130   6.325  0.2439 -1.8867  1.5712
   59SAPC   O21 4454   1.231   6.056   6.305  0.3238  0.3188 -0.6440
   59SAPC   C21 4455   1.168   6.165   6.255 -0.6232 -0.6135  0.0483
   59SAPC   O22 4456   1.228   6.258   6.201  0.5715 -0.0017 -0.0423
   59SAPC   C22 4457   1.017   6.142   6.272 -0.2637 -0.5659 -0.4691
   59SAPC   H2R 4458   0.993   6.035   6.290 -0.0288 -0.2037  2.5394
   59SAPC   H2S 4459   0.995   6.194   6.368  0.2866 -0.1374 -0.5708
   59SAPC    C3 4460   1.401   6.031   6.125 -0.3618 -0.2075  0.3552
   59SAPC    HX 4461   1.511   6.021   6.134 -0.5534 -0.7601  2.7077
   59SAPC    HY 4462   1.370   6.120   6.067  0.5091  0.9249  1.5683
   59SAPC   O31 4463   1.353   5.909   6.065 -0.2589 -0.0060 -0.0325
   59SAPC   C31 4464   1.228   5.908   6.013 -0.2542  0.4086  0.5326
   59SAPC   O32 4465   1.156   6.003   6.012  0.2991 -0.4751  1.0094
   59SAPC   C32 4466   1.213   5.777   5.936  0.5422  0.1631  0.1364
   59SAPC   H2X 4467   1.209   5.695   6.011  0.9863  1.6883  1.8969
   59SAPC   H2Y 4468   1.306   5.763   5.877 -0.6483 -0.1936 -1.7143
   59SAPC   C23 4469   0.939   6.211   6.159 -0.6456 -0.0386  0.4165
   59SAPC   H3R 4470   0.976   6.176   6.060 -0.8506 -2.0817  1.0139
   59SAPC   H3S 4471   0.955   6.320   6.168  1.1939 -0.4110  2.2419
   59SAPC   C24 4472   0.786   6.169   6.164 -0.4970 -0.2464 -0.8340
   59SAPC   H4R 4473   0.744   6.178   6.266  0.4655  1.0668 -0.5353
   59SAPC   H4S 4474   0.788   6.058   6.159 -2.0797 -0.6850  3.7592
   59SAPC   C25 4475   0.689   6.234   6.077 -0.8172 -0.0930  0.3154
   59SAPC   H5R 4476   0.620   6.297   6.135 -1.2261  0.5743 -0.8620
   59SAPC   C26 4477   0.665   6.199   5.951  0.4795  0.2589  0.3977
   59SAPC   H6R 4478   0.585   6.255   5.900 -0.6315 -2.2484 -0.7800
   59SAPC   C27 4479   0.734   6.098   5.863  0.6288 -1.1629 -0.2018
   59SAPC   H7R 4480   0.659   6.036   5.809 -0.1201 -2.0252  1.7349
   59SAPC   H7S 4481   0.800   6.030   5.919  1.3804 -0.0070  0.3648
   59SAPC   C28 4482   0.817   6.177   5.762 -0.2533  0.3957  0.6821
   59SAPC   H8R 4483   0.912   6.219   5.802  0.4919 -0.3224 -0.3001
   59SAPC   C29 4484   0.808   6.187   5.629  0.0287  0.2390  0.0571
   59SAPC   H9R 4485   0.881   6.255   5.583 -0.0522  0.5316  0.3682
   59SAPC  C210 4486   0.697   6.133   5.541  0.1536 -0.3202  0.7167
   59SAPC  H10R 4487   0.589   6.128   5.570 -1.3917  2.3742 -3.5620
   59SAPC  H10S 4488   0.724   6.031   5.506 -0.0743  1.0678 -4.3240
   59SAPC  C211 4489   0.699   6.226   5.413  0.2043  0.2345 -0.5468
   59SAPC  H11R 4490   0.627   6.308   5.423 -2.2014 -1.7947 -0.0761
   59SAPC  C212 4491   0.779   6.213   5.304  0.1727  0.2110 -0.5889
   59SAPC  H12R 4492   0.762   6.289   5.226 -1.2339 -0.9328 -1.4683
   59SAPC  C213 4493   0.871   6.101   5.267 -0.0149  0.2308 -0.1653
   59SAPC  H13R 4494   0.931   6.066   5.354  0.1410 -2.4091 -1.2278
   59SAPC  H13S 4495   0.951   6.141   5.201  1.6570 -1.5441  0.6880
   59SAPC  C214 4496   0.812   5.980   5.209  0.1448 -0.2753  0.2222
   59SAPC  H14R 4497   0.789   5.904   5.285  0.9880 -1.1958 -0.4293
   59SAPC  C215 4498   0.795   5.950   5.077  0.3421 -0.2894  0.1613
   59SAPC  H15R 4499   0.731   5.868   5.042  1.1003 -0.0058 -2.0692
   59SAPC  C216 4500   0.820   6.042   4.960 -0.1250  0.5821  1.2441
   59SAPC  H16R 4501   0.878   6.131   4.992 -1.1024  0.7339  2.7405
   59SAPC  H16S 4502   0.721   6.070   4.918 -0.4541 -1.9096  0.2004
   59SAPC  C217 4503   0.899   5.958   4.856  0.5963  0.1867  0.1450
   59SAPC  H17R 4504   0.985   5.897   4.889 -0.0661 -2.0625 -2.0017
   59SAPC  H17S 4505   0.933   6.023   4.772 -1.2524 -0.1743 -0.9310
   59SAPC  C218 4506   0.818   5.846   4.800  0.0256 -0.4790  0.2212
   59SAPC  H18R 4507   0.725   5.882   4.751  0.4869  1.1495  0.4855
   59SAPC  H18S 4508   0.780   5.771   4.873  2.8641 -1.2946  0.9911
   59SAPC  C219 4509   0.898   5.763   4.689 -0.3729 -0.5273 -0.7231
   59SAPC  H19R 4510   0.920   5.845   4.617  0.4644  1.6354  1.8354
   59SAPC  H19S 4511   0.833   5.696   4.629 -2.2911  1.9769 -1.5998
   59SAPC  C220 4512   1.020   5.676   4.733  0.2480 -0.1494 -0.3609
   59SAPC  H20R 4513   1.088   5.736   4.798  1.0853 -1.0955 -0.3370
   59SAPC  H20S 4514   1.082   5.646   4.646  1.8737  0.2153  0.6278
   59SAPC  H20T 4515   0.984   5.582   4.779 -0.0907  0.2189  0.1418
   59SAPC   C33 4516   1.085   5.779   5.846 -0.5431 -0.3984 -0.1324
   59SAPC   H3X 4517   1.088   5.881   5.802  1.1336  1.1303  3.1238
   59SAPC   H3Y 4518   0.989   5.785   5.901 -1.2036 -1.0376 -1.1854
   59SAPC   C34 4519   1.091   5.674   5.741 -0.0717 -0.0841  0.3789
   59SAPC   H4X 4520   1.057   5.571   5.765 -4.0863  1.1495  0.6437
   59SAPC   H4Y 4521   1.200   5.680   5.717 -0.1054  0.3095  0.3178
   59SAPC   C35 4522   1.021   5.716   5.606  0.1004  0.0723 -0.4104
   59SAPC   H5X 4523   1.055   5.821   5.591  1.8874 -0.4200 -0.0527
   59SAPC   H5Y 4524   0.911   5.719   5.621  0.0432  0.9993 -0.9190
   59SAPC   C36 4525   1.062   5.640   5.480 -0.1900 -0.0602 -0.6253
   59SAPC   H6X 4526   0.995   5.553   5.465  0.8043 -1.0174  0.3229
   59SAPC   H6Y 4527   1.160   5.591   5.496 -1.4118 -2.0488  1.4572
   59SAPC   C37 4528   1.074   5.731   5.359 -0.9453 -0.0884  0.0770
   59SAPC   H7X 4529   1.171   5.785   5.351 -0.1177 -1.4566  0.6647
   59SAPC   H7Y 4530   0.998   5.812   5.366 -0.1665  0.5800  1.1444
   59SAPC   C38 4531   1.051   5.656   5.226  0.0993 -0.3633  0.4095
   59SAPC   H8X 4532   1.054   5.731   5.144 -0.4424 -0.5706  0.1974
   59SAPC   H8Y 4533   0.946   5.621   5.219  0.6166 -1.6464 -2.3081
   59SAPC   C39 4534   1.162   5.552   5.204 -0.1170 -0.5722 -0.0777
   59SAPC   H9X 4535   1.151   5.466   5.274  1.5832 -0.6505  0.1357
   59SAPC   H9Y 4536   1.266   5.587   5.225 -0.2835 -0.5225  0.7200
   59SAPC  C310 4537   1.162   5.499   5.056  0.5857 -0.8646  0.5768
   59SAPC  H10X 4538   1.150   5.587   4.989 -0.3102 -0.3160  1.4279
   59SAPC  H10Y 4539   1.070   5.439   5.038  0.0479  0.5686 -1.8742
   59SAPC  C311 4540   1.283   5.410   5.022  0.3914 -0.5094 -0.9533
   59SAPC  H11X 4541   1.268   5.391   4.913  1.8205  1.1139 -1.4837
   59SAPC  H11Y 4542   1.287   5.311   5.072 -0.2478  0.4583  1.1032
   59SAPC  C312 4543   1.415   5.491   5.023 -0.0845 -0.1302 -0.4468
   59SAPC  H12X 4544   1.455   5.503   5.126 -0.4345 -0.2429 -0.2969
   59SAPC  H12Y 4545   1.384   5.590   4.983  2.1897  0.4340 -0.9341
   59SAPC  C313 4546   1.520   5.426   4.929 -0.2413  0.0447  0.3646
   59SAPC  H13X 4547   1.477   5.416   4.827 -0.2765 -0.0198  0.3859
   59SAPC  H13Y 4548   1.545   5.325   4.968  0.6087  0.3882  0.7151
   59SAPC  C314 4549   1.646   5.518   4.915  0.0911  0.3613  0.3825
   59SAPC  H14X 4550   1.722   5.494   4.993 -0.8386  0.9903  1.5189
   59SAPC  H14Y 4551   1.611   5.623   4.910 -0.4587  0.1131 -2.3222
   59SAPC  C315 4552   1.718   5.499   4.780  0.3978  0.2720 -0.2817
   59SAPC  H15X 4553   1.793   5.582   4.779  1.8919 -0.8745 -4.2093
   59SAPC  H15Y 4554   1.643   5.519   4.700  0.6721 -1.1877 -0.9250
   59SAPC  C316 4555   1.771   5.357   4.757  0.3020  0.1695 -0.1339
   59SAPC  H16X 4556   1.692   5.284   4.732 -1.4403  2.5625 -2.1127
   59SAPC  H16Y 4557   1.816   5.330   4.855 -1.6564 -0.9122  0.5212
   59SAPC  C317 4558   1.877   5.344   4.645 -0.3430  0.2116  0.4262
   59SAPC  H17X 4559   1.828   5.406   4.567 -0.9646  1.5338  1.8075
   59SAPC  H17Y 4560   1.871   5.234   4.627  1.0717  0.3197 -0.9237
   59SAPC  C318 4561   2.009   5.399   4.696 -0.1060  0.4658 -0.2989
   59SAPC  H18X 4562   2.044   5.310   4.753  0.3949  0.9977  0.2359
   59SAPC  H18Y 4563   2.004   5.495   4.750  0.1278  1.8896 -2.6864
   59SAPC  H18Z 4564   2.080   5.407   4.611 -1.7453  1.5514 -1.6396
   60SAPC     N 4565   3.683   0.210   7.409  0.0173 -0.1958  0.3672
   60SAPC   C12 4566   3.596   0.127   7.318  0.7636  0.1686 -0.2693
   60SAPC  H12A 4567   3.498   0.127   7.363  1.2365 -1.0043  0.7895
   60SAPC  H12B 4568   3.628   0.024   7.313  0.6270  0.1941 -2.2343
   60SAPC   C13 4569   3.833   0.210   7.374  0.4681 -0.7275 -0.1749
   60SAPC  H13A 4570   3.881   0.114   7.361  0.7070 -0.4409 -1.5487
   60SAPC  H13B 4571   3.842   0.260   7.279  0.8040  1.5598  1.0023
   60SAPC  H13C 4572   3.886   0.263   7.451 -1.0866 -1.1711  1.2504
   60SAPC   C14 4573   3.635   0.347   7.428  0.0631  0.3697 -0.3140
   60SAPC  H14A 4574   3.712   0.412   7.468 -0.2709  1.2480 -1.0501
   60SAPC  H14B 4575   3.610   0.388   7.331 -0.5586  1.5612  0.3217
   60SAPC  H14C 4576   3.553   0.353   7.498  2.8431  1.1390  3.1881
   60SAPC   C15 4577   3.675   0.138   7.541 -0.6484  0.4331 -0.4971
   60SAPC  H15A 4578   3.699   0.034   7.529  0.9636  0.5932  0.8541
   60SAPC  H15B 4579   3.736   0.185   7.617  1.8425  0.5571 -2.4607
   60SAPC  H15C 4580   3.573   0.145   7.577  0.1054  1.9271  1.5818
   60SAPC   C11 4581   3.584   0.188   7.174 -0.2823  0.3539 -0.2420
   60SAPC  H11A 4582   3.543   0.112   7.104  3.2057 -1.2427 -0.7587
   60SAPC  H11B 4583   3.688   0.196   7.136 -0.6758 -2.5234 -2.1486
   60SAPC     P 4584   3.359   0.318   7.171 -0.0234  0.5676  0.4061
   60SAPC   O13 4585   3.320   0.217   7.272  0.0446 -0.1113  0.3717
   60SAPC   O14 4586   3.321   0.456   7.198  0.0187  0.0547 -0.0399
   60SAPC   O12 4587   3.515   0.315   7.166  0.3725 -0.8016 -0.2456
   60SAPC   O11 4588   3.312   0.271   7.025 -0.7590 -0.4182 -0.1953
   60SAPC    C1 4589   3.401   0.295   6.920  0.0622 -0.1304 -0.1189
   60SAPC    HA 4590   3.509   0.291   6.946 -0.3082  0.7851  1.7444
   60SAPC    HB 4591   3.383   0.210   6.852 -0.0815 -0.2958  0.1243
   60SAPC    C2 4592   3.389   0.433   6.859 -0.0599 -0.1586 -0.3371
   60SAPC    HS 4593   3.390   0.507   6.942  1.0396 -0.7604  0.2090
   60SAPC   O21 4594   3.272   0.439   6.777  0.1954  0.0423  0.0486
   60SAPC   C21 4595   3.225   0.560   6.763  0.0422  0.5995  0.0534
   60SAPC   O22 4596   3.271   0.662   6.816 -0.0826  0.2394 -0.0639
   60SAPC   C22 4597   3.092   0.556   6.693 -0.0518 -0.7702 -0.2991
   60SAPC   H2R 4598   3.024   0.598   6.771  1.1077 -1.7150  1.2848
   60SAPC   H2S 4599   3.082   0.621   6.604 -0.8775  0.0357  0.3573
   60SAPC    C3 4600   3.516   0.461   6.762  0.9086 -0.2354  0.2697
   60SAPC    HX 4601   3.602   0.464   6.833  0.7436  0.3087  0.4477
   60SAPC    HY 4602   3.488   0.557   6.714 -3.1327 -1.1634  0.4520
   60SAPC   O31 4603   3.530   0.356   6.666 -0.1397  0.5264 -1.1456
   60SAPC   C31 4604   3.464   0.359   6.559 -0.0708 -0.6236  0.6613
   60SAPC   O32 4605   3.413   0.465   6.517  0.0247  0.0846  0.1879
   60SAPC   C32 4606   3.479   0.227   6.484  0.8320 -0.2086  0.6311
   60SAPC   H2X 4607   3.438   0.151   6.554  1.1924  1.5296  2.8663
   60SAPC   H2Y 4608   3.586   0.200   6.473  0.5948 -2.4271  2.9704
   60SAPC   C23 4609   3.037   0.415   6.649 -0.7324  0.4778 -0.4760
   60SAPC   H3R 4610   3.036   0.342   6.733 -0.8688 -3.3449 -3.5167
   60SAPC   H3S 4611   3.104   0.369   6.573 -1.1318 -1.1520  0.1240
   60SAPC   C24 4612   2.904   0.425   6.583  0.0367  0.2317 -0.0746
   60SAPC   H4R 4613   2.915   0.490   6.494  0.0724  0.7128  0.2798
   60SAPC   H4S 4614   2.838   0.476   6.657 -0.2696  0.3103 -0.3973
   60SAPC   C25 4615   2.847   0.286   6.534 -0.4469 -0.9542 -0.0041
   60SAPC   H5R 4616   2.771   0.251   6.605 -1.2072 -1.2831 -0.9495
   60SAPC   C26 4617   2.870   0.214   6.426 -0.6366  0.2537 -0.0225
   60SAPC   H6R 4618   2.807   0.124   6.414 -0.4031 -0.3312  2.4964
   60SAPC   C27 4619   2.954   0.247   6.304  0.0874 -0.2256  0.3152
   60SAPC   H7R 4620   3.047   0.296   6.341  0.7038 -0.5374 -0.7726
   60SAPC   H7S 4621   2.902   0.315   6.234  0.7658  0.6746  0.6692
   60SAPC   C28 4622   3.008   0.134   6.224  0.0949  0.8591  0.3228
   60SAPC   H8R 4623   3.007   0.040   6.281  0.2583  0.7290  0.1134
   60SAPC   C29 4624   3.062   0.139   6.097 -0.0033 -0.3853 -0.6448
   60SAPC   H9R 4625   3.103   0.055   6.038  0.6418  0.0916 -0.8897
   60SAPC  C210 4626   3.071   0.270   6.023  0.2291  0.9390  0.1131
   60SAPC  H10R 4627   3.079   0.358   6.091  0.7440 -0.4400  1.9103
   60SAPC  H10S 4628   2.979   0.290   5.963 -0.5115  1.7691  1.4718
   60SAPC  C211 4629   3.183   0.269   5.920 -0.5294  0.4138  0.4430
   60SAPC  H11R 4630   3.283   0.274   5.965  0.2689  2.9450 -1.4295
   60SAPC  C212 4631   3.160   0.269   5.784  0.1224  0.7344 -0.7817
   60SAPC  H12R 4632   3.247   0.271   5.717  1.5193 -1.7618  0.8018
   60SAPC  C213 4633   3.023   0.276   5.719 -0.1567  0.1121  0.0427
   60SAPC  H13R 4634   2.940   0.237   5.783  0.2640  0.5932  0.9052
   60SAPC  H13S 4635   3.022   0.214   5.627 -2.1516  0.8908 -0.5098
   60SAPC  C214 4636   2.985   0.414   5.682  0.0469  0.1248  0.2598
   60SAPC  H14R 4637   2.919   0.465   5.753  1.8685  1.6594  0.9507
   60SAPC  C215 4638   3.000   0.467   5.557  0.1297  0.7665 -0.5735
   60SAPC  H15R 4639   2.950   0.564   5.548  0.4559  0.8999 -1.0050
   60SAPC  C216 4640   3.075   0.393   5.441 -0.0656 -0.0222  0.0869
   60SAPC  H16R 4641   3.128   0.310   5.492 -0.8194 -1.6562 -1.6696
   60SAPC  H16S 4642   3.137   0.465   5.383  1.0844 -0.0965  1.1978
   60SAPC  C217 4643   2.978   0.327   5.341  0.7438  0.0678  0.3801
   60SAPC  H17R 4644   2.876   0.316   5.382 -0.1769  1.2430 -1.4645
   60SAPC  H17S 4645   3.016   0.224   5.326 -1.0836 -0.6098  0.1517
   60SAPC  C218 4646   2.969   0.403   5.205  0.8159  0.2015 -0.2165
   60SAPC  H18R 4647   3.071   0.443   5.183  0.1004  2.3549  0.1437
   60SAPC  H18S 4648   2.908   0.496   5.212  1.2357  0.9199 -4.1357
   60SAPC  C219 4649   2.934   0.318   5.076  0.1860 -0.9935 -0.3754
   60SAPC  H19R 4650   2.976   0.219   5.103  0.6675 -0.5876  0.4049
   60SAPC  H19S 4651   2.975   0.376   4.990 -0.8462  0.3434 -0.0069
   60SAPC  C220 4652   2.784   0.300   5.066 -0.0571  0.8227  0.1579
   60SAPC  H20R 4653   2.731   0.398   5.066 -0.8342  0.4221 -0.6506
   60SAPC  H20S 4654   2.759   0.250   5.162 -1.0760  0.7872 -0.1139
   60SAPC  H20T 4655   2.754   0.239   4.977 -2.5641  0.9590  0.8166
   60SAPC   C33 4656   3.398   0.233   6.350 -0.1081 -0.7434  0.3204
   60SAPC   H3X 4657   3.401   0.335   6.305  2.6987 -0.6521  0.5949
   60SAPC   H3Y 4658   3.298   0.199   6.386  0.6642 -2.4977  0.9209
   60SAPC   C34 4659   3.459   0.125   6.250  0.5085  0.5707 -0.4570
   60SAPC   H4X 4660   3.379   0.098   6.177  0.4786 -0.7478  0.0378
   60SAPC   H4Y 4661   3.476   0.034   6.311 -0.5263  0.1276 -0.8070
   60SAPC   C35 4662   3.583   0.157   6.165 -0.7180  0.9378  0.0306
   60SAPC   H5X 4663   3.660   0.198   6.233  0.7655  0.0932 -1.0750
   60SAPC   H5Y 4664   3.558   0.241   6.096 -1.1574  0.6247 -0.1999
   60SAPC   C36 4665   3.633   0.039   6.081 -0.3676  0.8112  0.1238
   60SAPC   H6X 4666   3.554  -0.040   6.085  0.3130  0.1605  0.9338
   60SAPC   H6Y 4667   3.707  -0.013   6.145 -1.8257 -1.0326  0.4258
   60SAPC   C37 4668   3.701   0.068   5.946 -0.2450  0.4895 -0.5645
   60SAPC   H7X 4669   3.775  -0.012   5.924  1.5210  2.0444 -0.4664
   60SAPC   H7Y 4670   3.768   0.156   5.952 -0.1804  0.3786  0.5894
   60SAPC   C38 4671   3.596   0.090   5.843  0.2014 -0.0905  0.3918
   60SAPC   H8X 4672   3.538   0.180   5.875 -0.7817 -0.6808  0.3331
   60SAPC   H8Y 4673   3.527   0.003   5.831 -1.6509  1.4144 -0.5081
   60SAPC   C39 4674   3.655   0.129   5.702 -0.0340  0.0441  0.3521
   60SAPC   H9X 4675   3.735   0.204   5.724  0.2498  0.6232 -2.2940
   60SAPC   H9Y 4676   3.578   0.186   5.646 -0.5734 -1.1329 -0.1229
   60SAPC  C310 4677   3.714   0.014   5.620 -0.3496  0.2653  0.1226
   60SAPC  H10X 4678   3.641  -0.070   5.616  1.3410 -1.3808  1.5508
   60SAPC  H10Y 4679   3.798  -0.035   5.674 -3.0915 -1.6916  2.9974
   60SAPC  C311 4680   3.766   0.065   5.488 -0.1280 -0.4870  0.0320
   60SAPC  H11X 4681   3.825   0.157   5.506  0.7623 -1.1244  0.4165
   60SAPC  H11Y 4682   3.682   0.069   5.414 -0.7435 -0.6952  0.7108
   60SAPC  C312 4683   3.862  -0.037   5.424 -0.3601  0.0888 -0.5916
   60SAPC  H12X 4684   3.802  -0.131   5.421 -1.8748  0.8503  2.2596
   60SAPC  H12Y 4685   3.949  -0.039   5.492 -1.1129  2.0218  0.5053
   60SAPC  C313 4686   3.892  -0.013   5.277  0.7948  0.4781  0.7229
   60SAPC  H13X 4687   3.977  -0.077   5.247  0.6763 -0.4465  2.2523
   60SAPC  H13Y 4688   3.925   0.092   5.259 -0.9304  0.6845 -1.9456
   60SAPC  C314 4689   3.768  -0.046   5.189  0.7941 -0.3695 -0.8009
   60SAPC  H14X 4690   3.684   0.025   5.207 -0.2813 -1.7662 -0.1927
   60SAPC  H14Y 4691   3.717  -0.136   5.229 -0.6304  0.4907 -0.6067
   60SAPC  C315 4692   3.777  -0.095   5.048 -0.2435 -0.3788  0.6426
   60SAPC  H15X 4693   3.693  -0.149   5.000 -0.3355 -2.2535  2.7086
   60SAPC  H15Y 4694   3.855  -0.175   5.045  0.0062 -0.0966 -1.1315
   60SAPC  C316 4695   3.840   0.019   4.958  0.8228  0.3835  0.3866
   60SAPC  H16X 4696   3.917  -0.028   4.893  0.3771  0.5837 -0.2942
   60SAPC  H16Y 4697   3.884   0.091   5.030 -1.6036 -0.0661  2.4431
   60SAPC  C317 4698   3.740   0.096   4.871  0.8746  0.0987  0.2432
   60SAPC  H17X 4699   3.792   0.188   4.837  0.0337  0.6770  0.4842
   60SAPC  H17Y 4700   3.651   0.132   4.928  0.2796 -3.6922  2.0143
   60SAPC  C318 4701   3.687   0.021   4.748  0.6461  0.3443  0.7075
   60SAPC  H18X 4702   3.598   0.076   4.711  1.1330  1.6237  1.3665
   60SAPC  H18Y 4703   3.648  -0.080   4.774  2.0884 -1.1006 -2.1679
   60SAPC  H18Z 4704   3.766   0.014   4.669 -0.8322 -2.8553 -0.6662
   61SAPC     N 4705   6.794   6.591   6.877  0.0765  0.2350 -0.3886
   61SAPC   C12 4706   6.919   6.612   6.957  0.2419 -0.3802  0.2577
   61SAPC  H12A 4707   6.890   6.623   7.061  0.3905  0.3877  0.2314
   61SAPC  H12B 4708   6.960   6.708   6.926 -2.3880  0.3033 -1.3439
   61SAPC   C13 4709   6.703   6.709   6.891  0.0519 -0.8506  0.5703
   61SAPC  H13A 4710   6.745   6.808   6.880 -0.6372 -0.5717  0.3323
   61SAPC  H13B 4711   6.613   6.704   6.831  0.8457 -1.7007 -0.5919
   61SAPC  H13C 4712   6.678   6.718   6.996  0.6259 -0.0368  0.6438
   61SAPC   C14 4713   6.812   6.566   6.734 -0.5353  0.5237 -0.1025
   61SAPC  H14A 4714   6.858   6.470   6.716 -1.4121  0.0325  0.1763
   61SAPC  H14B 4715   6.723   6.586   6.677  0.2489  2.3428 -0.7669
   61SAPC  H14C 4716   6.888   6.636   6.702  0.4974 -0.9926 -1.1195
   61SAPC   C15 4717   6.703   6.480   6.919  0.6103  0.0742 -0.3686
   61SAPC  H15A 4718   6.656   6.505   7.013  0.8355  0.2179 -0.2972
   61SAPC  H15B 4719   6.631   6.485   6.838  1.3738  4.0347 -0.9915
   61SAPC  H15C 4720   6.762   6.389   6.915  2.1144  1.0127 -0.1359
   61SAPC   C11 4721   7.026   6.495   6.952  0.6996  0.9174 -0.0511
   61SAPC  H11A 4722   6.960   6.410   6.976  0.5079  1.6470  2.1595
   61SAPC  H11B 4723   7.102   6.509   7.032  1.4554  0.7602 -0.7295
   61SAPC     P 4724   7.202   6.582   6.785  0.1995  0.2527 -0.3048
   61SAPC   O13 4725   7.192   6.717   6.850  0.3685 -0.2281  0.3687
   61SAPC   O14 4726   7.329   6.505   6.796  0.3439  0.7233  0.2644
   61SAPC   O12 4727   7.085   6.486   6.819  0.0850 -0.5455  0.7690
   61SAPC   O11 4728   7.178   6.604   6.634 -0.3807  0.2535 -0.3748
   61SAPC    C1 4729   7.137   6.491   6.556  0.0414 -0.0852 -1.0018
   61SAPC    HA 4730   7.211   6.410   6.576  1.1936  1.2851  0.5368
   61SAPC    HB 4731   7.044   6.450   6.601  0.8906 -0.1704  0.7868
   61SAPC    C2 4732   7.103   6.531   6.410  0.1101  0.6367 -0.3368
   61SAPC    HS 4733   7.096   6.435   6.354  0.6324 -0.3520  1.1995
   61SAPC   O21 4734   7.204   6.618   6.358  0.3244 -0.1130 -0.1542
   61SAPC   C21 4735   7.318   6.554   6.341 -0.2060  0.9695 -0.2296
   61SAPC   O22 4736   7.334   6.432   6.357  0.4326  0.6599 -0.3803
   61SAPC   C22 4737   7.429   6.638   6.291 -0.7972  0.1193  0.1345
   61SAPC   H2R 4738   7.404   6.745   6.310 -1.9227 -0.2873  1.0856
   61SAPC   H2S 4739   7.520   6.608   6.347 -1.1344  1.5521  1.5331
   61SAPC    C3 4740   6.969   6.610   6.396 -0.3249  0.7576  0.0767
   61SAPC    HX 4741   6.979   6.698   6.463  0.3545  0.2931  0.5888
   61SAPC    HY 4742   6.897   6.546   6.450  0.1806 -0.3252 -0.5090
   61SAPC   O31 4743   6.937   6.633   6.259  0.1217  0.0457 -0.0247
   61SAPC   C31 4744   6.983   6.749   6.214 -0.3139  0.3127 -0.8410
   61SAPC   O32 4745   7.043   6.828   6.288  0.3449 -0.2190 -0.2677
   61SAPC   C32 4746   6.964   6.763   6.068  0.3741 -0.0368  0.5872
   61SAPC   H2X 4747   6.881   6.696   6.038 -0.5292  1.1793  0.2751
   61SAPC   H2Y 4748   7.048   6.721   6.008 -0.1219 -1.3604  0.7968
   61SAPC   C23 4749   7.469   6.625   6.142  0.6515 -0.2721 -0.2536
   61SAPC   H3R 4750   7.527   6.531   6.128  0.2933 -0.4995 -0.2276
   61SAPC   H3S 4751   7.538   6.711   6.129  0.9583 -0.4391  0.2503
   61SAPC   C24 4752   7.355   6.638   6.036  0.1537  0.0692  0.6661
   61SAPC   H4R 4753   7.404   6.643   5.936 -0.0241  0.7516  0.6053
   61SAPC   H4S 4754   7.306   6.737   6.049 -1.6274 -0.5241 -1.0700
   61SAPC   C25 4755   7.247   6.522   6.038  0.0412 -0.2692 -0.2949
   61SAPC   H5R 4756   7.210   6.488   6.136 -1.1449 -0.1293 -0.6713
   61SAPC   C26 4757   7.210   6.442   5.932 -0.2919  0.4903 -0.2989
   61SAPC   H6R 4758   7.142   6.357   5.948  0.5629 -0.6141 -2.2402
   61SAPC   C27 4759   7.264   6.442   5.791  0.1175 -0.4511  0.1315
   61SAPC   H7R 4760   7.263   6.334   5.763 -0.3019 -0.2114 -0.8135
   61SAPC   H7S 4761   7.369   6.477   5.793 -0.2450  0.7716  3.3497
   61SAPC   C28 4762   7.170   6.521   5.703 -0.2809  0.1334 -0.3777
   61SAPC   H8R 4763   7.073   6.555   5.744 -0.8127  0.8595 -2.1616
   61SAPC   C29 4764   7.181   6.521   5.568 -0.0693  0.8094 -0.1391
   61SAPC   H9R 4765   7.104   6.551   5.496  0.7074  2.2819 -0.4008
   61SAPC  C210 4766   7.298   6.465   5.490 -0.5591  0.7990  0.8953
   61SAPC  H10R 4767   7.279   6.359   5.466 -0.5489  1.2417 -1.2822
   61SAPC  H10S 4768   7.386   6.450   5.556 -1.4786  0.7727  2.1483
   61SAPC  C211 4769   7.352   6.552   5.377 -0.1682 -0.5931 -0.1412
   61SAPC  H11R 4770   7.421   6.629   5.414  0.6801 -2.2151  1.7919
   61SAPC  C212 4771   7.323   6.539   5.248 -0.4492  0.6032 -0.0104
   61SAPC  H12R 4772   7.365   6.602   5.168 -2.8659  2.5095  0.0878
   61SAPC  C213 4773   7.245   6.429   5.180 -0.4238 -0.5769  0.0028
   61SAPC  H13R 4774   7.208   6.471   5.084 -0.2328  0.6467  0.4376
   61SAPC  H13S 4775   7.152   6.421   5.242  1.5616  0.1317  3.3236
   61SAPC  C214 4776   7.309   6.291   5.151 -0.1773 -0.3077  0.2914
   61SAPC  H14R 4777   7.284   6.217   5.228  0.6811 -0.6175  0.2838
   61SAPC  C215 4778   7.389   6.258   5.044 -0.1680 -0.2941  0.1364
   61SAPC  H15R 4779   7.439   6.160   5.041  0.6107  0.0482  1.2788
   61SAPC  C216 4780   7.421   6.370   4.937 -0.0343  0.2477  0.3921
   61SAPC  H16R 4781   7.530   6.386   4.938 -0.1228  1.1160  2.5604
   61SAPC  H16S 4782   7.378   6.468   4.967 -2.3757 -0.8455  0.9094
   61SAPC  C217 4783   7.363   6.332   4.800  0.1346 -0.3812  0.1009
   61SAPC  H17R 4784   7.252   6.330   4.808  0.1216  2.7051  2.1706
   61SAPC  H17S 4785   7.410   6.233   4.777  1.7342  0.5061 -0.6165
   61SAPC  C218 4786   7.394   6.425   4.680  0.6193  0.2476  0.3755
   61SAPC  H18R 4787   7.340   6.522   4.673 -1.6094 -0.9121  0.5753
   61SAPC  H18S 4788   7.355   6.372   4.591  0.1303 -0.1503  0.8202
   61SAPC  C219 4789   7.542   6.460   4.661 -0.0958  0.3374  0.3146
   61SAPC  H19R 4790   7.603   6.385   4.607 -0.6910 -0.2187  0.3995
   61SAPC  H19S 4791   7.590   6.486   4.757  3.1541  0.6208 -1.2598
   61SAPC  C220 4792   7.549   6.580   4.569 -0.1861 -0.6171 -0.4269
   61SAPC  H20R 4793   7.651   6.588   4.528  0.8224  0.0234  2.0110
   61SAPC  H20S 4794   7.530   6.673   4.627  2.4421  0.2650 -0.8647
   61SAPC  H20T 4795   7.475   6.565   4.487  1.9424 -3.3239 -2.0261
   61SAPC   C33 4796   6.925   6.906   6.017 -0.1889 -0.7641  0.1444
   61SAPC   H3X 4797   7.003   6.977   6.052 -0.3493 -1.3800  1.8334
   61SAPC   H3Y 4798   6.838   6.953   6.069  0.4644 -0.0995  0.6790
   61SAPC   C34 4799   6.907   6.918   5.871  0.0411 -0.2199  0.7168
   61SAPC   H4X 4800   7.008   6.893   5.832 -0.7755 -1.5898 -0.6334
   61SAPC   H4Y 4801   6.888   7.023   5.840  1.9816 -0.7496 -2.8098
   61SAPC   C35 4802   6.813   6.815   5.812 -0.2623 -0.3463 -0.7461
   61SAPC   H5X 4803   6.716   6.842   5.860  0.5383  0.5189  0.4474
   61SAPC   H5Y 4804   6.859   6.718   5.840  0.3969  0.3736  0.7415
   61SAPC   C36 4805   6.799   6.820   5.661 -0.1601 -0.1284  0.0511
   61SAPC   H6X 4806   6.813   6.924   5.623 -0.1419  0.6774  2.1226
   61SAPC   H6Y 4807   6.703   6.767   5.640 -0.9835  1.9718 -1.9341
   61SAPC   C37 4808   6.909   6.737   5.581 -0.9591 -0.0222 -0.5438
   61SAPC   H7X 4809   6.896   6.632   5.613  0.6653 -0.9068 -2.5337
   61SAPC   H7Y 4810   7.015   6.761   5.602 -1.1109  0.0167  0.2093
   61SAPC   C38 4811   6.891   6.733   5.429  0.3467 -0.7135 -0.8566
   61SAPC   H8X 4812   6.968   6.671   5.379  0.2486 -0.5017 -1.2765
   61SAPC   H8Y 4813   6.905   6.835   5.386  2.2995  0.2956  1.8089
   61SAPC   C39 4814   6.752   6.683   5.389 -0.0825  0.1869  0.5019
   61SAPC   H9X 4815   6.662   6.745   5.408 -0.6589  0.2055 -2.0116
   61SAPC   H9Y 4816   6.732   6.602   5.463 -0.6379  0.7294  0.9561
   61SAPC  C310 4817   6.741   6.633   5.245  1.5646  0.1882 -0.2259
   61SAPC  H10X 4818   6.663   6.558   5.220  2.1581 -0.2719 -0.7334
   61SAPC  H10Y 4819   6.843   6.594   5.224  2.4030  1.5351  1.1619
   61SAPC  C311 4820   6.700   6.742   5.148 -0.5047 -0.3185  0.3414
   61SAPC  H11X 4821   6.778   6.820   5.140 -0.2958 -0.4639  0.8959
   61SAPC  H11Y 4822   6.609   6.800   5.174  0.4994  0.7052  1.7017
   61SAPC  C312 4823   6.687   6.687   5.004 -0.0943  0.3839 -0.1871
   61SAPC  H12X 4824   6.642   6.586   5.007  1.5113 -0.3392  1.8992
   61SAPC  H12Y 4825   6.788   6.684   4.958  0.6247 -3.4380  1.2813
   61SAPC  C313 4826   6.591   6.779   4.924  0.4470 -0.5195  0.0147
   61SAPC  H13X 4827   6.642   6.878   4.925 -1.1433  0.3562  1.4424
   61SAPC  H13Y 4828   6.493   6.790   4.976  1.5533 -1.6624  2.4882
   61SAPC  C314 4829   6.576   6.715   4.781  0.2659 -0.3351 -0.1339
   61SAPC  H14X 4830   6.537   6.615   4.810 -1.2083  0.3440  0.3473
   61SAPC  H14Y 4831   6.675   6.706   4.731 -0.3611 -0.6321 -1.3735
   61SAPC  C315 4832   6.494   6.789   4.676 -0.2384  0.1297 -0.0159
   61SAPC  H15X 4833   6.528   6.893   4.655 -3.2945  1.2615  0.1858
   61SAPC  H15Y 4834   6.386   6.789   4.703 -0.0798 -0.0061  0.6522
   61SAPC  C316 4835   6.500   6.713   4.541 -0.0212 -0.6338  0.6641
   61SAPC  H16X 4836   6.446   6.617   4.552 -1.1195 -0.0027  0.9997
   61SAPC  H16Y 4837   6.606   6.689   4.517 -1.0575 -2.6417 -2.6632
   61SAPC  C317 4838   6.430   6.787   4.425  0.7294  0.0676  0.5032
   61SAPC  H17X 4839   6.466   6.891   4.409 -1.0802  0.7214  0.3940
   61SAPC  H17Y 4840   6.321   6.795   4.446  0.3084  2.0953 -1.9182
   61SAPC  C318 4841   6.462   6.711   4.289 -0.2616 -0.4188 -0.1640
   61SAPC  H18X 4842   6.416   6.769   4.206 -2.0347  0.3450  1.2875
   61SAPC  H18Y 4843   6.419   6.609   4.291  0.5348 -0.7390  1.0737
   61SAPC  H18Z 4844   6.571   6.708   4.268  0.1255  0.5586  1.5624
   62SAPC     N 4845   2.268   4.035   6.236 -0.1960  0.7368  0.1665
   62SAPC   C12 4846   2.318   3.883   6.239 -0.1468  0.5957  0.1398
   62SAPC  H12A 4847   2.364   3.867   6.143 -1.7441  0.6456 -0.6728
   62SAPC  H12B 4848   2.235   3.814   6.235 -0.5009  1.0781 -1.5301
   62SAPC   C13 4849   2.387   4.124   6.252 -0.7091  0.4098 -0.5862
   62SAPC  H13A 4850   2.461   4.117   6.174  0.7101  1.0931  0.6592
   62SAPC  H13B 4851   2.369   4.230   6.265 -0.4743  0.1344  2.6346
   62SAPC  H13C 4852   2.435   4.108   6.347  1.8871  4.9407 -0.8602
   62SAPC   C14 4853   2.213   4.064   6.101  0.1860 -0.3683  0.1982
   62SAPC  H14A 4854   2.164   4.160   6.106 -1.0321 -1.0286  2.6520
   62SAPC  H14B 4855   2.284   4.063   6.019 -0.0384 -2.0369 -0.0134
   62SAPC  H14C 4856   2.146   3.981   6.083 -1.4248  1.0865 -0.7427
   62SAPC   C15 4857   2.164   4.057   6.341  0.1152  0.2206 -0.3854
   62SAPC  H15A 4858   2.136   4.157   6.367 -0.1855 -0.5952  2.7926
   62SAPC  H15B 4859   2.082   3.989   6.323  0.9111 -0.9290  0.1935
   62SAPC  H15C 4860   2.209   4.024   6.433  0.1671 -1.3896 -0.9384
   62SAPC   C11 4861   2.407   3.831   6.363  0.3950 -0.1559  0.0004
   62SAPC  H11A 4862   2.431   3.725   6.338 -0.7683  0.3282 -3.8603
   62SAPC  H11B 4863   2.341   3.833   6.452  1.1010 -1.4725  0.5809
   62SAPC     P 4864   2.660   3.921   6.299  0.0584  0.2481  0.1422
   62SAPC   O13 4865   2.713   4.057   6.320 -0.8365 -0.1759 -0.6598
   62SAPC   O14 4866   2.754   3.807   6.334  0.1289 -0.0802 -0.4284
   62SAPC   O12 4867   2.523   3.905   6.384  0.3642  0.4631 -0.0390
   62SAPC   O11 4868   2.615   3.904   6.153  0.4589 -0.4281  0.0431
   62SAPC    C1 4869   2.616   3.779   6.096 -0.2831  0.3906  0.2385
   62SAPC    HA 4870   2.599   3.691   6.162  0.9493 -1.1117 -1.3539
   62SAPC    HB 4871   2.527   3.763   6.030 -0.6000 -0.6386  0.8769
   62SAPC    C2 4872   2.743   3.751   6.010 -0.3992  0.0437  0.0930
   62SAPC    HS 4873   2.832   3.772   6.072 -0.3066 -0.0103 -0.0217
   62SAPC   O21 4874   2.744   3.849   5.899  0.6461  0.2439  0.5996
   62SAPC   C21 4875   2.859   3.915   5.879  0.0937 -0.4867  0.3333
   62SAPC   O22 4876   2.967   3.905   5.934 -0.4345  0.2262  0.2209
   62SAPC   C22 4877   2.831   4.018   5.761  0.4410 -0.5228 -0.2622
   62SAPC   H2R 4878   2.780   4.103   5.811 -0.4439 -0.7738 -0.7153
   62SAPC   H2S 4879   2.934   4.047   5.734  1.2491 -0.2124  2.7632
   62SAPC    C3 4880   2.754   3.607   5.949 -1.2468  0.1386  0.0281
   62SAPC    HX 4881   2.664   3.592   5.885  0.2917  0.2617 -2.3029
   62SAPC    HY 4882   2.746   3.543   6.039  0.2021 -0.8413 -0.5081
   62SAPC   O31 4883   2.871   3.593   5.858 -0.6367  0.5066  0.5116
   62SAPC   C31 4884   2.987   3.562   5.914  0.5553  0.1075  0.2102
   62SAPC   O32 4885   2.994   3.522   6.031  0.3957 -0.1932  0.2774
   62SAPC   C32 4886   3.107   3.571   5.824  0.0744  0.3816  0.4782
   62SAPC   H2X 4887   3.106   3.482   5.757  3.5165 -1.9922  3.1840
   62SAPC   H2Y 4888   3.197   3.551   5.886  0.7290  0.7378 -0.3434
   62SAPC   C23 4889   2.750   3.951   5.648 -0.3851 -0.4926  0.5336
   62SAPC   H3R 4890   2.652   3.912   5.684 -0.9084 -0.6243 -0.9370
   62SAPC   H3S 4891   2.800   3.866   5.596 -0.6678 -1.1099  1.2578
   62SAPC   C24 4892   2.712   4.057   5.548  0.5670 -0.0516  0.1103
   62SAPC   H4R 4893   2.690   4.148   5.608 -3.0371  0.5167 -1.8319
   62SAPC   H4S 4894   2.614   4.032   5.502  0.4180  0.6252  0.0553
   62SAPC   C25 4895   2.814   4.079   5.442 -0.2493  0.9029  0.3800
   62SAPC   H5R 4896   2.918   4.096   5.470  0.5725 -2.5016 -0.1798
   62SAPC   C26 4897   2.791   4.058   5.310  0.3994  0.6390 -0.5058
   62SAPC   H6R 4898   2.875   4.073   5.242  1.8705  1.8729  1.4647
   62SAPC   C27 4899   2.665   3.993   5.250 -0.8082  0.7010 -0.1751
   62SAPC   H7R 4900   2.665   4.027   5.144  1.3701 -0.5413 -0.6339
   62SAPC   H7S 4901   2.575   4.038   5.298  1.6937  4.4991  1.4203
   62SAPC   C28 4902   2.662   3.841   5.254 -0.2315 -0.1371 -0.0474
   62SAPC   H8R 4903   2.684   3.800   5.354  0.8033 -0.1447 -0.2617
   62SAPC   C29 4904   2.638   3.751   5.150 -0.2067  0.1014 -0.6846
   62SAPC   H9R 4905   2.642   3.646   5.180  2.1085  0.5708  0.9561
   62SAPC  C210 4906   2.610   3.785   5.003 -0.5673 -0.2101 -0.2218
   62SAPC  H10R 4907   2.695   3.755   4.938 -0.5273 -1.6216  0.4375
   62SAPC  H10S 4908   2.605   3.895   4.989 -1.7679 -0.1018  0.8387
   62SAPC  C211 4909   2.485   3.728   4.958 -0.3189  0.4167  0.0375
   62SAPC  H11R 4910   2.428   3.660   5.023 -0.3259  1.6737  1.3880
   62SAPC  C212 4911   2.439   3.740   4.834 -0.0996  0.1466 -0.6231
   62SAPC  H12R 4912   2.346   3.687   4.807 -0.4133  0.3348  0.0413
   62SAPC  C213 4913   2.504   3.822   4.725  0.0107 -0.9321 -0.6961
   62SAPC  H13R 4914   2.527   3.921   4.770 -1.1055 -1.9335  2.3314
   62SAPC  H13S 4915   2.428   3.834   4.645 -2.4039 -1.5423  1.3425
   62SAPC  C214 4916   2.621   3.740   4.665  0.2435 -0.7190  1.0279
   62SAPC  H14R 4917   2.660   3.656   4.724 -2.0022 -0.7019  2.6147
   62SAPC  C215 4918   2.677   3.772   4.549 -0.2155  1.3734 -0.3782
   62SAPC  H15R 4919   2.764   3.713   4.517  0.4190  0.4861  2.6758
   62SAPC  C216 4920   2.620   3.879   4.460 -0.6213 -0.6267  0.6517
   62SAPC  H16R 4921   2.706   3.919   4.402 -1.8798  0.0826 -0.8114
   62SAPC  H16S 4922   2.593   3.967   4.522  1.8014  0.2822  0.5081
   62SAPC  C217 4923   2.500   3.848   4.366  0.3914  0.2233 -0.6640
   62SAPC  H17R 4924   2.422   3.797   4.426 -0.6658  0.4118 -1.8330
   62SAPC  H17S 4925   2.534   3.778   4.286 -0.1362  1.3591 -1.9281
   62SAPC  C218 4926   2.434   3.968   4.294  0.0782 -0.1617  0.0781
   62SAPC  H18R 4927   2.409   4.045   4.371  2.2871 -0.3730  1.0872
   62SAPC  H18S 4928   2.356   3.927   4.227  0.8628  1.1815 -1.7483
   62SAPC  C219 4929   2.534   4.029   4.195  0.4682 -0.4489 -0.3006
   62SAPC  H19R 4930   2.558   3.954   4.117 -0.0625  0.4492 -1.3640
   62SAPC  H19S 4931   2.626   4.063   4.248 -0.4865 -0.1266  1.2234
   62SAPC  C220 4932   2.464   4.141   4.114 -0.2736  0.3065  0.5592
   62SAPC  H20R 4933   2.379   4.093   4.060 -1.1606  0.7575  1.5200
   62SAPC  H20S 4934   2.526   4.189   4.036 -1.1451  2.2676  1.0063
   62SAPC  H20T 4935   2.425   4.216   4.186  1.4104  0.8246  0.9770
   62SAPC   C33 4936   3.122   3.700   5.743 -0.3764 -0.0865 -0.3163
   62SAPC   H3X 4937   3.138   3.785   5.813  3.1418  0.0928 -1.1422
   62SAPC   H3Y 4938   3.033   3.714   5.679 -2.4052  0.6528  2.4672
   62SAPC   C34 4939   3.254   3.704   5.659  0.3376  0.9276  0.2556
   62SAPC   H4X 4940   3.246   3.651   5.561  0.6252  0.1747  0.6261
   62SAPC   H4Y 4941   3.332   3.653   5.720 -0.1667 -0.8723 -0.5123
   62SAPC   C35 4942   3.306   3.844   5.601  0.4581  0.1679  0.8147
   62SAPC   H5X 4943   3.397   3.833   5.538 -2.2539  1.1780 -3.7207
   62SAPC   H5Y 4944   3.318   3.905   5.693 -1.5649 -1.0313  1.9317
   62SAPC   C36 4945   3.215   3.911   5.500 -0.3389 -0.8266 -0.8321
   62SAPC   H6X 4946   3.240   4.019   5.504 -0.0236 -0.9388  2.0568
   62SAPC   H6Y 4947   3.107   3.892   5.520 -0.5059  0.2055 -0.7180
   62SAPC   C37 4948   3.248   3.878   5.355  0.3866 -0.2787 -0.4850
   62SAPC   H7X 4949   3.220   3.771   5.342 -2.1030  0.0758  1.2405
   62SAPC   H7Y 4950   3.354   3.895   5.324  0.7064 -1.5518 -0.1558
   62SAPC   C38 4951   3.140   3.945   5.261  0.3789 -0.7725 -0.1166
   62SAPC   H8X 4952   3.144   4.055   5.249 -2.2652 -0.3657  1.8303
   62SAPC   H8Y 4953   3.040   3.926   5.304 -0.4579  1.5471 -0.9225
   62SAPC   C39 4954   3.131   3.875   5.125 -1.5994 -0.1107  0.0828
   62SAPC   H9X 4955   3.137   3.764   5.127 -1.7300 -0.1170  0.1511
   62SAPC   H9Y 4956   3.224   3.917   5.082 -1.5525  0.4293  0.6907
   62SAPC  C310 4957   3.019   3.936   5.041  0.2738 -0.5096 -0.1192
   62SAPC  H10X 4958   3.020   4.044   5.069  2.5274 -0.4173 -0.3536
   62SAPC  H10Y 4959   2.921   3.891   5.068 -0.6634  1.1088 -0.6492
   62SAPC  C311 4960   3.026   3.930   4.887  0.1369 -0.7222 -0.0244
   62SAPC  H11X 4961   3.020   3.823   4.857  0.0833 -1.5160  2.5871
   62SAPC  H11Y 4962   3.125   3.973   4.861  0.2209 -0.1532  1.1620
   62SAPC  C312 4963   2.916   4.010   4.803 -0.5248  0.0672 -0.6991
   62SAPC  H12X 4964   2.901   4.109   4.852 -0.0099 -0.3952  0.4256
   62SAPC  H12Y 4965   2.821   3.955   4.817  0.2207 -0.6678  1.9506
   62SAPC  C313 4966   2.962   4.017   4.657  0.6398  0.3031  0.1165
   62SAPC  H13X 4967   2.960   3.919   4.605  0.4996  0.5849 -0.4181
   62SAPC  H13Y 4968   3.067   4.053   4.658  0.4333  1.3186 -2.8829
   62SAPC  C314 4969   2.889   4.123   4.577  0.2769  0.1463  0.4159
   62SAPC  H14X 4970   2.932   4.223   4.600  1.6379 -0.7542  2.0984
   62SAPC  H14Y 4971   2.780   4.109   4.590  0.5825 -1.9698  1.1047
   62SAPC  C315 4972   2.928   4.109   4.431  0.4248  1.1277  0.5609
   62SAPC  H15X 4973   2.906   4.003   4.405 -0.2688  1.6778 -1.2389
   62SAPC  H15Y 4974   3.037   4.120   4.413  0.8131  0.2472  2.1607
   62SAPC  C316 4975   2.838   4.205   4.356 -0.3742 -0.6255 -0.2847
   62SAPC  H16X 4976   2.732   4.226   4.380 -0.0249  2.9805 -1.2565
   62SAPC  H16Y 4977   2.841   4.179   4.248  1.7641 -0.3382 -0.3399
   62SAPC  C317 4978   2.896   4.348   4.359  0.9306  0.0619 -0.1027
   62SAPC  H17X 4979   2.999   4.343   4.319  1.3666  1.2421  0.8225
   62SAPC  H17Y 4980   2.903   4.380   4.465 -2.3871 -1.0984  0.5981
   62SAPC  C318 4981   2.816   4.442   4.270  0.1048 -0.3892 -0.3970
   62SAPC  H18X 4982   2.712   4.451   4.310  0.3452  0.5532  0.0484
   62SAPC  H18Y 4983   2.830   4.408   4.165  0.6055 -0.5895 -0.2682
   62SAPC  H18Z 4984   2.866   4.541   4.269  0.5744 -0.6155  0.1340
   63SAPC     N 4985   2.075   5.980   6.798  0.4892  0.2318  0.3383
   63SAPC   C12 4986   1.967   6.082   6.788 -0.5956 -0.3385 -0.3029
   63SAPC  H12A 4987   2.003   6.170   6.839  1.0574 -1.2092  0.1034
   63SAPC  H12B 4988   1.871   6.050   6.824 -0.3770 -0.1007  0.5181
   63SAPC   C13 4989   2.210   6.026   6.751  0.1528  0.0090 -0.1659
   63SAPC  H13A 4990   2.289   5.953   6.762  0.9882  1.0093  0.7361
   63SAPC  H13B 4991   2.199   6.043   6.645 -0.2255 -1.2012 -0.3353
   63SAPC  H13C 4992   2.239   6.110   6.813  1.8393  1.4891 -2.7338
   63SAPC   C14 4993   2.100   5.932   6.936 -0.4025 -0.7779 -0.0368
   63SAPC  H14A 4994   2.122   6.016   7.000  0.9802 -1.2742  0.1613
   63SAPC  H14B 4995   2.011   5.876   6.960 -1.0177 -1.2161 -2.9784
   63SAPC  H14C 4996   2.180   5.860   6.931  0.4499  0.2170 -3.4059
   63SAPC   C15 4997   2.031   5.860   6.718 -0.2180 -1.1890 -0.3151
   63SAPC  H15A 4998   1.938   5.825   6.759 -1.9978  0.1092 -2.9753
   63SAPC  H15B 4999   2.011   5.894   6.617  2.1716  0.4422 -0.3269
   63SAPC  H15C 5000   2.092   5.771   6.720 -0.3504 -1.3049 -1.0173
   63SAPC   C11 5001   1.930   6.142   6.646  0.1582  0.6134 -0.0256
   63SAPC  H11A 5002   1.863   6.221   6.687  0.1461  0.7321 -0.2725
   63SAPC  H11B 5003   1.870   6.069   6.588 -1.3214  0.1294  1.9818
   63SAPC     P 5004   2.049   6.333   6.493 -0.2234  0.2413  0.0211
   63SAPC   O13 5005   2.020   6.437   6.596 -0.1431  0.3393 -0.1426
   63SAPC   O14 5006   2.184   6.333   6.429 -0.6932 -0.3984  0.0185
   63SAPC   O12 5007   2.032   6.190   6.557  0.8206  0.1651  0.9837
   63SAPC   O11 5008   1.934   6.335   6.387 -0.3896  0.7755 -0.1700
   63SAPC    C1 5009   1.892   6.210   6.323 -0.1644 -0.3269 -0.5136
   63SAPC    HA 5010   1.981   6.149   6.297  0.2128 -0.6743  1.3958
   63SAPC    HB 5011   1.831   6.148   6.393  1.1077 -2.0012 -0.8349
   63SAPC    C2 5012   1.797   6.242   6.202 -0.9744  0.1707 -0.3037
   63SAPC    HS 5013   1.694   6.217   6.235 -0.8180  3.0179  2.9717
   63SAPC   O21 5014   1.840   6.171   6.088 -0.0606 -0.3587 -0.0498
   63SAPC   C21 5015   1.829   6.042   6.089  0.1361 -0.7180 -0.2363
   63SAPC   O22 5016   1.778   5.977   6.181 -0.9106 -0.2355 -0.1156
   63SAPC   C22 5017   1.879   5.984   5.962 -0.0169 -0.3075  0.3871
   63SAPC   H2R 5018   1.842   6.052   5.882 -0.6817  0.7988  1.5998
   63SAPC   H2S 5019   1.989   5.971   5.970 -0.1102 -1.1256  0.3836
   63SAPC    C3 5020   1.788   6.395   6.158  0.2413 -0.0366  0.6578
   63SAPC    HX 5021   1.887   6.432   6.123 -0.0008 -0.0731 -0.0913
   63SAPC    HY 5022   1.752   6.445   6.250  0.1804  1.2000 -0.0184
   63SAPC   O31 5023   1.701   6.404   6.044 -0.1192 -0.0451 -0.6314
   63SAPC   C31 5024   1.566   6.397   6.068  0.6348 -0.0856  0.8632
   63SAPC   O32 5025   1.503   6.381   6.172 -0.0170  0.0235  0.1517
   63SAPC   C32 5026   1.499   6.404   5.925  0.1599 -0.3456 -0.1664
   63SAPC   H2X 5027   1.503   6.298   5.892 -1.9388 -0.9427  1.3082
   63SAPC   H2Y 5028   1.564   6.457   5.852 -0.1004  0.2842  0.0557
   63SAPC   C23 5029   1.824   5.845   5.947 -0.1219  0.5524 -0.0680
   63SAPC   H3R 5030   1.713   5.838   5.953 -0.3240  1.4317 -2.0327
   63SAPC   H3S 5031   1.853   5.777   6.030  0.9066  1.0060 -0.0388
   63SAPC   C24 5032   1.859   5.774   5.810  0.1259 -0.1724  0.4580
   63SAPC   H4R 5033   1.890   5.847   5.733  1.0563  0.5936  1.5238
   63SAPC   H4S 5034   1.767   5.726   5.773 -0.9051  2.4463 -0.5804
   63SAPC   C25 5035   1.965   5.667   5.838 -0.7607 -0.6808  0.2026
   63SAPC   H5R 5036   2.022   5.691   5.929  1.0165  1.7493 -1.4151
   63SAPC   C26 5037   2.008   5.564   5.761  1.1330  0.0332  0.1146
   63SAPC   H6R 5038   2.093   5.506   5.801  0.3581 -1.1770  0.0447
   63SAPC   C27 5039   1.936   5.527   5.630  0.2078 -0.1569 -0.1153
   63SAPC   H7R 5040   2.006   5.477   5.560  0.2438 -0.4930  0.1534
   63SAPC   H7S 5041   1.901   5.619   5.580  0.5477 -0.1827 -0.3977
   63SAPC   C28 5042   1.827   5.430   5.650 -0.6899  0.1016  0.6391
   63SAPC   H8R 5043   1.860   5.343   5.710 -1.0063 -0.1874  0.3985
   63SAPC   C29 5044   1.702   5.440   5.600  0.5175  0.2062 -0.4336
   63SAPC   H9R 5045   1.634   5.354   5.611  2.0996 -1.1455 -0.7037
   63SAPC  C210 5046   1.660   5.553   5.510  0.3463 -0.3549  0.5401
   63SAPC  H10R 5047   1.718   5.541   5.416 -0.5663  1.0976 -0.2427
   63SAPC  H10S 5048   1.695   5.649   5.553 -2.0466  1.0710 -0.5041
   63SAPC  C211 5049   1.518   5.570   5.465  0.1968  0.3092 -0.1608
   63SAPC  H11R 5050   1.471   5.476   5.432 -1.4801  1.1345 -0.1988
   63SAPC  C212 5051   1.445   5.681   5.471  0.1072 -0.0614 -0.7067
   63SAPC  H12R 5052   1.344   5.674   5.429 -0.6467 -1.4608  1.1765
   63SAPC  C213 5053   1.496   5.824   5.503  0.4556  0.4370 -0.0781
   63SAPC  H13R 5054   1.488   5.887   5.412 -0.4231 -0.0968 -0.3854
   63SAPC  H13S 5055   1.603   5.816   5.532  1.0415  0.1034 -2.1808
   63SAPC  C214 5056   1.407   5.889   5.607 -0.1076  0.6109  0.4289
   63SAPC  H14R 5057   1.304   5.854   5.591  0.2217 -0.2867  0.2379
   63SAPC  C215 5058   1.444   5.978   5.698 -0.9343 -0.6382 -0.3576
   63SAPC  H15R 5059   1.365   6.018   5.763 -0.1449 -1.7839  1.3777
   63SAPC  C216 5060   1.583   6.041   5.720 -0.4237  0.1287  0.0159
   63SAPC  H16R 5061   1.664   5.966   5.705 -0.6101  0.2181 -1.6108
   63SAPC  H16S 5062   1.585   6.057   5.830  1.5476  0.8628 -0.0763
   63SAPC  C217 5063   1.628   6.169   5.650 -0.3389 -0.1673  1.0886
   63SAPC  H17R 5064   1.722   6.198   5.702  0.0626 -1.7061  1.2564
   63SAPC  H17S 5065   1.550   6.247   5.667 -1.6298 -1.3129  0.5673
   63SAPC  C218 5066   1.662   6.155   5.502  0.3526  0.4791  0.4091
   63SAPC  H18R 5067   1.573   6.172   5.437  0.2737  0.7904  0.5965
   63SAPC  H18S 5068   1.709   6.056   5.482 -1.2136  0.1927 -2.3914
   63SAPC  C219 5069   1.763   6.265   5.467 -0.0392  0.3402 -0.1824
   63SAPC  H19R 5070   1.797   6.249   5.362  0.3092  1.2730 -0.2188
   63SAPC  H19S 5071   1.847   6.246   5.537 -1.9553 -2.9388  1.4785
   63SAPC  C220 5072   1.698   6.400   5.500  0.0273 -0.4125  0.6418
   63SAPC  H20R 5073   1.761   6.482   5.459 -0.6719  0.3695  1.0990
   63SAPC  H20S 5074   1.698   6.422   5.609 -0.6122 -1.0595  0.7785
   63SAPC  H20T 5075   1.597   6.411   5.454  0.1155  1.4807  0.8330
   63SAPC   C33 5076   1.347   6.444   5.924  0.1261 -0.6506  0.7370
   63SAPC   H3X 5077   1.349   6.554   5.909  1.9548 -0.4425  2.0648
   63SAPC   H3Y 5078   1.292   6.435   6.020  1.6834 -1.4726  1.5899
   63SAPC   C34 5079   1.253   6.369   5.828  0.2031  0.0345 -0.1447
   63SAPC   H4X 5080   1.151   6.403   5.854  1.0350  0.6756  2.6256
   63SAPC   H4Y 5081   1.254   6.262   5.857  1.2290  0.2820  0.7977
   63SAPC   C35 5082   1.279   6.387   5.672  0.0962  0.5103 -0.7990
   63SAPC   H5X 5083   1.376   6.342   5.643  1.5010  2.8787 -0.0834
   63SAPC   H5Y 5084   1.281   6.495   5.647  1.4973  0.4557 -1.0130
   63SAPC   C36 5085   1.161   6.320   5.590 -0.1015  0.0136 -0.0153
   63SAPC   H6X 5086   1.066   6.369   5.619  0.2067  1.0686 -0.6854
   63SAPC   H6Y 5087   1.161   6.214   5.622 -0.3493  0.3824  1.2817
   63SAPC   C37 5088   1.173   6.325   5.438 -0.0600  0.1720  0.2322
   63SAPC   H7X 5089   1.216   6.422   5.405  0.6421  0.4889  1.9483
   63SAPC   H7Y 5090   1.073   6.304   5.396 -0.2317 -2.3182  1.6539
   63SAPC   C38 5091   1.271   6.220   5.385 -0.4230  0.5605  0.3202
   63SAPC   H8X 5092   1.217   6.123   5.395  0.2610  0.1100 -0.2858
   63SAPC   H8Y 5093   1.357   6.227   5.454  0.5901  1.2254 -0.9652
   63SAPC   C39 5094   1.311   6.241   5.238  0.0698 -0.3745  0.0477
   63SAPC   H9X 5095   1.373   6.333   5.234 -1.9619  1.1918  1.8446
   63SAPC   H9Y 5096   1.218   6.258   5.180  0.0070  0.6246  0.4189
   63SAPC  C310 5097   1.370   6.111   5.190 -0.4317 -0.1765  0.0250
   63SAPC  H10X 5098   1.310   6.026   5.228 -0.2066 -0.1131  0.5359
   63SAPC  H10Y 5099   1.463   6.093   5.248  0.5672  2.4191 -0.6214
   63SAPC  C311 5100   1.382   6.096   5.035 -0.0191  0.2089 -0.6894
   63SAPC  H11X 5101   1.430   5.997   5.019  1.0062  0.2130  1.8861
   63SAPC  H11Y 5102   1.445   6.180   5.000  1.8169 -1.0048 -0.4418
   63SAPC  C312 5103   1.246   6.088   4.957  0.5405  1.1692 -0.1869
   63SAPC  H12X 5104   1.185   6.181   4.962 -0.2777  0.6437 -0.2567
   63SAPC  H12Y 5105   1.188   6.003   4.997  2.9276  0.9444  3.2251
   63SAPC  C313 5106   1.261   6.048   4.807  0.1216  0.6663 -1.1534
   63SAPC  H13X 5107   1.336   6.110   4.754  0.5946  0.9044 -0.2384
   63SAPC  H13Y 5108   1.161   6.064   4.761  0.5483  1.9138 -1.6696
   63SAPC  C314 5109   1.321   5.908   4.778 -0.1407  0.4201  0.1904
   63SAPC  H14X 5110   1.249   5.829   4.811 -0.0157 -0.3813 -1.3420
   63SAPC  H14Y 5111   1.416   5.897   4.835 -0.1446 -0.7334 -0.0011
   63SAPC  C315 5112   1.340   5.879   4.631  0.2339 -0.6869  0.0924
   63SAPC  H15X 5113   1.415   5.953   4.595  1.4727 -1.6505  0.6048
   63SAPC  H15Y 5114   1.248   5.898   4.572  0.9055  0.1149 -0.7256
   63SAPC  C316 5115   1.394   5.740   4.600  0.1311 -0.4037 -0.0292
   63SAPC  H16X 5116   1.330   5.665   4.650  0.8812 -0.8800  0.2249
   63SAPC  H16Y 5117   1.492   5.732   4.652 -0.8103 -1.2839  1.6698
   63SAPC  C317 5118   1.418   5.729   4.453  0.3085 -0.0192  0.1878
   63SAPC  H17X 5119   1.495   5.803   4.421 -0.2808 -0.1414 -1.6350
   63SAPC  H17Y 5120   1.328   5.741   4.390 -0.4998  1.1490  1.5357
   63SAPC  C318 5121   1.479   5.593   4.432 -0.3850  0.4133 -0.4256
   63SAPC  H18X 5122   1.523   5.585   4.331  1.2750 -0.2258  0.3081
   63SAPC  H18Y 5123   1.408   5.510   4.453  0.4914  0.1155  1.6104
   63SAPC  H18Z 5124   1.575   5.574   4.486  0.5272 -0.3138 -2.2234
   64SAPC     N 5125   4.470   2.197   6.900 -0.3839 -0.6876 -0.0477
   64SAPC   C12 5126   4.604   2.138   6.859  0.3779  0.2650  0.4845
   64SAPC  H12A 5127   4.601   2.031   6.863 -0.2698  0.3165  1.8924
   64SAPC  H12B 5128   4.680   2.174   6.927  0.8039 -1.6876  1.1004
   64SAPC   C13 5129   4.356   2.134   6.826 -0.1811  0.5209 -0.4731
   64SAPC  H13A 5130   4.388   2.113   6.725  2.8034 -1.2879  0.7070
   64SAPC  H13B 5131   4.333   2.036   6.867 -0.7497  1.0016  0.3806
   64SAPC  H13C 5132   4.269   2.197   6.830 -0.3427  0.2476  1.9952
   64SAPC   C14 5133   4.447   2.152   7.043  0.9191 -0.0447  0.7270
   64SAPC  H14A 5134   4.345   2.169   7.075  1.8439  2.1201  2.8030
   64SAPC  H14B 5135   4.462   2.047   7.060 -2.0258 -0.7280 -0.2489
   64SAPC  H14C 5136   4.506   2.211   7.111 -1.1166  2.1269  0.7591
   64SAPC   C15 5137   4.473   2.345   6.897 -0.5873 -0.2678  0.5829
   64SAPC  H15A 5138   4.380   2.372   6.944  0.2026  1.2747  1.3290
   64SAPC  H15B 5139   4.555   2.383   6.957 -0.7029  0.6900  0.1381
   64SAPC  H15C 5140   4.469   2.384   6.797 -1.8453  0.5932  0.9568
   64SAPC   C11 5141   4.659   2.151   6.708 -0.4793 -0.5129 -0.0243
   64SAPC  H11A 5142   4.765   2.122   6.718 -0.6829 -1.1058  0.4725
   64SAPC  H11B 5143   4.660   2.257   6.674  0.5326 -0.7345 -0.7116
   64SAPC     P 5144   4.607   1.906   6.622  0.2995 -0.2334 -0.1552
   64SAPC   O13 5145   4.702   1.864   6.720  0.6994  0.2739  0.1336
   64SAPC   O14 5146   4.487   1.831   6.620 -0.5647  0.4759 -0.8719
   64SAPC   O12 5147   4.580   2.065   6.633 -0.1324 -0.0317  0.0953
   64SAPC   O11 5148   4.682   1.892   6.486 -0.5245 -0.1219 -0.3004
   64SAPC    C1 5149   4.715   1.996   6.385  0.2437  0.0479 -0.1917
   64SAPC    HA 5150   4.640   2.077   6.398 -0.8618 -0.6398 -1.9971
   64SAPC    HB 5151   4.806   2.053   6.413 -0.7698  0.3941  2.7655
   64SAPC    C2 5152   4.718   1.948   6.244  0.0290 -0.2513  0.1524
   64SAPC    HS 5153   4.754   1.844   6.239  1.8657  0.3836 -1.0223
   64SAPC   O21 5154   4.798   2.034   6.157  0.4247  0.1799  0.1060
   64SAPC   C21 5155   4.926   2.003   6.156  0.1208 -0.4588 -0.5862
   64SAPC   O22 5156   4.984   1.924   6.228 -0.2189  0.0690  0.3931
   64SAPC   C22 5157   4.992   2.090   6.048  0.4781 -0.4763  0.2407
   64SAPC   H2R 5158   4.916   2.122   5.973 -1.2012 -2.2589  1.1160
   64SAPC   H2S 5159   5.034   2.176   6.105 -1.9641  1.7096 -1.0129
   64SAPC    C3 5160   4.573   1.938   6.174  1.1803  0.6876  0.4002
   64SAPC    HX 5161   4.540   2.042   6.159 -1.4663 -0.2254 -0.7175
   64SAPC    HY 5162   4.509   1.881   6.245 -0.2067  0.1055 -1.2478
   64SAPC   O31 5163   4.590   1.870   6.043 -0.1458 -0.1711 -0.1284
   64SAPC   C31 5164   4.552   1.942   5.938 -0.4634  0.4595  0.2621
   64SAPC   O32 5165   4.515   2.056   5.942 -0.7239 -0.4115 -0.5219
   64SAPC   C32 5166   4.563   1.849   5.816 -0.0989  0.4961  0.1662
   64SAPC   H2X 5167   4.463   1.800   5.818 -1.4503  3.0595  2.7321
   64SAPC   H2Y 5168   4.653   1.786   5.831  0.6743  1.2887 -0.9777
   64SAPC   C23 5169   5.101   2.012   5.975  0.4487 -0.8034 -0.5784
   64SAPC   H3R 5170   5.173   1.969   6.048  1.3826  0.9047 -0.4333
   64SAPC   H3S 5171   5.164   2.082   5.915 -0.9332  3.1624  2.1911
   64SAPC   C24 5172   5.048   1.898   5.884 -0.4252  0.3929 -0.2357
   64SAPC   H4R 5173   5.007   1.943   5.791  1.5599  0.6028 -1.0666
   64SAPC   H4S 5174   4.968   1.850   5.944 -0.9933  0.5467 -0.8590
   64SAPC   C25 5175   5.159   1.809   5.838  0.0032 -0.0366  0.1085
   64SAPC   H5R 5176   5.173   1.713   5.889  2.3002  0.2477  0.1192
   64SAPC   C26 5177   5.240   1.823   5.733 -0.1434 -0.1322 -0.1781
   64SAPC   H6R 5178   5.314   1.743   5.723 -2.2059 -2.1898  0.2575
   64SAPC   C27 5179   5.249   1.949   5.648  0.3458 -0.3913 -0.8715
   64SAPC   H7R 5180   5.177   2.021   5.692  0.9516 -1.3556  1.9261
   64SAPC   H7S 5181   5.226   1.932   5.541 -0.2845  0.2364 -0.8391
   64SAPC   C28 5182   5.386   1.999   5.655  0.0036  0.5159  0.1688
   64SAPC   H8R 5183   5.429   2.011   5.756 -0.7047  1.5621  0.3612
   64SAPC   C29 5184   5.466   2.049   5.558 -0.8025  0.1299 -0.7102
   64SAPC   H9R 5185   5.567   2.074   5.596 -1.1988 -1.8745  1.9756
   64SAPC  C210 5186   5.459   2.064   5.407 -0.3535 -0.1432  0.8285
   64SAPC  H10R 5187   5.376   2.000   5.369  1.1782 -2.5930  1.4061
   64SAPC  H10S 5188   5.549   2.018   5.361 -1.0058  1.1679 -1.9814
   64SAPC  C211 5189   5.441   2.213   5.370 -0.2910  0.2187  0.3789
   64SAPC  H11R 5190   5.385   2.274   5.443 -0.4620  1.2543 -0.5912
   64SAPC  C212 5191   5.460   2.270   5.252 -0.9322 -0.4859  0.4873
   64SAPC  H12R 5192   5.441   2.378   5.246 -1.8445 -0.5577  1.6088
   64SAPC  C213 5193   5.526   2.203   5.126  0.2350 -0.7045  0.1986
   64SAPC  H13R 5194   5.499   2.270   5.042 -1.0882  0.1008  1.2242
   64SAPC  H13S 5195   5.463   2.112   5.114  0.4497 -0.9474  0.8519
   64SAPC  C214 5196   5.671   2.177   5.130  0.2664  0.3587 -0.2098
   64SAPC  H14R 5197   5.704   2.187   5.235 -0.2539  1.6545 -0.1527
   64SAPC  C215 5198   5.749   2.175   5.023  0.0958  0.3056 -0.0854
   64SAPC  H15R 5199   5.858   2.166   5.035  0.2820  2.9514  1.0144
   64SAPC  C216 5200   5.704   2.172   4.881 -0.3241 -0.0449  0.1092
   64SAPC  H16R 5201   5.768   2.229   4.810  0.0245 -2.5578 -1.7266
   64SAPC  H16S 5202   5.610   2.230   4.871 -1.0072 -1.3912 -1.9457
   64SAPC  C217 5203   5.668   2.034   4.812  0.3712  0.3837 -0.6825
   64SAPC  H17R 5204   5.597   1.983   4.880  0.7432 -3.3676 -2.7837
   64SAPC  H17S 5205   5.752   1.964   4.794  0.9764  0.9943 -0.2833
   64SAPC  C218 5206   5.597   2.061   4.678 -0.0754 -0.0687 -0.4044
   64SAPC  H18R 5207   5.657   2.127   4.612 -1.1898  0.8141 -0.5660
   64SAPC  H18S 5208   5.508   2.124   4.696  2.2303  3.3195  0.1335
   64SAPC  C219 5209   5.573   1.938   4.594 -0.3174 -0.0476  0.3622
   64SAPC  H19R 5210   5.495   1.880   4.648 -0.8411  0.6628  0.3704
   64SAPC  H19S 5211   5.664   1.873   4.593 -1.2311 -1.5528  3.2590
   64SAPC  C220 5212   5.521   1.952   4.453 -0.4453 -0.8368  0.1377
   64SAPC  H20R 5213   5.493   1.853   4.410  0.0381 -2.0312  2.4055
   64SAPC  H20S 5214   5.602   1.988   4.387  0.2455 -0.4270  1.1894
   64SAPC  H20T 5215   5.436   2.024   4.453  0.1310 -0.1562  0.1795
   64SAPC   C33 5216   4.584   1.942   5.689  0.2632  0.3383 -0.3617
   64SAPC   H3X 5217   4.666   2.014   5.710  2.4598 -2.3513  1.0173
   64SAPC   H3Y 5218   4.487   1.995   5.689 -1.2814 -2.2782 -1.3830
   64SAPC   C34 5219   4.600   1.864   5.564  0.1789 -0.3520  0.5405
   64SAPC   H4X 5220   4.519   1.790   5.548  0.1778 -0.2245 -0.0525
   64SAPC   H4Y 5221   4.701   1.818   5.562  0.9675  1.3216  0.1571
   64SAPC   C35 5222   4.597   1.967   5.447 -0.3193  0.8566  0.0148
   64SAPC   H5X 5223   4.672   2.047   5.463 -0.1396  0.7177 -0.1221
   64SAPC   H5Y 5224   4.503   2.024   5.446 -0.0839  1.2435 -0.2017
   64SAPC   C36 5225   4.603   1.893   5.312  0.0083 -1.0885  0.1651
   64SAPC   H6X 5226   4.518   1.821   5.316 -0.3503 -0.6887 -0.2238
   64SAPC   H6Y 5227   4.703   1.844   5.305  1.9985  2.6586 -0.4018
   64SAPC   C37 5228   4.578   1.984   5.194  0.1234  0.0733 -0.0302
   64SAPC   H7X 5229   4.650   2.068   5.186 -1.1995  1.1631 -0.8198
   64SAPC   H7Y 5230   4.474   2.021   5.204  0.0377 -0.1433 -0.1041
   64SAPC   C38 5231   4.597   1.908   5.059  0.0491 -0.4875  0.1957
   64SAPC   H8X 5232   4.524   1.824   5.062  0.0297 -0.5304 -0.9857
   64SAPC   H8Y 5233   4.692   1.859   5.030 -0.1624 -1.1092  0.5327
   64SAPC   C39 5234   4.552   1.996   4.945 -0.4887 -0.3239  1.2216
   64SAPC   H9X 5235   4.467   2.065   4.967  0.6001  1.2127  0.8083
   64SAPC   H9Y 5236   4.500   1.936   4.867  0.6053 -1.7024  1.5108
   64SAPC  C310 5237   4.656   2.092   4.887  0.6012  0.5160 -0.2301
   64SAPC  H10X 5238   4.714   2.142   4.969 -2.6744  0.2718  2.4727
   64SAPC  H10Y 5239   4.594   2.168   4.836 -2.4859 -1.5944  0.1321
   64SAPC  C311 5240   4.748   2.029   4.788  0.2400 -0.7971  0.4538
   64SAPC  H11X 5241   4.699   1.972   4.706  0.4928  1.2436 -1.1979
   64SAPC  H11Y 5242   4.799   1.959   4.857 -1.3339  0.1799  2.7201
   64SAPC  C312 5243   4.843   2.128   4.721 -0.1122 -0.8719 -0.3951
   64SAPC  H12X 5244   4.853   2.216   4.788 -3.0093  1.3278 -2.5840
   64SAPC  H12Y 5245   4.794   2.179   4.636 -0.4604 -0.8165 -0.1628
   64SAPC  C313 5246   4.975   2.063   4.696 -0.3966  0.1051 -0.0505
   64SAPC  H13X 5247   4.965   1.964   4.647  3.6480 -0.1827 -0.6547
   64SAPC  H13Y 5248   5.033   2.043   4.788  0.3703 -0.8964 -0.7256
   64SAPC  C314 5249   5.061   2.137   4.588 -0.1771 -1.0248 -0.4409
   64SAPC  H14X 5250   5.171   2.122   4.598  0.7418  0.9587 -4.8690
   64SAPC  H14Y 5251   5.056   2.247   4.599 -1.7387 -1.2145  1.0532
   64SAPC  C315 5252   5.036   2.107   4.439 -0.0268 -0.5595  0.1150
   64SAPC  H15X 5253   4.935   2.065   4.423 -0.4876  0.3602  0.5384
   64SAPC  H15Y 5254   5.109   2.028   4.412  2.5458  2.1199 -1.4013
   64SAPC  C316 5255   5.064   2.221   4.343 -0.1105  0.3271 -0.1604
   64SAPC  H16X 5256   5.135   2.300   4.377  2.5345 -1.2617 -1.6976
   64SAPC  H16Y 5257   4.970   2.277   4.321 -0.8066 -0.9628 -0.5546
   64SAPC  C317 5258   5.122   2.167   4.213  0.3363 -0.6548 -0.4306
   64SAPC  H17X 5259   5.057   2.087   4.171 -0.1180 -0.9331  0.7633
   64SAPC  H17Y 5260   5.222   2.123   4.233  0.1625 -1.1828 -0.6994
   64SAPC  C318 5261   5.155   2.274   4.111 -0.4340 -0.5268 -0.0140
   64SAPC  H18X 5262   5.173   2.223   4.014 -2.3569 -1.3930  0.0380
   64SAPC  H18Y 5263   5.245   2.331   4.143 -1.8350  0.7723  1.8166
   64SAPC  H18Z 5264   5.081   2.355   4.090  1.5951  1.1268 -1.1480
   65SAPC     N 5265   1.262   3.756   1.784 -0.8201 -0.6213 -0.6933
   65SAPC   C12 5266   1.252   3.630   1.707  0.4680 -0.3333  0.0447
   65SAPC  H12A 5267   1.237   3.642   1.601  1.3042 -0.3831 -0.0860
   65SAPC  H12B 5268   1.159   3.582   1.734  1.6151 -1.9138  1.3611
   65SAPC   C13 5269   1.391   3.822   1.750 -0.0841  0.2484 -0.3264
   65SAPC  H13A 5270   1.385   3.854   1.647 -0.5630 -2.3552 -1.1792
   65SAPC  H13B 5271   1.410   3.914   1.803  1.1247  0.2788 -0.7871
   65SAPC  H13C 5272   1.468   3.747   1.754 -1.1054 -0.8612 -0.9754
   65SAPC   C14 5273   1.145   3.844   1.738  0.6433  0.5815 -0.6406
   65SAPC  H14A 5274   1.144   3.940   1.789 -0.4140 -0.2387  0.9388
   65SAPC  H14B 5275   1.159   3.858   1.631  2.2606 -0.8848 -0.6727
   65SAPC  H14C 5276   1.058   3.788   1.766  0.7085  0.8942  0.2161
   65SAPC   C15 5277   1.243   3.737   1.930  0.6085  0.5694  0.2678
   65SAPC  H15A 5278   1.245   3.829   1.985  1.7252 -0.1246  1.4574
   65SAPC  H15B 5279   1.146   3.693   1.947  1.6928 -2.2104 -0.1005
   65SAPC  H15C 5280   1.320   3.672   1.970 -1.1513 -0.8002  1.6143
   65SAPC   C11 5281   1.368   3.521   1.709 -0.0216 -0.2299  1.0586
   65SAPC  H11A 5282   1.459   3.542   1.649 -0.5965 -0.8131 -0.0570
   65SAPC  H11B 5283   1.320   3.443   1.646  0.5811  1.2857 -1.4356
   65SAPC     P 5284   1.340   3.355   1.905 -0.0143 -0.1315 -0.2136
   65SAPC   O13 5285   1.194   3.360   1.907 -0.0253 -0.5701 -0.4221
   65SAPC   O14 5286   1.397   3.234   1.834  0.3594  0.1152  0.3237
   65SAPC   O12 5287   1.404   3.488   1.843 -0.2015  0.0524 -0.1863
   65SAPC   O11 5288   1.396   3.369   2.054 -0.2317  0.1797  0.0618
   65SAPC    C1 5289   1.366   3.481   2.135  0.6758 -0.2478 -0.3380
   65SAPC    HA 5290   1.415   3.573   2.098  0.0715 -0.1676 -0.9686
   65SAPC    HB 5291   1.257   3.504   2.144  0.9928  2.8744 -2.8063
   65SAPC    C2 5292   1.405   3.454   2.282  0.1480 -0.3668 -0.4536
   65SAPC    HS 5293   1.385   3.551   2.334  0.9767 -1.3994  1.9255
   65SAPC   O21 5294   1.545   3.420   2.289  0.0066 -0.3291  0.3865
   65SAPC   C21 5295   1.623   3.522   2.265 -0.7098  0.2186 -0.3078
   65SAPC   O22 5296   1.587   3.633   2.230 -0.3061 -0.1918  0.3052
   65SAPC   C22 5297   1.772   3.486   2.282 -0.3325  0.1820  0.0624
   65SAPC   H2R 5298   1.776   3.427   2.376 -0.0394 -1.4430 -0.9295
   65SAPC   H2S 5299   1.805   3.425   2.195  2.1049  2.1151 -0.4913
   65SAPC    C3 5300   1.328   3.332   2.346  0.8865 -0.2536 -0.1970
   65SAPC    HX 5301   1.364   3.240   2.294 -1.3255 -0.2958 -1.8232
   65SAPC    HY 5302   1.225   3.337   2.305 -0.6320 -1.2781  3.0962
   65SAPC   O31 5303   1.327   3.314   2.488  0.8073 -0.1709  0.6415
   65SAPC   C31 5304   1.239   3.381   2.556 -0.5989 -0.6722 -0.3998
   65SAPC   O32 5305   1.159   3.460   2.516 -0.2158 -0.1357 -0.4897
   65SAPC   C32 5306   1.247   3.336   2.700  0.5107  0.0032 -0.0668
   65SAPC   H2X 5307   1.347   3.346   2.748  0.0894  1.6028  0.5312
   65SAPC   H2Y 5308   1.218   3.229   2.709 -0.5730  0.3833  1.2307
   65SAPC   C23 5309   1.862   3.613   2.289 -0.2606  0.1277 -1.1434
   65SAPC   H3R 5310   1.842   3.680   2.203  0.3504  0.8932 -0.7104
   65SAPC   H3S 5311   1.965   3.572   2.286 -0.5188 -0.6873  0.1792
   65SAPC   C24 5312   1.846   3.690   2.429 -0.2639 -0.3774  0.4832
   65SAPC   H4R 5313   1.739   3.716   2.443  0.0736  0.0238  2.6081
   65SAPC   H4S 5314   1.890   3.792   2.430  0.9996 -0.8995  0.6977
   65SAPC   C25 5315   1.891   3.606   2.545  0.1715 -0.2615 -0.3174
   65SAPC   H5R 5316   1.999   3.586   2.536  0.5028  1.7317 -1.4294
   65SAPC   C26 5317   1.825   3.569   2.655 -0.6078 -0.1878  0.0599
   65SAPC   H6R 5318   1.862   3.492   2.725 -2.2518 -0.3818  0.7850
   65SAPC   C27 5319   1.677   3.600   2.684  0.3043 -0.0425 -0.4737
   65SAPC   H7R 5320   1.631   3.630   2.588  1.5946  2.3622 -0.4211
   65SAPC   H7S 5321   1.687   3.687   2.753  3.5586  0.5372 -1.4941
   65SAPC   C28 5322   1.606   3.475   2.734  0.0767 -0.3757  0.2042
   65SAPC   H8R 5323   1.549   3.425   2.655  0.4839  0.9987 -1.0071
   65SAPC   C29 5324   1.610   3.432   2.859  0.0447 -0.1047 -0.3540
   65SAPC   H9R 5325   1.569   3.337   2.895  1.6230 -0.5679  0.3047
   65SAPC  C210 5326   1.675   3.508   2.972 -0.2981  0.0542 -0.5144
   65SAPC  H10R 5327   1.687   3.615   2.943 -0.6457 -0.0940 -1.2448
   65SAPC  H10S 5328   1.777   3.466   2.977  0.8036  1.4972 -5.4142
   65SAPC  C211 5329   1.609   3.492   3.108  0.6310  0.0256  0.1898
   65SAPC  H11R 5330   1.613   3.390   3.151  1.3851  1.1782  3.0797
   65SAPC  C212 5331   1.572   3.594   3.193 -0.3018 -0.2448  0.2028
   65SAPC  H12R 5332   1.530   3.569   3.291 -0.5639 -2.1233 -0.3525
   65SAPC  C213 5333   1.582   3.740   3.170 -0.0787 -0.5956  0.1013
   65SAPC  H13R 5334   1.657   3.763   3.092  1.3266  0.0830  1.6011
   65SAPC  H13S 5335   1.616   3.789   3.263  2.3978 -0.8886 -0.6006
   65SAPC  C214 5336   1.443   3.787   3.127 -0.3663  0.0555 -0.5559
   65SAPC  H14R 5337   1.349   3.749   3.169 -0.1702  1.0100  0.8553
   65SAPC  C215 5338   1.433   3.904   3.060  0.2898 -0.0121 -0.6351
   65SAPC  H15R 5339   1.329   3.932   3.037  0.4951 -0.6170 -2.5011
   65SAPC  C216 5340   1.547   3.961   2.977 -0.4772 -0.4752  0.0299
   65SAPC  H16R 5341   1.618   3.888   2.933 -0.5864 -0.1666 -0.6872
   65SAPC  H16S 5342   1.607   4.030   3.039  1.4446 -1.3706 -0.7632
   65SAPC  C217 5343   1.499   4.052   2.861  0.3332 -0.4075 -0.0846
   65SAPC  H17R 5344   1.591   4.070   2.802  0.3556  0.1842  0.1201
   65SAPC  H17S 5345   1.457   4.151   2.892  4.4924  1.6380 -0.2439
   65SAPC  C218 5346   1.404   3.990   2.758 -0.2482  0.0515 -0.0579
   65SAPC  H18R 5347   1.356   4.068   2.695 -0.4928  0.3838  0.5383
   65SAPC  H18S 5348   1.317   3.936   2.801  0.2218  0.0967  0.9798
   65SAPC  C219 5349   1.479   3.887   2.670 -0.0075  0.2839  0.6555
   65SAPC  H19R 5350   1.514   3.802   2.732  2.2775  2.1189  2.0475
   65SAPC  H19S 5351   1.570   3.935   2.627 -1.0774  1.7121 -0.1095
   65SAPC  C220 5352   1.394   3.838   2.547 -0.2652  0.3901 -0.2877
   65SAPC  H20R 5353   1.302   3.789   2.587 -1.0511 -0.6248 -3.1419
   65SAPC  H20S 5354   1.451   3.762   2.490 -1.3513  1.3443 -2.7758
   65SAPC  H20T 5355   1.369   3.923   2.481  1.9948  0.4014 -1.2060
   65SAPC   C33 5356   1.146   3.407   2.790 -0.2232 -0.1098  0.1293
   65SAPC   H3X 5357   1.046   3.363   2.767  0.6450 -2.3585  0.3578
   65SAPC   H3Y 5358   1.140   3.516   2.773  0.3311 -0.1905 -0.6112
   65SAPC   C34 5359   1.190   3.391   2.929  0.1221 -0.1619  0.1492
   65SAPC   H4X 5360   1.286   3.442   2.951  0.3561 -0.0139 -1.1712
   65SAPC   H4Y 5361   1.190   3.283   2.954 -1.3770  0.1721  1.8182
   65SAPC   C35 5362   1.079   3.456   3.022  0.5112 -0.5834  0.1861
   65SAPC   H5X 5363   0.982   3.425   2.978  1.0634  1.2858 -2.6356
   65SAPC   H5Y 5364   1.079   3.566   3.003  1.1635 -0.6119  0.0010
   65SAPC   C36 5365   1.077   3.428   3.175  0.4818  0.4713 -0.5010
   65SAPC   H6X 5366   1.183   3.433   3.207  1.0326 -1.3942 -1.8879
   65SAPC   H6Y 5367   1.038   3.325   3.191  0.4366  0.4359 -0.8467
   65SAPC   C37 5368   0.995   3.527   3.251  0.1338 -1.4531 -0.3381
   65SAPC   H7X 5369   0.905   3.556   3.192 -2.1383 -2.5353  2.4071
   65SAPC   H7Y 5370   1.044   3.624   3.274 -1.5279 -0.9376  1.2486
   65SAPC   C38 5371   0.937   3.467   3.381  0.1531  0.3335 -0.1909
   65SAPC   H8X 5372   1.023   3.429   3.441 -0.8973 -0.4071  0.8868
   65SAPC   H8Y 5373   0.885   3.373   3.354 -0.0299  0.9131 -1.9882
   65SAPC   C39 5374   0.843   3.565   3.458 -0.0274 -0.2440 -0.5684
   65SAPC   H9X 5375   0.756   3.576   3.389  1.0934 -0.3748 -2.0627
   65SAPC   H9Y 5376   0.897   3.661   3.459 -1.1587  0.4071 -0.1262
   65SAPC  C310 5377   0.810   3.516   3.598 -0.8589  0.3537  1.0415
   65SAPC  H10X 5378   0.783   3.408   3.602  0.7565 -0.0704  1.1806
   65SAPC  H10Y 5379   0.728   3.583   3.630  0.0908  2.7578 -1.1157
   65SAPC  C311 5380   0.924   3.526   3.703  0.5209 -0.4851 -0.0440
   65SAPC  H11X 5381   0.951   3.633   3.715 -2.5897  0.1055  3.6564
   65SAPC  H11Y 5382   1.017   3.472   3.676 -0.2683 -1.5292 -0.7496
   65SAPC  C312 5383   0.872   3.457   3.826  0.5367  0.1841 -0.0017
   65SAPC  H12X 5384   0.953   3.437   3.899  1.6136  2.7937 -0.3852
   65SAPC  H12Y 5385   0.810   3.369   3.797  1.5517 -0.3415 -0.6240
   65SAPC  C313 5386   0.775   3.548   3.903  0.2519 -0.0260 -0.0680
   65SAPC  H13X 5387   0.688   3.575   3.839 -0.3391 -1.6946 -0.0326
   65SAPC  H13Y 5388   0.813   3.649   3.928 -0.4846  0.1002  0.6139
   65SAPC  C314 5389   0.720   3.487   4.031  0.3107  0.0683 -0.0766
   65SAPC  H14X 5390   0.800   3.453   4.100  0.1266  0.4910  0.3547
   65SAPC  H14Y 5391   0.667   3.391   4.010 -1.5262  0.5276  1.9705
   65SAPC  C315 5392   0.617   3.579   4.096  0.5046 -0.0774 -0.2366
   65SAPC  H15X 5393   0.546   3.609   4.015  0.0659  0.0856  0.2007
   65SAPC  H15Y 5394   0.667   3.675   4.123 -0.2290 -0.0511  1.1016
   65SAPC  C316 5395   0.533   3.533   4.212  0.0491  0.9493 -0.6166
   65SAPC  H16X 5396   0.598   3.473   4.279 -3.0928 -1.3246  0.6165
   65SAPC  H16Y 5397   0.466   3.447   4.191  0.8988 -0.3403  1.6071
   65SAPC  C317 5398   0.484   3.649   4.299  0.0597 -0.4427  0.0713
   65SAPC  H17X 5399   0.433   3.715   4.226 -1.0554 -0.8214  0.4854
   65SAPC  H17Y 5400   0.570   3.696   4.351 -0.6089  1.4129 -0.4271
   65SAPC  C318 5401   0.381   3.613   4.406 -0.1419 -0.4296  0.3541
   65SAPC  H18X 5402   0.424   3.530   4.465  1.3499  1.3225  1.8458
   65SAPC  H18Y 5403   0.283   3.589   4.358 -0.0920  2.0430 -1.1671
   65SAPC  H18Z 5404   0.371   3.700   4.473  2.3860 -0.4340  0.8064
   66SAPC     N 5405   6.116   3.734   1.935 -0.1361  0.6852  0.2950
   66SAPC   C12 5406   6.161   3.878   1.893  0.4010  0.3141  0.3134
   66SAPC  H12A 5407   6.102   3.955   1.941 -0.5744  0.6081 -1.2805
   66SAPC  H12B 5408   6.150   3.895   1.787  1.3326 -3.2188 -0.4924
   66SAPC   C13 5409   6.185   3.639   1.845 -0.1727 -0.2179  0.1186
   66SAPC  H13A 5410   6.291   3.656   1.845 -0.2478  0.3704 -1.2892
   66SAPC  H13B 5411   6.174   3.537   1.879  3.3709 -0.6412  0.2986
   66SAPC  H13C 5412   6.156   3.638   1.741 -0.4409 -4.0660  0.0925
   66SAPC   C14 5413   6.146   3.713   2.075  0.2220  0.0224 -1.0018
   66SAPC  H14A 5414   6.065   3.757   2.130  0.8502  0.2358 -0.2203
   66SAPC  H14B 5415   6.134   3.607   2.096 -3.3560  0.6895  1.1461
   66SAPC  H14C 5416   6.250   3.739   2.093  0.6684 -2.7074  1.2629
   66SAPC   C15 5417   5.971   3.703   1.922  0.5377  0.2981  0.0850
   66SAPC  H15A 5418   5.925   3.745   1.834  0.0435  0.1740  0.2820
   66SAPC  H15B 5419   5.952   3.598   1.903  0.6967 -0.2822  2.7897
   66SAPC  H15C 5420   5.910   3.720   2.009  0.2989  0.2694 -0.0758
   66SAPC   C11 5421   6.306   3.925   1.921 -0.0008 -0.0567 -0.1223
   66SAPC  H11A 5422   6.329   4.017   1.864  1.1987  0.0241  0.4733
   66SAPC  H11B 5423   6.366   3.847   1.870 -1.9926 -0.9650 -1.2198
   66SAPC     P 5424   6.286   4.057   2.147 -0.1494 -0.0129 -0.2748
   66SAPC   O13 5425   6.373   4.175   2.117 -0.0478  0.1014 -0.3506
   66SAPC   O14 5426   6.140   4.079   2.134  0.0395 -0.1139 -0.1665
   66SAPC   O12 5427   6.340   3.926   2.061  0.3318  0.6756  0.3045
   66SAPC   O11 5428   6.313   4.002   2.298  0.3085 -0.1826 -0.1653
   66SAPC    C1 5429   6.334   3.870   2.339  0.7520  1.0067 -0.3516
   66SAPC    HA 5430   6.280   3.801   2.270  2.1581  0.7166 -1.1904
   66SAPC    HB 5431   6.441   3.841   2.338  0.6370  0.5691 -1.5808
   66SAPC    C2 5432   6.271   3.840   2.478 -0.7692  0.4588 -0.1864
   66SAPC    HS 5433   6.164   3.867   2.466 -1.0963 -0.3143  0.8874
   66SAPC   O21 5434   6.345   3.918   2.573 -0.5221  0.0001 -0.8733
   66SAPC   C21 5435   6.277   3.946   2.684 -0.7036  0.3725  0.9174
   66SAPC   O22 5436   6.159   3.919   2.695  0.2585 -0.4026  0.3156
   66SAPC   C22 5437   6.366   4.037   2.772 -0.6594  0.2024 -0.5414
   66SAPC   H2R 5438   6.453   4.075   2.714 -2.3300  2.1971 -1.8680
   66SAPC   H2S 5439   6.304   4.127   2.792  2.3178  2.4113 -0.5016
   66SAPC    C3 5440   6.266   3.689   2.520  0.1231 -0.2887  0.3522
   66SAPC    HX 5441   6.193   3.647   2.447 -0.8903  0.2678  1.0106
   66SAPC    HY 5442   6.215   3.688   2.619 -2.7551 -0.2067 -1.0279
   66SAPC   O31 5443   6.403   3.632   2.517  0.6681 -0.1622 -0.3178
   66SAPC   C31 5444   6.425   3.535   2.608  0.8626  0.9628 -0.2112
   66SAPC   O32 5445   6.339   3.483   2.671 -0.0307  0.0739  0.4388
   66SAPC   C32 5446   6.566   3.495   2.620 -0.2490 -0.4359  0.0445
   66SAPC   H2X 5447   6.616   3.588   2.655 -0.1793 -0.5286  0.1944
   66SAPC   H2Y 5448   6.614   3.470   2.522  2.1207 -1.4701  1.3591
   66SAPC   C23 5449   6.404   3.965   2.904  0.7096  0.6636  0.0461
   66SAPC   H3R 5450   6.314   3.924   2.955  0.4012 -2.4199 -2.6612
   66SAPC   H3S 5451   6.442   4.037   2.980 -0.7258  0.0241  1.4342
   66SAPC   C24 5452   6.505   3.852   2.896 -0.0888 -0.2864 -0.4984
   66SAPC   H4R 5453   6.481   3.781   2.814  2.1548 -2.8090  0.8421
   66SAPC   H4S 5454   6.502   3.787   2.986 -0.4062  2.6895  1.8077
   66SAPC   C25 5455   6.637   3.919   2.871  1.2767  0.1835 -0.3813
   66SAPC   H5R 5456   6.655   3.928   2.763 -0.8222  2.8522 -0.6202
   66SAPC   C26 5457   6.727   3.972   2.952  0.2055  0.0101 -0.0907
   66SAPC   H6R 5458   6.817   4.016   2.907  0.7374 -2.0298 -1.1916
   66SAPC   C27 5459   6.696   3.985   3.103  0.7602 -0.1326  0.2527
   66SAPC   H7R 5460   6.613   3.916   3.129 -0.4575  0.7528 -1.1002
   66SAPC   H7S 5461   6.645   4.083   3.114 -1.6919 -0.8890 -2.6669
   66SAPC   C28 5462   6.810   3.982   3.203  0.0006  0.3110  0.3762
   66SAPC   H8R 5463   6.903   4.001   3.147 -1.2944  1.3753 -1.5280
   66SAPC   C29 5464   6.803   3.970   3.338  0.3015 -0.2933  0.5210
   66SAPC   H9R 5465   6.896   3.969   3.396  1.0116 -1.9098 -0.5593
   66SAPC  C210 5466   6.671   3.953   3.408  0.4262 -0.0857  0.1680
   66SAPC  H10R 5467   6.605   4.018   3.346  3.2400  1.5901 -1.2625
   66SAPC  H10S 5468   6.670   4.005   3.506  0.8649 -0.4868  0.3909
   66SAPC  C211 5469   6.617   3.816   3.435 -0.6388  0.1736 -0.6067
   66SAPC  H11R 5470   6.695   3.741   3.454 -0.4906  0.7114  1.0500
   66SAPC  C212 5471   6.485   3.789   3.427 -0.2248 -0.2196 -0.0878
   66SAPC  H12R 5472   6.448   3.686   3.436 -1.3566  0.1765 -0.0642
   66SAPC  C213 5473   6.369   3.886   3.402 -0.3132 -0.5611 -0.1540
   66SAPC  H13R 5474   6.407   3.988   3.378  0.8173 -0.8606  0.2970
   66SAPC  H13S 5475   6.325   3.905   3.502  0.0457  1.7956 -0.3725
   66SAPC  C214 5476   6.278   3.844   3.291 -0.5370  0.1121 -0.3577
   66SAPC  H14R 5477   6.327   3.822   3.195  1.8306  0.4526  0.7233
   66SAPC  C215 5478   6.149   3.816   3.306 -0.0659  0.0359  0.4453
   66SAPC  H15R 5479   6.090   3.811   3.213  1.0297 -1.4971 -0.2080
   66SAPC  C216 5480   6.071   3.832   3.435  0.4103  0.4267 -0.3451
   66SAPC  H16R 5481   6.128   3.900   3.503 -0.3820  1.7708 -0.9980
   66SAPC  H16S 5482   6.074   3.735   3.490 -0.0567 -0.8269 -2.3866
   66SAPC  C217 5483   5.920   3.862   3.410 -0.0288  0.2581 -0.1561
   66SAPC  H17R 5484   5.880   3.780   3.347 -1.7729  0.4336  0.6617
   66SAPC  H17S 5485   5.918   3.963   3.363  3.6606 -0.3737 -1.9991
   66SAPC  C218 5486   5.842   3.859   3.542  0.3465  0.4651  0.2733
   66SAPC  H18R 5487   5.903   3.901   3.625  1.6077  0.9652 -0.8730
   66SAPC  H18S 5488   5.837   3.752   3.571 -2.6388  0.8734  1.6355
   66SAPC  C219 5489   5.711   3.920   3.555 -0.3651  0.4084 -0.1088
   66SAPC  H19R 5490   5.674   3.889   3.655  0.5416  0.9786  0.4137
   66SAPC  H19S 5491   5.632   3.884   3.485 -0.1581 -0.4054  0.0579
   66SAPC  C220 5492   5.718   4.079   3.556  0.4975  0.3912  0.0008
   66SAPC  H20R 5493   5.620   4.131   3.552  1.5162  2.2853 -1.0865
   66SAPC  H20S 5494   5.766   4.120   3.465  1.5208  0.1047  0.4029
   66SAPC  H20T 5495   5.766   4.119   3.648 -1.3732  2.3783  0.1972
   66SAPC   C33 5496   6.596   3.379   2.717 -0.4286  0.3611 -0.1714
   66SAPC   H3X 5497   6.706   3.373   2.715 -0.4752 -1.0004  0.4468
   66SAPC   H3Y 5498   6.563   3.287   2.665  2.1420 -0.5251 -0.3706
   66SAPC   C34 5499   6.551   3.390   2.859 -0.0227  1.1820 -0.6819
   66SAPC   H4X 5500   6.443   3.372   2.875 -0.1735  1.0827 -1.7789
   66SAPC   H4Y 5501   6.554   3.491   2.905  0.3687  1.1901 -0.7234
   66SAPC   C35 5502   6.625   3.293   2.954 -0.1641 -0.4134  0.8052
   66SAPC   H5X 5503   6.733   3.319   2.953 -0.1048 -0.3920  3.1373
   66SAPC   H5Y 5504   6.623   3.185   2.928  0.0722 -0.1252 -0.5133
   66SAPC   C36 5505   6.573   3.305   3.099  0.0117 -0.4158 -0.4531
   66SAPC   H6X 5506   6.463   3.316   3.107  0.0075 -0.8045  0.0772
   66SAPC   H6Y 5507   6.618   3.396   3.144  0.3221 -0.9597  0.3638
   66SAPC   C37 5508   6.590   3.181   3.186 -0.5329 -0.2655  0.5934
   66SAPC   H7X 5509   6.700   3.172   3.197 -0.7710 -0.6314  3.5479
   66SAPC   H7Y 5510   6.553   3.098   3.123  1.1518  0.0049 -0.8334
   66SAPC   C38 5511   6.529   3.197   3.328 -0.4877  0.3279  0.4129
   66SAPC   H8X 5512   6.422   3.225   3.320  0.0885  3.7507  2.7419
   66SAPC   H8Y 5513   6.591   3.280   3.368 -1.7163  1.7020 -0.4488
   66SAPC   C39 5514   6.559   3.073   3.416  0.5734  0.5468 -0.0172
   66SAPC   H9X 5515   6.666   3.055   3.441  0.8342  1.7706 -0.1888
   66SAPC   H9Y 5516   6.523   2.987   3.356 -0.8462  0.8745  0.3456
   66SAPC  C310 5517   6.492   3.075   3.553  0.8131 -0.0630  0.2480
   66SAPC  H10X 5518   6.385   3.094   3.531  1.0034  1.8791  0.8490
   66SAPC  H10Y 5519   6.536   3.153   3.618  0.5069 -1.0729  1.7162
   66SAPC  C311 5520   6.504   2.941   3.626 -0.2019 -0.5600 -0.2700
   66SAPC  H11X 5521   6.613   2.919   3.630  0.3107  1.6131 -0.9577
   66SAPC  H11Y 5522   6.452   2.864   3.566 -0.6087  0.0976 -0.7796
   66SAPC  C312 5523   6.456   2.939   3.769 -0.1767 -0.3767  0.2338
   66SAPC  H12X 5524   6.352   2.978   3.764 -0.9110 -1.7181  2.8499
   66SAPC  H12Y 5525   6.512   3.007   3.838  0.8217 -2.1072  1.2023
   66SAPC  C313 5526   6.484   2.807   3.839  0.0991  0.2471  0.1632
   66SAPC  H13X 5527   6.593   2.796   3.858  0.2720  1.4856 -0.0845
   66SAPC  H13Y 5528   6.454   2.718   3.778  1.8280 -1.0153  1.0506
   66SAPC  C314 5529   6.413   2.797   3.978 -0.3405 -0.3062 -0.4325
   66SAPC  H14X 5530   6.424   2.692   4.014  0.8030  0.2960  1.0873
   66SAPC  H14Y 5531   6.304   2.816   3.966  0.1356  2.5518 -0.8760
   66SAPC  C315 5532   6.460   2.892   4.090  0.0643  0.9551  0.2069
   66SAPC  H15X 5533   6.470   2.993   4.045 -1.9477  1.5989  1.0955
   66SAPC  H15Y 5534   6.555   2.857   4.135 -1.4270 -2.3468  1.0955
   66SAPC  C316 5535   6.355   2.908   4.207  0.2308  0.0484  0.1249
   66SAPC  H16X 5536   6.317   2.813   4.249 -2.5803  0.9205 -0.2592
   66SAPC  H16Y 5537   6.266   2.949   4.155  0.0314  0.1205  0.5230
   66SAPC  C317 5538   6.398   3.000   4.325 -0.1557  0.9323 -0.7924
   66SAPC  H17X 5539   6.299   3.035   4.363 -0.6192 -3.7676  3.4798
   66SAPC  H17Y 5540   6.456   3.085   4.284  0.4404  1.0937  0.3324
   66SAPC  C318 5541   6.468   2.912   4.431  0.1647 -0.5599 -0.4126
   66SAPC  H18X 5542   6.397   2.836   4.471 -1.8131  1.4155  0.0769
   66SAPC  H18Y 5543   6.506   2.975   4.514 -0.7125  0.2700 -0.6209
   66SAPC  H18Z 5544   6.556   2.867   4.381 -0.8409 -2.0586 -0.9340
   67SAPC     N 5545   2.605   5.098   2.169 -0.2825 -0.3219  0.1746
   67SAPC   C12 5546   2.463   5.119   2.145  0.3863  0.2877  0.2044
   67SAPC  H12A 5547   2.411   5.026   2.131 -0.1556  0.6360 -0.1344
   67SAPC  H12B 5548   2.448   5.169   2.051 -0.9124 -0.4848 -0.0174
   67SAPC   C13 5549   2.665   5.233   2.177 -0.5238  0.2811 -0.2095
   67SAPC  H13A 5550   2.772   5.235   2.193 -0.6742  1.7652  0.9027
   67SAPC  H13B 5551   2.639   5.293   2.091  0.5280  1.4347  0.2397
   67SAPC  H13C 5552   2.620   5.287   2.260  0.4826  0.3115  0.3270
   67SAPC   C14 5553   2.633   5.028   2.299  0.5615 -0.0813  0.3166
   67SAPC  H14A 5554   2.568   4.942   2.297 -1.9829  1.7368  0.2476
   67SAPC  H14B 5555   2.736   4.997   2.294  0.6495  0.4496 -2.7670
   67SAPC  H14C 5556   2.609   5.080   2.391 -2.6802 -1.3281  0.3144
   67SAPC   C15 5557   2.664   5.021   2.054  0.5840 -0.1186 -0.3086
   67SAPC  H15A 5558   2.619   4.924   2.046  0.4593 -0.0199 -0.8204
   67SAPC  H15B 5559   2.653   5.078   1.963  3.0138  0.1031 -0.5344
   67SAPC  H15C 5560   2.770   5.006   2.069  0.5574 -2.1071 -1.7781
   67SAPC   C11 5561   2.379   5.193   2.256 -0.1031  0.4493  0.8827
   67SAPC  H11A 5562   2.395   5.127   2.345  0.5197 -0.2303  0.2797
   67SAPC  H11B 5563   2.277   5.204   2.214  0.8693 -0.4087 -1.8660
   67SAPC     P 5564   2.396   5.402   2.416  0.3005  0.0719  0.2563
   67SAPC   O13 5565   2.496   5.370   2.519  0.5476  0.2581  0.5457
   67SAPC   O14 5566   2.373   5.543   2.379 -0.1937  0.3571 -0.8918
   67SAPC   O12 5567   2.434   5.329   2.278 -0.7208  0.4243 -0.5128
   67SAPC   O11 5568   2.249   5.346   2.449 -0.1915 -0.2763 -0.0609
   67SAPC    C1 5569   2.220   5.247   2.545  0.6034  0.2018 -0.3266
   67SAPC    HA 5570   2.155   5.170   2.500 -0.6162  1.5215 -0.8921
   67SAPC    HB 5571   2.314   5.196   2.577 -0.5528 -1.5450  0.4773
   67SAPC    C2 5572   2.147   5.307   2.665 -0.5381 -0.4311 -0.1257
   67SAPC    HS 5573   2.062   5.367   2.626  1.2561  1.6279 -1.0977
   67SAPC   O21 5574   2.245   5.397   2.725  0.4970  0.1277  0.0492
   67SAPC   C21 5575   2.208   5.513   2.776  0.0048  0.6217  0.0373
   67SAPC   O22 5576   2.096   5.554   2.793  0.3019  0.0794 -0.2797
   67SAPC   C22 5577   2.322   5.593   2.821 -0.2500 -0.3270  0.1904
   67SAPC   H2R 5578   2.387   5.599   2.731  0.8489 -1.1322  0.9089
   67SAPC   H2S 5579   2.280   5.690   2.857  0.8610 -0.0539  0.8300
   67SAPC    C3 5580   2.089   5.203   2.765 -0.2805  0.2254  0.0556
   67SAPC    HX 5581   2.180   5.145   2.793  0.6300  1.7476  0.4049
   67SAPC    HY 5582   2.016   5.140   2.710  0.4817 -0.0634 -0.6567
   67SAPC   O31 5583   2.023   5.251   2.886  0.1915  0.0861 -0.0799
   67SAPC   C31 5584   1.926   5.334   2.879 -0.0012 -0.9664 -0.1002
   67SAPC   O32 5585   1.861   5.357   2.775  0.2042 -0.1390  0.7142
   67SAPC   C32 5586   1.895   5.380   3.022  0.0030 -0.5800 -0.3566
   67SAPC   H2X 5587   1.988   5.415   3.072 -1.5901  0.3657  2.1083
   67SAPC   H2Y 5588   1.871   5.291   3.085  2.2483 -0.4350  0.8131
   67SAPC   C23 5589   2.398   5.525   2.941 -0.5186 -0.0856  0.3637
   67SAPC   H3R 5590   2.479   5.598   2.967  0.4353 -1.7178  2.1801
   67SAPC   H3S 5591   2.443   5.430   2.906  0.5794 -0.2675  2.1382
   67SAPC   C24 5592   2.315   5.495   3.062 -0.6848  0.0952 -0.2993
   67SAPC   H4R 5593   2.239   5.416   3.045 -0.3661 -0.1245 -0.7240
   67SAPC   H4S 5594   2.255   5.579   3.103 -2.1452 -0.7111 -0.7027
   67SAPC   C25 5595   2.401   5.451   3.177 -0.2464 -0.3244 -0.5953
   67SAPC   H5R 5596   2.476   5.373   3.161  1.4599  1.3567 -1.1888
   67SAPC   C26 5597   2.381   5.489   3.311 -0.0886  0.7989 -0.2006
   67SAPC   H6R 5598   2.438   5.440   3.391 -1.3578 -0.3567  0.0286
   67SAPC   C27 5599   2.281   5.590   3.365 -0.2815 -0.0037 -0.7751
   67SAPC   H7R 5600   2.248   5.669   3.293  0.6991  0.3735 -0.8263
   67SAPC   H7S 5601   2.341   5.651   3.436 -1.8120  1.7707 -0.9222
   67SAPC   C28 5602   2.171   5.523   3.435  0.2321 -0.5857  0.0253
   67SAPC   H8R 5603   2.109   5.464   3.366 -1.8422  2.2206 -0.6892
   67SAPC   C29 5604   2.116   5.550   3.559  0.1696  0.2856  0.4437
   67SAPC   H9R 5605   2.026   5.494   3.589  1.6639 -1.7137  1.4196
   67SAPC  C210 5606   2.168   5.649   3.660 -0.0959 -0.2426  0.4626
   67SAPC  H10R 5607   2.083   5.669   3.729 -0.4490  0.4545 -0.1522
   67SAPC  H10S 5608   2.193   5.745   3.611 -2.5213  0.2502  0.0440
   67SAPC  C211 5609   2.282   5.605   3.734  0.5925  1.1913 -0.1711
   67SAPC  H11R 5610   2.352   5.550   3.669  0.7617  2.1680 -0.8422
   67SAPC  C212 5611   2.309   5.637   3.863  0.3972  0.8533  0.0552
   67SAPC  H12R 5612   2.404   5.615   3.914  0.2037  2.5912  1.2612
   67SAPC  C213 5613   2.221   5.716   3.959  0.0020  0.2548  0.4313
   67SAPC  H13R 5614   2.204   5.647   4.045  2.9310 -1.1181  0.0480
   67SAPC  H13S 5615   2.124   5.741   3.911 -0.2044 -0.4772  0.4447
   67SAPC  C214 5616   2.300   5.836   4.004  0.3300  0.0591 -0.2900
   67SAPC  H14R 5617   2.336   5.916   3.937  2.5181  0.2595  1.0226
   67SAPC  C215 5618   2.316   5.871   4.133 -0.0624 -0.4487 -0.2718
   67SAPC  H15R 5619   2.394   5.947   4.151  1.8196 -2.5615  1.0501
   67SAPC  C216 5620   2.274   5.804   4.264  0.1963  0.3689  0.2201
   67SAPC  H16R 5621   2.192   5.735   4.236  1.3159 -0.8281 -0.2193
   67SAPC  H16S 5622   2.211   5.862   4.335 -0.9808  0.4356 -0.8452
   67SAPC  C217 5623   2.387   5.740   4.347  0.3168 -0.2007 -0.1546
   67SAPC  H17R 5624   2.445   5.815   4.404 -0.6333 -0.4716  1.2116
   67SAPC  H17S 5625   2.446   5.681   4.273 -1.6553 -2.0883 -0.3104
   67SAPC  C218 5626   2.338   5.632   4.450  0.3300 -0.3047  0.4416
   67SAPC  H18R 5627   2.311   5.549   4.381  1.1335  0.9236 -1.4323
   67SAPC  H18S 5628   2.242   5.660   4.498 -0.0542 -0.0695 -0.4471
   67SAPC  C219 5629   2.432   5.602   4.567 -0.0140  0.3536  1.0272
   67SAPC  H19R 5630   2.533   5.635   4.534 -1.2197  0.6924 -2.7612
   67SAPC  H19S 5631   2.431   5.495   4.598 -1.6020  0.8363  2.8810
   67SAPC  C220 5632   2.405   5.678   4.694 -0.4792  1.0182  0.0003
   67SAPC  H20R 5633   2.486   5.667   4.769  1.5579  1.4313 -2.0373
   67SAPC  H20S 5634   2.314   5.623   4.728 -0.2586 -2.3008 -4.0279
   67SAPC  H20T 5635   2.389   5.786   4.674  0.4973  0.8658 -1.8654
   67SAPC   C33 5636   1.790   5.492   3.037 -0.1265 -0.6686  0.3237
   67SAPC   H3X 5637   1.696   5.440   3.009  0.9251 -2.7767  0.4463
   67SAPC   H3Y 5638   1.801   5.570   2.960 -0.3373 -1.9333 -1.0360
   67SAPC   C34 5639   1.778   5.549   3.180  0.2387  0.8246  0.2966
   67SAPC   H4X 5640   1.693   5.619   3.195 -0.6663 -0.3471  0.8289
   67SAPC   H4Y 5641   1.871   5.606   3.201  0.4854  0.9662 -1.0816
   67SAPC   C35 5642   1.768   5.448   3.287  0.5216 -0.6741  0.1527
   67SAPC   H5X 5643   1.862   5.390   3.290  0.5747 -0.5759  0.4445
   67SAPC   H5Y 5644   1.678   5.388   3.263 -0.0915 -0.2200  1.2295
   67SAPC   C36 5645   1.742   5.513   3.424  0.4023 -1.0698 -0.1812
   67SAPC   H6X 5646   1.641   5.560   3.427  1.4164  1.2719 -0.2221
   67SAPC   H6Y 5647   1.819   5.591   3.446 -0.9631  0.4162 -0.4331
   67SAPC   C37 5648   1.748   5.399   3.526  0.1673  0.5644 -0.0891
   67SAPC   H7X 5649   1.833   5.331   3.501 -2.6135 -3.3963  0.2555
   67SAPC   H7Y 5650   1.659   5.336   3.503  1.0612 -0.6811 -0.2741
   67SAPC   C38 5651   1.750   5.441   3.673  0.2413 -0.5538 -0.3000
   67SAPC   H8X 5652   1.845   5.493   3.699 -0.8181  0.9399  0.7220
   67SAPC   H8Y 5653   1.749   5.352   3.740 -0.1555 -0.3002  0.0330
   67SAPC   C39 5654   1.637   5.535   3.723 -0.3088 -0.2750  0.1222
   67SAPC   H9X 5655   1.538   5.504   3.684 -0.2267  1.2867 -1.4661
   67SAPC   H9Y 5656   1.652   5.631   3.668 -0.5840 -1.6143 -2.4615
   67SAPC  C310 5657   1.641   5.549   3.873  0.0292 -0.0177  0.4758
   67SAPC  H10X 5658   1.601   5.456   3.920 -1.3843  0.1970 -0.2506
   67SAPC  H10Y 5659   1.574   5.636   3.893 -0.3207 -0.0727 -0.4309
   67SAPC  C311 5660   1.775   5.590   3.946  0.0861  0.1394  0.4466
   67SAPC  H11X 5661   1.789   5.693   3.908 -4.1168 -0.3510 -3.1556
   67SAPC  H11Y 5662   1.861   5.526   3.916 -0.4098  0.4161 -1.6857
   67SAPC  C312 5663   1.756   5.582   4.096 -0.1597 -0.2088 -1.0432
   67SAPC  H12X 5664   1.760   5.477   4.132  1.5831 -0.8146 -2.8125
   67SAPC  H12Y 5665   1.656   5.617   4.130  1.4719  1.4176  2.5202
   67SAPC  C313 5666   1.859   5.657   4.182 -0.2796 -0.3108 -0.5141
   67SAPC  H13X 5667   1.861   5.758   4.135  1.0803 -0.6626 -1.2562
   67SAPC  H13Y 5668   1.957   5.609   4.163  0.4196  1.4296 -1.5979
   67SAPC  C314 5669   1.824   5.667   4.330 -0.3770  0.0092  0.1920
   67SAPC  H14X 5670   1.802   5.565   4.367 -1.3213  0.7295  1.7360
   67SAPC  H14Y 5671   1.735   5.734   4.338 -1.2854 -1.3203  1.9237
   67SAPC  C315 5672   1.936   5.709   4.425 -0.6048  0.5040  0.9411
   67SAPC  H15X 5673   1.993   5.798   4.390 -1.6745  1.9642  2.7440
   67SAPC  H15Y 5674   2.007   5.623   4.429 -1.9734 -0.6661  0.6673
   67SAPC  C316 5675   1.882   5.744   4.564 -0.1429 -0.2980  0.3975
   67SAPC  H16X 5676   1.966   5.743   4.636  1.1766 -0.6030 -1.0918
   67SAPC  H16Y 5677   1.817   5.654   4.575  0.2618 -0.6979 -0.4003
   67SAPC  C317 5678   1.812   5.882   4.574 -0.1508  0.6488 -0.1257
   67SAPC  H17X 5679   1.711   5.869   4.530 -0.7475  1.6810  0.8662
   67SAPC  H17Y 5680   1.872   5.952   4.512 -0.6445 -1.1736 -2.7789
   67SAPC  C318 5681   1.786   5.907   4.720 -0.5108  0.9607 -0.0522
   67SAPC  H18X 5682   1.884   5.913   4.772  1.2616 -0.7296 -2.8897
   67SAPC  H18Y 5683   1.721   5.832   4.772  0.0954  0.8723  0.5945
   67SAPC  H18Z 5684   1.726   5.999   4.735 -2.6970 -0.3709 -0.2454
   68SAPC     N 5685   6.659   4.244   2.439  0.1083  0.2919 -0.4289
   68SAPC   C12 5686   6.529   4.300   2.392  0.4411 -0.1047 -0.0091
   68SAPC  H12A 5687   6.504   4.254   2.298  0.1678  0.1359 -0.0550
   68SAPC  H12B 5688   6.538   4.404   2.366  1.4185 -0.6019 -1.8532
   68SAPC   C13 5689   6.683   4.289   2.578 -0.5922  0.0537 -0.0631
   68SAPC  H13A 5690   6.770   4.239   2.619 -0.0665 -1.2107 -2.5142
   68SAPC  H13B 5691   6.683   4.395   2.599  0.6165 -0.1406  1.0119
   68SAPC  H13C 5692   6.605   4.260   2.646 -0.1510  1.3997  1.0586
   68SAPC   C14 5693   6.653   4.091   2.434  0.2413 -0.9981  0.3476
   68SAPC  H14A 5694   6.742   4.043   2.473  1.3763  0.3125 -0.5368
   68SAPC  H14B 5695   6.567   4.058   2.490  0.5069 -0.1454  1.2937
   68SAPC  H14C 5696   6.663   4.057   2.332  2.3992  0.5035 -0.0155
   68SAPC   C15 5697   6.772   4.297   2.357  0.3215 -0.0423  0.4342
   68SAPC  H15A 5698   6.862   4.242   2.382 -0.3961 -0.2053  2.9535
   68SAPC  H15B 5699   6.751   4.273   2.254  1.2995  1.0103 -0.0336
   68SAPC  H15C 5700   6.799   4.402   2.357  0.5829 -0.1093  0.6225
   68SAPC   C11 5701   6.404   4.289   2.489 -0.3137 -0.2686  0.0658
   68SAPC  H11A 5702   6.411   4.355   2.577 -2.5795  1.1171 -0.6983
   68SAPC  H11B 5703   6.408   4.182   2.520  2.7487 -0.0733  0.6855
   68SAPC     P 5704   6.221   4.441   2.370 -0.0253  0.0821  0.2354
   68SAPC   O13 5705   6.326   4.519   2.301  0.2529 -0.0343 -0.1161
   68SAPC   O14 5706   6.104   4.409   2.290 -0.6520  0.2174 -0.1431
   68SAPC   O12 5707   6.282   4.304   2.415 -0.1576 -0.2154 -0.0190
   68SAPC   O11 5708   6.177   4.509   2.508  0.3240  0.8136 -0.1090
   68SAPC    C1 5709   6.068   4.442   2.578 -0.1043 -0.0188  0.3195
   68SAPC    HA 5710   5.982   4.444   2.507  1.1422 -0.5632 -1.2676
   68SAPC    HB 5711   6.087   4.336   2.602  0.9452  0.1154  0.1333
   68SAPC    C2 5712   6.032   4.507   2.716  0.8735 -0.6338  0.0690
   68SAPC    HS 5713   6.006   4.612   2.688 -3.2759 -1.3961  0.4814
   68SAPC   O21 5714   6.149   4.497   2.803 -0.2205 -0.3409  0.8507
   68SAPC   C21 5715   6.226   4.605   2.798 -0.0034 -0.3332  0.1910
   68SAPC   O22 5716   6.198   4.713   2.745 -0.2768 -0.6384 -0.6323
   68SAPC   C22 5717   6.363   4.560   2.857  0.4863  0.0697  0.6703
   68SAPC   H2R 5718   6.419   4.546   2.762  1.8312 -0.8025  1.5514
   68SAPC   H2S 5719   6.398   4.648   2.915 -2.5297  1.6722  0.2655
   68SAPC    C3 5720   5.903   4.437   2.784  0.0241  0.6260 -0.1850
   68SAPC    HX 5721   5.917   4.328   2.797 -1.2391  0.4086 -0.5412
   68SAPC    HY 5722   5.820   4.449   2.712  0.6202 -1.2548 -1.2428
   68SAPC   O31 5723   5.879   4.501   2.912  0.2613 -0.1809  0.3906
   68SAPC   C31 5724   5.768   4.453   2.963 -0.3522  0.9505 -0.4551
   68SAPC   O32 5725   5.688   4.383   2.901 -0.2668  0.4260 -0.1643
   68SAPC   C32 5726   5.752   4.507   3.101  0.1382  0.0751 -0.8066
   68SAPC   H2X 5727   5.755   4.617   3.090  0.6557  0.2487  0.8373
   68SAPC   H2Y 5728   5.834   4.467   3.165  0.7208  3.1225  0.5187
   68SAPC   C23 5729   6.357   4.437   2.958 -0.6544 -0.4486  0.1518
   68SAPC   H3R 5730   6.461   4.429   2.997 -0.8293  1.4315  1.1213
   68SAPC   H3S 5731   6.328   4.345   2.904  0.1053  1.6276 -4.2824
   68SAPC   C24 5732   6.273   4.471   3.074  0.3084 -0.7265 -0.9806
   68SAPC   H4R 5733   6.166   4.482   3.044 -0.1839 -1.1862  0.5011
   68SAPC   H4S 5734   6.300   4.566   3.124  0.7451 -1.4156  0.1185
   68SAPC   C25 5735   6.283   4.353   3.173 -0.3918 -0.0510  0.9120
   68SAPC   H5R 5736   6.380   4.367   3.223  0.0934  2.5155 -0.5659
   68SAPC   C26 5737   6.206   4.248   3.202 -0.3805 -0.0437  0.6276
   68SAPC   H6R 5738   6.240   4.179   3.281 -0.6491 -1.2968 -0.3234
   68SAPC   C27 5739   6.069   4.215   3.150 -0.5741 -0.6290  0.3396
   68SAPC   H7R 5740   5.998   4.293   3.185  0.2830  0.4464 -0.2444
   68SAPC   H7S 5741   6.037   4.121   3.200 -0.5031  0.2340  2.0978
   68SAPC   C28 5742   6.063   4.186   3.000 -0.4479  0.1913 -0.5658
   68SAPC   H8R 5743   6.137   4.227   2.930  0.3990  0.0758  0.2369
   68SAPC   C29 5744   5.979   4.095   2.948  0.2080  0.8154  0.7616
   68SAPC   H9R 5745   5.987   4.067   2.841 -1.3619 -3.4645  1.5467
   68SAPC  C210 5746   5.867   4.024   3.026  0.2305 -0.0967  0.2192
   68SAPC  H10R 5747   5.775   4.066   2.980 -0.7501 -1.5793  0.7477
   68SAPC  H10S 5748   5.861   4.051   3.134 -1.6586  0.0280  0.1238
   68SAPC  C211 5749   5.852   3.872   3.008 -0.2719  0.4267 -0.0169
   68SAPC  H11R 5750   5.923   3.830   2.935  0.4743  0.9116  0.4183
   68SAPC  C212 5751   5.762   3.794   3.072 -0.2820  0.2509  0.3754
   68SAPC  H12R 5752   5.765   3.684   3.066 -1.6297  0.1961  0.3286
   68SAPC  C213 5753   5.656   3.835   3.169 -0.2586  0.5561 -0.4643
   68SAPC  H13R 5754   5.691   3.927   3.220 -0.7572  0.0050  0.8957
   68SAPC  H13S 5755   5.657   3.765   3.255  0.0903  1.6099  0.4124
   68SAPC  C214 5756   5.526   3.856   3.100  0.0582  1.1600 -0.1417
   68SAPC  H14R 5757   5.542   3.916   3.009  2.6702  0.4925 -0.1971
   68SAPC  C215 5758   5.403   3.824   3.139  0.1233 -0.4128 -1.0845
   68SAPC  H15R 5759   5.316   3.856   3.080 -0.6040  2.7091  1.3912
   68SAPC  C216 5760   5.368   3.736   3.260 -0.2760  0.1342  0.6303
   68SAPC  H16R 5761   5.456   3.715   3.325  0.6159  1.8731  0.0545
   68SAPC  H16S 5762   5.328   3.637   3.228 -1.2833  0.1700  1.7080
   68SAPC  C217 5763   5.262   3.803   3.348 -0.2731 -0.1013 -0.9173
   68SAPC  H17R 5764   5.163   3.801   3.296 -1.5527  1.1120  1.2969
   68SAPC  H17S 5765   5.284   3.909   3.370  1.7208 -0.7208  0.2895
   68SAPC  C218 5766   5.244   3.723   3.480  1.2928 -0.0555  0.3388
   68SAPC  H18R 5767   5.342   3.685   3.516  1.1374 -0.4585  0.3485
   68SAPC  H18S 5768   5.191   3.629   3.451 -0.5884  1.3173 -0.9173
   68SAPC  C219 5769   5.145   3.789   3.572  0.6632  0.1682  0.0572
   68SAPC  H19R 5770   5.045   3.788   3.524  1.3846 -1.8422 -1.5634
   68SAPC  H19S 5771   5.163   3.893   3.607  2.9476  0.0351 -0.5651
   68SAPC  C220 5772   5.128   3.698   3.700  0.5550  0.7169 -0.4765
   68SAPC  H20R 5773   5.052   3.739   3.770 -0.5585  0.9363 -1.7779
   68SAPC  H20S 5774   5.227   3.688   3.749  0.1887 -0.7064 -0.0043
   68SAPC  H20T 5775   5.081   3.599   3.685 -1.6094  1.3361  1.6376
   68SAPC   C33 5776   5.617   4.481   3.171  0.0979 -0.3148  0.2924
   68SAPC   H3X 5777   5.535   4.492   3.097  1.6958  1.5086 -1.3314
   68SAPC   H3Y 5778   5.598   4.566   3.239 -2.0003 -0.1506 -0.4265
   68SAPC   C34 5779   5.616   4.341   3.232 -0.0833 -0.7102  0.1113
   68SAPC   H4X 5780   5.711   4.316   3.285 -1.4271 -1.3100  2.3882
   68SAPC   H4Y 5781   5.603   4.275   3.143  0.3249  0.9415 -1.2251
   68SAPC   C35 5782   5.500   4.330   3.335  0.5063 -0.8347 -0.8971
   68SAPC   H5X 5783   5.499   4.220   3.354 -2.6497 -0.7550 -0.1348
   68SAPC   H5Y 5784   5.400   4.342   3.290  0.9081  2.0438 -1.2352
   68SAPC   C36 5785   5.523   4.411   3.465 -0.2021  0.0829  0.2785
   68SAPC   H6X 5786   5.530   4.521   3.453  1.1445 -0.2050 -2.4217
   68SAPC   H6Y 5787   5.623   4.387   3.508  0.1397  1.0571  0.0592
   68SAPC   C37 5788   5.423   4.366   3.565  0.4799 -0.5452 -0.1669
   68SAPC   H7X 5789   5.420   4.256   3.576  3.1249 -0.6325  0.2372
   68SAPC   H7Y 5790   5.320   4.393   3.533  0.5409  1.7929  1.3472
   68SAPC   C38 5791   5.437   4.412   3.705  0.1306 -0.3487  0.3002
   68SAPC   H8X 5792   5.359   4.370   3.773  1.2554 -0.8691  1.3067
   68SAPC   H8Y 5793   5.392   4.513   3.719 -1.5031 -1.2057  1.5984
   68SAPC   C39 5794   5.574   4.401   3.773  0.5620 -0.3568 -0.1338
   68SAPC   H9X 5795   5.622   4.499   3.754 -1.5164  1.0571  1.4687
   68SAPC   H9Y 5796   5.624   4.314   3.726 -0.8405 -1.1953 -0.1362
   68SAPC  C310 5797   5.573   4.376   3.924 -0.2163 -0.7472  1.2055
   68SAPC  H10X 5798   5.536   4.276   3.955  0.5287 -1.2016  0.6551
   68SAPC  H10Y 5799   5.510   4.453   3.974  1.1597  1.4549 -0.2470
   68SAPC  C311 5800   5.707   4.389   3.996  0.1351  1.0014 -0.2083
   68SAPC  H11X 5801   5.783   4.323   3.950 -0.7114  0.0866 -0.3143
   68SAPC  H11Y 5802   5.685   4.355   4.099  0.5237 -1.4997 -0.9029
   68SAPC  C312 5803   5.756   4.536   3.995 -0.7916 -0.4889 -0.6655
   68SAPC  H12X 5804   5.679   4.603   4.040  0.2098 -0.3582  0.9319
   68SAPC  H12Y 5805   5.792   4.563   3.893 -1.7891 -2.4693 -1.6014
   68SAPC  C313 5806   5.876   4.575   4.095  0.1690 -0.3507 -0.4774
   68SAPC  H13X 5807   5.849   4.531   4.193  0.7147  1.2565  0.4391
   68SAPC  H13Y 5808   5.897   4.685   4.097  0.0021 -0.3274  0.0615
   68SAPC  C314 5809   6.015   4.509   4.044 -0.8185  0.6186 -0.7694
   68SAPC  H14X 5810   6.046   4.551   3.946  1.6490  2.0742  0.5375
   68SAPC  H14Y 5811   6.004   4.400   4.027 -1.6085  0.5888 -0.1417
   68SAPC  C315 5812   6.142   4.536   4.125 -0.2483  0.5684  0.3209
   68SAPC  H15X 5813   6.164   4.644   4.113  0.4813  0.7177  2.4754
   68SAPC  H15Y 5814   6.226   4.471   4.092 -0.2272  1.5940 -1.7890
   68SAPC  C316 5815   6.129   4.503   4.273 -0.0898  0.3110 -0.2107
   68SAPC  H16X 5816   6.082   4.403   4.276  0.8368 -0.1379 -0.3604
   68SAPC  H16Y 5817   6.057   4.576   4.315  0.3030 -0.6717  2.3403
   68SAPC  C317 5818   6.261   4.502   4.354  0.8161  0.0300 -0.5556
   68SAPC  H17X 5819   6.315   4.598   4.344  1.0174 -0.1295 -1.0721
   68SAPC  H17Y 5820   6.329   4.427   4.308  0.2327 -0.3603 -0.8035
   68SAPC  C318 5821   6.236   4.478   4.505 -0.7114 -0.2097 -0.3154
   68SAPC  H18X 5822   6.168   4.390   4.511 -0.7543 -0.1301  0.4821
   68SAPC  H18Y 5823   6.189   4.570   4.544  0.8768 -0.1120  1.5199
   68SAPC  H18Z 5824   6.327   4.470   4.568 -1.1722 -1.8623  0.2147
   69SAPC     N 5825   4.729   4.487   1.848  0.3853 -0.5259  0.1436
   69SAPC   C12 5826   4.738   4.604   1.949  0.0550 -0.7870 -0.0518
   69SAPC  H12A 5827   4.840   4.636   1.964  0.1998 -0.4026 -1.6685
   69SAPC  H12B 5828   4.703   4.571   2.046 -1.8279 -0.6783 -0.6455
   69SAPC   C13 5829   4.585   4.438   1.851 -0.1526 -0.3417  0.1232
   69SAPC  H13A 5830   4.589   4.347   1.793 -1.7786 -1.1283  1.1533
   69SAPC  H13B 5831   4.561   4.402   1.950 -0.1934  0.3509  0.3678
   69SAPC  H13C 5832   4.522   4.520   1.820  1.8151  0.6470 -1.4345
   69SAPC   C14 5833   4.772   4.534   1.717 -0.8855 -0.0415  0.0356
   69SAPC  H14A 5834   4.879   4.545   1.719 -0.9778  0.8671  1.5482
   69SAPC  H14B 5835   4.743   4.467   1.637  2.6409 -1.0511 -0.5530
   69SAPC  H14C 5836   4.730   4.633   1.702  1.7205  1.3325  1.1136
   69SAPC   C15 5837   4.817   4.381   1.885  0.4186  0.2837 -0.3911
   69SAPC  H15A 5838   4.784   4.333   1.975 -3.8115  0.7275 -1.4901
   69SAPC  H15B 5839   4.817   4.298   1.815 -1.1149 -2.3643  2.4920
   69SAPC  H15C 5840   4.916   4.418   1.908  1.5652 -1.9133 -1.4535
   69SAPC   C11 5841   4.644   4.728   1.924  0.2139 -0.0018 -0.1810
   69SAPC  H11A 5842   4.667   4.759   1.820  4.1803 -0.6502  0.3412
   69SAPC  H11B 5843   4.682   4.810   1.990  0.6758 -0.0534 -0.3850
   69SAPC     P 5844   4.435   4.719   2.071  0.0602  0.1323 -0.1069
   69SAPC   O13 5845   4.389   4.857   2.068 -0.6924 -0.0981  0.0760
   69SAPC   O14 5846   4.336   4.608   2.081  0.5352 -0.3252 -0.2323
   69SAPC   O12 5847   4.500   4.701   1.930 -0.0580 -0.0973 -0.4086
   69SAPC   O11 5848   4.555   4.694   2.174  0.2073  0.0727  0.0347
   69SAPC    C1 5849   4.590   4.811   2.259  0.1370 -0.5928 -0.3613
   69SAPC    HA 5850   4.618   4.891   2.188 -0.3527 -0.2659 -0.1934
   69SAPC    HB 5851   4.501   4.857   2.308  0.5359  1.4986 -1.4965
   69SAPC    C2 5852   4.697   4.778   2.362  0.7836  0.6086 -0.6673
   69SAPC    HS 5853   4.777   4.710   2.326  1.6296  1.2930 -0.1053
   69SAPC   O21 5854   4.617   4.728   2.470  0.0803  0.2257 -0.4730
   69SAPC   C21 5855   4.683   4.639   2.548 -0.2433  0.2885 -0.2686
   69SAPC   O22 5856   4.806   4.624   2.541  0.0077 -0.2009  0.5324
   69SAPC   C22 5857   4.586   4.563   2.632 -0.2209  0.1321  0.0800
   69SAPC   H2R 5858   4.584   4.610   2.733 -1.3576  0.1073  0.0797
   69SAPC   H2S 5859   4.481   4.573   2.595 -0.3491 -2.8243 -0.6018
   69SAPC    C3 5860   4.772   4.910   2.401  0.5936 -0.1618 -0.4833
   69SAPC    HX 5861   4.695   4.982   2.437  0.8493 -0.7458  1.3336
   69SAPC    HY 5862   4.816   4.950   2.306  0.0276  2.0816  0.1219
   69SAPC   O31 5863   4.877   4.912   2.504  0.7871  0.8058  0.4638
   69SAPC   C31 5864   4.839   4.933   2.627  0.6731 -0.1216  0.1724
   69SAPC   O32 5865   4.723   4.946   2.666  0.2886 -0.1925 -0.1076
   69SAPC   C32 5866   4.965   4.946   2.719  0.0643  0.2924 -0.3681
   69SAPC   H2X 5867   5.028   5.030   2.683  1.1270 -0.7782 -1.0720
   69SAPC   H2Y 5868   5.021   4.851   2.705  1.0308  0.3696  2.3202
   69SAPC   C23 5869   4.617   4.414   2.642 -0.4623 -0.0257 -0.2525
   69SAPC   H3R 5870   4.717   4.391   2.685 -0.5095 -2.0321 -1.0852
   69SAPC   H3S 5871   4.605   4.365   2.543 -4.4691 -1.8456  0.9425
   69SAPC   C24 5872   4.509   4.339   2.727 -0.3791  0.4346  0.3593
   69SAPC   H4R 5873   4.409   4.356   2.680 -1.8628 -0.4040  3.0133
   69SAPC   H4S 5874   4.485   4.389   2.823 -1.5440  0.7840 -0.0859
   69SAPC   C25 5875   4.527   4.186   2.743  0.0674 -0.0170 -0.2363
   69SAPC   H5R 5876   4.514   4.132   2.648 -0.8078  0.3146 -0.3180
   69SAPC   C26 5877   4.530   4.119   2.855  0.0620  0.6971 -0.3488
   69SAPC   H6R 5878   4.542   4.010   2.848  1.2586  0.9461 -3.9836
   69SAPC   C27 5879   4.545   4.177   2.995  0.1302  0.4272 -0.1540
   69SAPC   H7R 5880   4.489   4.271   3.015  1.0698  0.4435  2.9054
   69SAPC   H7S 5881   4.654   4.196   3.007  0.5422  0.6687 -3.3522
   69SAPC   C28 5882   4.499   4.086   3.108  0.7405 -0.2031 -0.5607
   69SAPC   H8R 5883   4.413   4.023   3.083  0.3465 -0.3729  1.0714
   69SAPC   C29 5884   4.552   4.086   3.234  0.6117  0.0877 -0.2843
   69SAPC   H9R 5885   4.511   4.018   3.310  3.3286  0.4425  1.6523
   69SAPC  C210 5886   4.646   4.187   3.296  0.0483  0.9230 -0.0640
   69SAPC  H10R 5887   4.627   4.279   3.237 -0.5940  1.0446  0.3204
   69SAPC  H10S 5888   4.748   4.148   3.274 -0.2058  0.9854 -1.4188
   69SAPC  C211 5889   4.615   4.214   3.438  0.3723 -0.4664 -0.9398
   69SAPC  H11R 5890   4.550   4.303   3.445 -0.8727 -1.4646  1.4223
   69SAPC  C212 5891   4.666   4.172   3.555  0.3644 -0.0036 -0.0682
   69SAPC  H12R 5892   4.621   4.197   3.653 -1.3729  0.8646 -1.0428
   69SAPC  C213 5893   4.782   4.075   3.563  1.4687 -0.1353 -0.2778
   69SAPC  H13R 5894   4.825   4.045   3.465  0.0247 -1.6193 -0.4854
   69SAPC  H13S 5895   4.742   3.980   3.603  0.6769  0.4734  0.4089
   69SAPC  C214 5896   4.883   4.122   3.665  0.3281 -0.4236  0.2822
   69SAPC  H14R 5897   4.865   4.102   3.771  1.9384 -1.4548  0.4103
   69SAPC  C215 5898   5.001   4.184   3.631 -0.5439  0.2619 -0.1612
   69SAPC  H15R 5899   5.066   4.214   3.714 -0.8980 -1.2431  0.7153
   69SAPC  C216 5900   5.039   4.233   3.494  0.5159  0.3473 -0.4204
   69SAPC  H16R 5901   5.093   4.329   3.504  0.6998  0.4270 -1.9074
   69SAPC  H16S 5902   4.940   4.260   3.452 -0.5950 -1.2443  1.0000
   69SAPC  C217 5903   5.108   4.135   3.395 -0.2612 -0.3330  0.7543
   69SAPC  H17R 5904   5.059   4.036   3.410  0.8471 -0.7285  1.9271
   69SAPC  H17S 5905   5.214   4.117   3.423  0.3086  1.7896  0.1349
   69SAPC  C218 5906   5.101   4.177   3.248 -0.0430  0.3792 -0.0441
   69SAPC  H18R 5907   5.125   4.285   3.259 -0.0144  0.4845 -1.0406
   69SAPC  H18S 5908   4.997   4.153   3.217  0.3204  0.8108 -1.6805
   69SAPC  C219 5909   5.208   4.116   3.149 -0.4362 -0.2794 -0.3554
   69SAPC  H19R 5910   5.182   4.009   3.138 -1.7129 -0.0217 -0.0377
   69SAPC  H19S 5911   5.312   4.126   3.185 -0.4697  2.6184 -0.7977
   69SAPC  C220 5912   5.208   4.188   3.015  0.3494  0.5377  0.0890
   69SAPC  H20R 5913   5.265   4.127   2.941  0.5924 -0.6899  1.2583
   69SAPC  H20S 5914   5.259   4.286   3.026  1.9480 -0.4073  1.5272
   69SAPC  H20T 5915   5.101   4.190   2.985  0.8229 -3.1752 -2.6448
   69SAPC   C33 5916   4.946   4.970   2.873  0.2767 -0.2630 -0.2579
   69SAPC   H3X 5917   5.050   4.977   2.911  0.4180  0.6407 -0.7642
   69SAPC   H3Y 5918   4.881   4.895   2.922 -0.8763 -0.0851 -1.4629
   69SAPC   C34 5919   4.879   5.099   2.905 -0.3945 -0.3116 -0.0231
   69SAPC   H4X 5920   4.768   5.102   2.918 -0.2155  0.9512  1.6042
   69SAPC   H4Y 5921   4.903   5.171   2.824  2.3674 -1.2398 -0.1149
   69SAPC   C35 5922   4.940   5.176   3.022  0.3769  0.5285 -0.3022
   69SAPC   H5X 5923   4.884   5.272   3.014 -3.4876 -1.5151 -0.5066
   69SAPC   H5Y 5924   5.049   5.183   3.002  0.2846  0.0567 -1.0045
   69SAPC   C36 5925   4.895   5.115   3.160 -0.2867 -0.0330 -0.0268
   69SAPC   H6X 5926   4.900   5.004   3.166  2.5328  0.1079  2.5430
   69SAPC   H6Y 5927   4.791   5.147   3.179 -0.5408  0.0194 -1.3866
   69SAPC   C37 5928   4.995   5.163   3.274 -0.0505  0.3295 -0.4840
   69SAPC   H7X 5929   4.992   5.274   3.272 -0.2903  0.3193 -0.7329
   69SAPC   H7Y 5930   5.099   5.133   3.251 -0.9533 -0.2121 -4.8121
   69SAPC   C38 5931   4.962   5.110   3.418 -0.2163 -1.2632 -0.2116
   69SAPC   H8X 5932   5.051   5.135   3.479 -0.6506  2.1721 -0.7960
   69SAPC   H8Y 5933   4.945   5.001   3.432  0.5099 -1.6223 -1.8773
   69SAPC   C39 5934   4.855   5.186   3.494  0.1012 -0.0250 -0.5849
   69SAPC   H9X 5935   4.768   5.211   3.429 -0.4499  1.1181  0.5532
   69SAPC   H9Y 5936   4.902   5.285   3.512  0.6769 -0.3641 -0.2092
   69SAPC  C310 5937   4.813   5.115   3.621 -0.7107 -0.1499 -0.5176
   69SAPC  H10X 5938   4.888   5.109   3.702 -2.0293 -0.7444  0.6935
   69SAPC  H10Y 5939   4.811   5.005   3.605 -0.6758 -0.1889 -0.2655
   69SAPC  C311 5940   4.681   5.160   3.669 -0.2025  0.9579 -0.0623
   69SAPC  H11X 5941   4.623   5.082   3.724 -0.2976  1.4125  0.4991
   69SAPC  H11Y 5942   4.624   5.196   3.581 -1.1975 -1.3897 -0.4656
   69SAPC  C312 5943   4.689   5.275   3.771  0.3154  0.0782 -0.2648
   69SAPC  H12X 5944   4.763   5.345   3.726 -0.7574  1.9240  0.7032
   69SAPC  H12Y 5945   4.708   5.240   3.875 -3.3415  1.5661  1.0736
   69SAPC  C313 5946   4.544   5.331   3.781 -0.4862 -0.4163  0.6485
   69SAPC  H13X 5947   4.464   5.260   3.808  0.6857 -1.2649  2.0385
   69SAPC  H13Y 5948   4.521   5.379   3.683 -0.2194  0.0363  0.8021
   69SAPC  C314 5949   4.537   5.442   3.885  0.1407  0.5591  0.3300
   69SAPC  H14X 5950   4.616   5.520   3.873 -0.2904  0.6852 -2.4881
   69SAPC  H14Y 5951   4.554   5.389   3.981 -1.5615 -1.8184 -0.5990
   69SAPC  C315 5952   4.393   5.506   3.884  0.7101 -0.6151 -0.1926
   69SAPC  H15X 5953   4.317   5.437   3.927  1.9827 -1.6543  0.4540
   69SAPC  H15Y 5954   4.359   5.521   3.779 -1.0646  1.6241  0.6240
   69SAPC  C316 5955   4.410   5.654   3.945  0.1392  0.6625 -0.1458
   69SAPC  H16X 5956   4.314   5.709   3.938 -0.2910 -0.1090 -0.3958
   69SAPC  H16Y 5957   4.484   5.709   3.883 -0.1666  3.3198  1.6805
   69SAPC  C317 5958   4.457   5.680   4.085  0.4699  0.5405  0.1194
   69SAPC  H17X 5959   4.508   5.778   4.092  2.5593 -0.4095 -0.9555
   69SAPC  H17Y 5960   4.539   5.611   4.113  2.1656  2.2940 -0.3597
   69SAPC  C318 5961   4.344   5.673   4.188 -0.0155 -0.1305 -0.1492
   69SAPC  H18X 5962   4.375   5.698   4.292 -2.7131 -2.3469  1.3205
   69SAPC  H18Y 5963   4.317   5.565   4.187  1.4064 -0.5213 -1.9614
   69SAPC  H18Z 5964   4.260   5.739   4.160  1.0498  2.7747  2.7935
   70SAPC     N 5965   0.082   5.714   2.169  0.2412 -0.2747  1.1660
   70SAPC   C12 5966   0.081   5.720   2.322 -0.1003 -0.0719 -0.0430
   70SAPC  H12A 5967   0.184   5.696   2.347 -0.3212  0.2695  1.2516
   70SAPC  H12B 5968   0.015   5.640   2.353  0.0292 -1.1081 -2.2447
   70SAPC   C13 5969  -0.060   5.723   2.117 -0.5548 -0.3332  0.2242
   70SAPC  H13A 5970  -0.066   5.754   2.013  0.4905  0.2575  0.3227
   70SAPC  H13B 5971  -0.122   5.638   2.141  0.5261 -0.5477  2.5061
   70SAPC  H13C 5972  -0.109   5.787   2.188 -2.7575 -1.3228 -0.2988
   70SAPC   C14 5973   0.173   5.820   2.108  0.1216 -0.8404 -0.0615
   70SAPC  H14A 5974   0.167   5.840   2.002  1.2100 -0.2824 -0.0231
   70SAPC  H14B 5975   0.148   5.914   2.155 -0.5069  0.0376 -2.0463
   70SAPC  H14C 5976   0.276   5.795   2.126  0.8156  2.7363  1.7837
   70SAPC   C15 5977   0.126   5.587   2.118 -0.1177  0.5367  0.1638
   70SAPC  H15A 5978   0.226   5.569   2.154 -0.2741  0.7520  0.7171
   70SAPC  H15B 5979   0.060   5.506   2.145  0.7227 -1.1738 -2.4620
   70SAPC  H15C 5980   0.139   5.579   2.011  2.3813 -0.7844  0.4981
   70SAPC   C11 5981   0.038   5.850   2.391 -0.3507 -0.9135 -0.5112
   70SAPC  H11A 5982   0.098   5.932   2.347 -0.6487 -0.0800  0.6020
   70SAPC  H11B 5983   0.069   5.855   2.497 -1.6985  0.5882 -0.1417
   70SAPC     P 5984  -0.213   5.784   2.442  0.1180  0.1415 -0.3379
   70SAPC   O13 5985  -0.340   5.805   2.377  0.1557 -0.0391  0.5879
   70SAPC   O14 5986  -0.172   5.644   2.453 -0.1206  0.7758 -0.9293
   70SAPC   O12 5987  -0.104   5.875   2.377 -0.1977 -0.7622 -0.2881
   70SAPC   O11 5988  -0.226   5.836   2.593 -0.0164 -0.1136  0.1386
   70SAPC    C1 5989  -0.203   5.972   2.621 -0.1637 -0.0054  0.6126
   70SAPC    HA 5990  -0.094   5.996   2.621 -0.5910  2.1413 -0.7136
   70SAPC    HB 5991  -0.248   6.031   2.539  4.5549 -0.2742 -2.5858
   70SAPC    C2 5992  -0.257   6.012   2.763 -0.1831  0.0590 -0.3481
   70SAPC    HS 5993  -0.234   6.120   2.773 -0.2746  0.1029 -0.5912
   70SAPC   O21 5994  -0.199   5.939   2.874  0.0049  0.1404  0.3368
   70SAPC   C21 5995  -0.092   5.991   2.931 -0.4528  0.8413  1.0018
   70SAPC   O22 5996  -0.054   6.103   2.919 -0.1572 -0.0691 -0.2300
   70SAPC   C22 5997  -0.031   5.871   3.009  0.0638 -0.1812  0.1084
   70SAPC   H2R 5998  -0.003   5.787   2.942 -0.8967  0.5127 -1.2130
   70SAPC   H2S 5999   0.063   5.899   3.062 -0.8197  2.3485  0.4803
   70SAPC    C3 6000  -0.409   5.989   2.783  0.4225  0.2321 -0.2817
   70SAPC    HX 6001  -0.435   5.897   2.727  0.7085 -1.0209  1.5566
   70SAPC    HY 6002  -0.448   6.077   2.727 -0.6183  1.5030  2.3065
   70SAPC   O31 6003  -0.468   5.992   2.922 -0.1891  0.7041  0.0498
   70SAPC   C31 6004  -0.486   5.870   2.970 -0.0386 -0.2569 -0.1774
   70SAPC   O32 6005  -0.465   5.766   2.909  0.8893 -0.6367  0.4335
   70SAPC   C32 6006  -0.535   5.882   3.116 -0.3049 -0.3992  0.2756
   70SAPC   H2X 6007  -0.597   5.974   3.106 -1.7765 -1.3771  0.2139
   70SAPC   H2Y 6008  -0.456   5.880   3.195  0.2967 -2.5249 -0.3266
   70SAPC   C23 6009  -0.122   5.814   3.117  0.1787 -0.2721 -0.3639
   70SAPC   H3R 6010  -0.220   5.780   3.077 -0.3989 -0.2463  0.9715
   70SAPC   H3S 6011  -0.136   5.892   3.196  0.4894 -1.8233  1.2725
   70SAPC   C24 6012  -0.062   5.701   3.198 -0.1846  0.1845 -0.5383
   70SAPC   H4R 6013   0.044   5.731   3.219  0.3623 -0.6819 -1.9660
   70SAPC   H4S 6014  -0.060   5.615   3.128 -0.6393  0.9489 -1.5157
   70SAPC   C25 6015  -0.124   5.653   3.322  0.3033 -1.5628 -0.1052
   70SAPC   H5R 6016  -0.191   5.567   3.316  1.4493 -2.4125 -1.1376
   70SAPC   C26 6017  -0.085   5.712   3.440  0.4403 -0.6793 -0.0820
   70SAPC   H6R 6018  -0.129   5.680   3.536 -1.0194 -2.1470 -1.1655
   70SAPC   C27 6019   0.015   5.817   3.473 -0.2089 -0.3052 -0.3453
   70SAPC   H7R 6020   0.067   5.862   3.386 -0.2248 -0.6834 -0.5541
   70SAPC   H7S 6021   0.094   5.770   3.535  1.0905 -0.2066 -1.8573
   70SAPC   C28 6022  -0.055   5.932   3.544 -0.7321  0.5221  0.3374
   70SAPC   H8R 6023  -0.116   5.991   3.474  0.8582 -0.2449 -1.7799
   70SAPC   C29 6024  -0.044   5.967   3.670 -0.2855 -0.7823  0.0622
   70SAPC   H9R 6025  -0.100   6.056   3.702  1.1015  0.5393 -0.9919
   70SAPC  C210 6026   0.028   5.906   3.781 -0.0440  0.0510 -0.3508
   70SAPC  H10R 6027   0.116   5.969   3.805 -0.8146  0.8167  0.5060
   70SAPC  H10S 6028   0.050   5.802   3.749  2.6030  1.1026 -2.3271
   70SAPC  C211 6029  -0.068   5.902   3.899 -0.7941 -0.5994 -1.2233
   70SAPC  H11R 6030  -0.121   5.805   3.901 -1.5556 -0.1873  0.8602
   70SAPC  C212 6031  -0.094   5.998   3.993 -0.0127  0.1721  0.7182
   70SAPC  H12R 6032  -0.176   5.969   4.060  0.6561 -2.1815  0.6105
   70SAPC  C213 6033  -0.031   6.132   4.015  0.5641  0.5914 -0.0316
   70SAPC  H13R 6034  -0.103   6.206   3.974 -1.8873 -1.4362  0.3929
   70SAPC  H13S 6035   0.061   6.129   3.952  0.4343 -0.0663 -0.2034
   70SAPC  C214 6036  -0.017   6.176   4.157  0.1244  0.1467 -0.0663
   70SAPC  H14R 6037  -0.108   6.219   4.201 -0.2317 -2.2589  1.7742
   70SAPC  C215 6038   0.094   6.170   4.227  0.3775 -0.1900 -0.0440
   70SAPC  H15R 6039   0.089   6.211   4.328  0.7438  0.7314 -0.3888
   70SAPC  C216 6040   0.228   6.118   4.181 -0.7499 -0.4903  0.0747
   70SAPC  H16R 6041   0.216   6.042   4.101  0.0712 -0.9349  0.3621
   70SAPC  H16S 6042   0.283   6.049   4.249 -0.5081 -0.7326 -0.3651
   70SAPC  C217 6043   0.337   6.217   4.151  0.4746  0.6842  0.4445
   70SAPC  H17R 6044   0.324   6.267   4.053  0.4051 -1.1559 -0.5445
   70SAPC  H17S 6045   0.431   6.160   4.134 -0.8434 -1.3286 -0.4770
   70SAPC  C218 6046   0.357   6.321   4.263  0.3767 -0.5363  0.5035
   70SAPC  H18R 6047   0.358   6.270   4.362 -1.4609 -1.2461  0.2074
   70SAPC  H18S 6048   0.263   6.379   4.250  0.0946 -1.3794 -1.6227
   70SAPC  C219 6049   0.481   6.413   4.232 -0.7105 -0.3277  0.3131
   70SAPC  H19R 6050   0.474   6.492   4.309  1.9993 -0.2947  0.6255
   70SAPC  H19S 6051   0.468   6.457   4.130  1.9719  2.7693  1.1451
   70SAPC  C220 6052   0.624   6.357   4.233  0.6232  0.4347 -0.0038
   70SAPC  H20R 6053   0.612   6.261   4.177 -1.0025  0.2025  0.6846
   70SAPC  H20S 6054   0.651   6.328   4.336  1.0184 -1.2827 -0.5587
   70SAPC  H20T 6055   0.695   6.427   4.183  0.4365  0.1513 -0.6828
   70SAPC   C33 6056  -0.643   5.785   3.157  0.1340 -0.2856  0.3656
   70SAPC   H3X 6057  -0.609   5.680   3.169 -0.0336 -0.3258  0.4933
   70SAPC   H3Y 6058  -0.722   5.769   3.080  1.7333  0.6701 -1.5615
   70SAPC   C34 6059  -0.708   5.839   3.289 -0.0871  0.1836  0.3666
   70SAPC   H4X 6060  -0.777   5.758   3.321  0.5539  0.4580  2.6836
   70SAPC   H4Y 6061  -0.764   5.933   3.274  0.5942  1.2594  3.7315
   70SAPC   C35 6062  -0.611   5.871   3.407 -0.4864 -0.3203 -0.1084
   70SAPC   H5X 6063  -0.554   5.964   3.387 -0.5138  0.0932  1.6117
   70SAPC   H5Y 6064  -0.541   5.785   3.416  0.1895  0.3116  0.9275
   70SAPC   C36 6065  -0.687   5.869   3.544 -0.3478 -0.3777  1.0892
   70SAPC   H6X 6066  -0.624   5.926   3.616  0.0650  1.1107 -0.3901
   70SAPC   H6Y 6067  -0.688   5.763   3.579  1.1164 -1.4767 -1.8359
   70SAPC   C37 6068  -0.825   5.931   3.545 -0.3011 -0.5479  0.4616
   70SAPC   H7X 6069  -0.813   6.038   3.519 -1.1983 -0.7345 -0.7904
   70SAPC   H7Y 6070  -0.891   5.882   3.470  0.5964  2.3906 -2.4782
   70SAPC   C38 6071  -0.894   5.912   3.678 -0.3388 -0.8309  0.1539
   70SAPC   H8X 6072  -0.884   5.807   3.716 -0.0419  0.2469  3.4124
   70SAPC   H8Y 6073  -1.000   5.942   3.672  0.1709  1.1588  0.3735
   70SAPC   C39 6074  -0.846   6.003   3.792  0.2397  0.0444  0.4630
   70SAPC   H9X 6075  -0.738   5.988   3.815  0.5428 -0.7194 -1.3016
   70SAPC   H9Y 6076  -0.898   5.981   3.887 -0.9226 -1.0266 -0.3781
   70SAPC  C310 6077  -0.875   6.153   3.762 -0.1007 -0.1546  0.5058
   70SAPC  H10X 6078  -0.978   6.170   3.725  0.5703  3.6808  0.0699
   70SAPC  H10Y 6079  -0.810   6.187   3.679  0.1148 -1.0965  0.2722
   70SAPC  C311 6080  -0.860   6.236   3.892  0.3824  0.0983  0.0569
   70SAPC  H11X 6081  -0.751   6.249   3.910  1.1146 -2.9669 -1.4378
   70SAPC  H11Y 6082  -0.897   6.167   3.971  1.2078 -0.4507 -0.0226
   70SAPC  C312 6083  -0.937   6.366   3.883 -0.2155  0.4677  0.3827
   70SAPC  H12X 6084  -1.044   6.347   3.906 -0.2242  1.6530  1.4202
   70SAPC  H12Y 6085  -0.917   6.406   3.781 -0.5970 -0.8823 -0.2401
   70SAPC  C313 6086  -0.882   6.472   3.989  0.1287  0.3673  0.0109
   70SAPC  H13X 6087  -0.820   6.425   4.069  1.3106 -1.1339 -1.6917
   70SAPC  H13Y 6088  -0.973   6.520   4.029 -0.6935  0.3602 -1.7836
   70SAPC  C314 6089  -0.792   6.582   3.921  0.0473  0.3670 -0.2035
   70SAPC  H14X 6090  -0.861   6.628   3.847  0.4738  0.5631 -0.4800
   70SAPC  H14Y 6091  -0.711   6.528   3.867  0.7838 -0.2717  1.4743
   70SAPC  C315 6092  -0.750   6.699   4.001 -0.4169 -0.1849  0.0086
   70SAPC  H15X 6093  -0.704   6.776   3.936 -1.3430 -0.9492 -1.5987
   70SAPC  H15Y 6094  -0.682   6.665   4.082 -0.9880  1.4446  1.2235
   70SAPC  C316 6095  -0.870   6.762   4.068 -0.1886  1.3012  0.0192
   70SAPC  H16X 6096  -0.928   6.706   4.144  0.8739  1.6674  1.1229
   70SAPC  H16Y 6097  -0.939   6.798   3.989 -0.9824  1.6434  0.8505
   70SAPC  C317 6098  -0.826   6.889   4.141  0.1153 -0.7550  0.2649
   70SAPC  H17X 6099  -0.912   6.954   4.169  1.0323  1.2515 -1.2801
   70SAPC  H17Y 6100  -0.757   6.932   4.065 -0.7380  0.3200  0.0601
   70SAPC  C318 6101  -0.754   6.863   4.279  0.2358 -0.1378 -0.1599
   70SAPC  H18X 6102  -0.685   6.775   4.281 -0.9636 -1.1034  0.1077
   70SAPC  H18Y 6103  -0.823   6.835   4.362 -0.1608 -0.5773 -0.6300
   70SAPC  H18Z 6104  -0.701   6.957   4.305 -0.9291  0.4683  0.0923
   71SAPC     N 6105   0.969   3.094   2.047 -0.2111 -0.5452 -0.0487
   71SAPC   C12 6106   0.911   3.193   2.145  0.3558 -0.0300  0.0392
   71SAPC  H12A 6107   0.976   3.272   2.178 -0.1206  0.8634 -1.0928
   71SAPC  H12B 6108   0.892   3.138   2.236 -0.1882  0.4565  0.2228
   71SAPC   C13 6109   0.888   2.970   2.030 -0.5476 -0.1501  0.4657
   71SAPC  H13A 6110   0.788   2.998   2.003 -0.8414 -0.9027  0.7537
   71SAPC  H13B 6111   0.929   2.913   1.947  2.2699  2.7489 -0.3342
   71SAPC  H13C 6112   0.892   2.909   2.119 -2.9851 -1.3220 -0.1506
   71SAPC   C14 6113   0.990   3.149   1.907 -0.0121 -0.2833  0.0852
   71SAPC  H14A 6114   1.016   3.067   1.841  0.9764  0.4321 -0.4524
   71SAPC  H14B 6115   0.897   3.187   1.868 -1.2918  1.4016  4.2148
   71SAPC  H14C 6116   1.064   3.228   1.904 -0.9841  0.6215 -0.2727
   71SAPC   C15 6117   1.111   3.048   2.089 -0.1311 -0.8653  0.1659
   71SAPC  H15A 6118   1.116   2.992   2.181 -1.4881 -1.9105 -0.3535
   71SAPC  H15B 6119   1.158   2.990   2.010  1.8454  0.2661  0.4407
   71SAPC  H15C 6120   1.168   3.137   2.113  0.8293 -1.6451  0.8539
   71SAPC   C11 6121   0.775   3.253   2.113  0.1307  0.5712  0.0002
   71SAPC  H11A 6122   0.784   3.296   2.011 -0.0534  2.3748  0.7094
   71SAPC  H11B 6123   0.768   3.345   2.175  0.6817 -0.6858  2.0354
   71SAPC     P 6124   0.545   3.169   2.052  0.0487 -0.0824 -0.0309
   71SAPC   O13 6125   0.520   3.303   2.003  0.2233 -0.8915 -0.2142
   71SAPC   O14 6126   0.546   3.058   1.953 -0.2874  0.9298  0.0682
   71SAPC   O12 6127   0.674   3.162   2.139 -0.4940  0.1331 -0.0389
   71SAPC   O11 6128   0.442   3.145   2.161 -0.0419  0.1344  0.2899
   71SAPC    C1 6129   0.456   3.020   2.246  1.1562 -0.1825  0.2579
   71SAPC    HA 6130   0.366   2.960   2.222  0.8915  0.3939 -0.2179
   71SAPC    HB 6131   0.541   2.955   2.217 -0.1146 -1.5156 -0.5809
   71SAPC    C2 6132   0.464   3.066   2.399  0.3981 -0.2987  0.1906
   71SAPC    HS 6133   0.468   2.977   2.464 -1.4984 -2.5811 -2.5846
   71SAPC   O21 6134   0.342   3.149   2.422 -0.1190 -0.4765  0.2006
   71SAPC   C21 6135   0.229   3.082   2.459 -0.1869  0.5613  0.1557
   71SAPC   O22 6136   0.230   2.960   2.470 -0.8760  0.1919  0.4096
   71SAPC   C22 6137   0.105   3.169   2.476 -0.5364 -0.0871 -0.1474
   71SAPC   H2R 6138   0.134   3.271   2.444 -0.6886  0.0055  0.0139
   71SAPC   H2S 6139   0.017   3.129   2.420  0.9939 -2.5057 -0.9868
   71SAPC    C3 6140   0.592   3.159   2.432  0.4866  0.0786  0.2317
   71SAPC    HX 6141   0.589   3.251   2.369 -0.8788 -0.3426 -0.3515
   71SAPC    HY 6142   0.689   3.106   2.416 -0.4710 -1.2819 -1.3792
   71SAPC   O31 6143   0.584   3.197   2.569  0.4212 -0.6471 -0.0920
   71SAPC   C31 6144   0.627   3.317   2.598  0.5424  0.8818 -0.7719
   71SAPC   O32 6145   0.667   3.403   2.523 -0.8424  0.0691 -0.4266
   71SAPC   C32 6146   0.609   3.337   2.752 -1.1689 -0.2479 -0.4002
   71SAPC   H2X 6147   0.654   3.250   2.805 -2.7824 -0.6236  0.3973
   71SAPC   H2Y 6148   0.500   3.326   2.767 -0.9466 -0.2492  1.4018
   71SAPC   C23 6149   0.064   3.177   2.625  0.0529  0.6738 -0.8509
   71SAPC   H3R 6150   0.015   3.080   2.652 -0.1197  1.0968  0.4075
   71SAPC   H3S 6151  -0.013   3.257   2.632  0.9525  1.3845  1.9306
   71SAPC   C24 6152   0.171   3.226   2.719 -0.1408  0.8533 -0.7332
   71SAPC   H4R 6153   0.232   3.307   2.675  1.3569  0.8812  1.2815
   71SAPC   H4S 6154   0.237   3.141   2.745 -1.4723 -0.4415 -1.4088
   71SAPC   C25 6155   0.113   3.270   2.852 -0.5150 -0.4055 -0.3036
   71SAPC   H5R 6156   0.095   3.379   2.848 -0.2029 -0.3972 -1.8608
   71SAPC   C26 6157   0.104   3.201   2.966  0.0356  0.4791  0.4789
   71SAPC   H6R 6158   0.062   3.254   3.053 -2.0395 -0.5947  0.1899
   71SAPC   C27 6159   0.122   3.049   2.967  0.0167 -0.0980 -0.5795
   71SAPC   H7R 6160   0.224   3.029   3.006  0.0984  1.5942  0.1644
   71SAPC   H7S 6161   0.123   2.997   2.869  0.7388 -2.8262  0.7815
   71SAPC   C28 6162   0.030   2.976   3.060  0.1162 -0.7065 -0.5529
   71SAPC   H8R 6163  -0.046   2.914   3.010 -0.6087 -2.0841  2.0654
   71SAPC   C29 6164   0.053   2.960   3.193 -0.3104  0.5857 -0.2317
   71SAPC   H9R 6165  -0.018   2.905   3.256 -0.0468 -0.0560 -0.4861
   71SAPC  C210 6166   0.163   3.028   3.277 -0.2983 -0.5137 -0.2841
   71SAPC  H10R 6167   0.227   3.091   3.211  1.0854 -0.8003  0.7373
   71SAPC  H10S 6168   0.224   2.949   3.323 -0.2218  0.7382  1.8930
   71SAPC  C211 6169   0.106   3.123   3.378  0.3145 -0.0745  0.2258
   71SAPC  H11R 6170   0.041   3.205   3.346  0.2347  0.2633  1.2228
   71SAPC  C212 6171   0.109   3.096   3.514  0.4152 -0.4218  0.7522
   71SAPC  H12R 6172   0.044   3.157   3.577 -1.8493  1.9058 -3.3834
   71SAPC  C213 6173   0.187   2.977   3.573  0.4122  0.0618 -0.2384
   71SAPC  H13R 6174   0.229   3.004   3.672 -0.7452  0.1501  0.2515
   71SAPC  H13S 6175   0.280   2.942   3.524  2.6211  1.4254  2.6735
   71SAPC  C214 6176   0.091   2.864   3.583 -0.1868 -0.5108 -0.3132
   71SAPC  H14R 6177   0.089   2.791   3.502  0.1661 -1.8895  0.8745
   71SAPC  C215 6178   0.009   2.840   3.689 -0.2050  0.1965 -0.0669
   71SAPC  H15R 6179  -0.047   2.746   3.679  0.9062 -0.5307  0.3202
   71SAPC  C216 6180   0.006   2.914   3.826 -0.3434  0.1597  0.0216
   71SAPC  H16R 6181  -0.089   2.896   3.880 -0.1963  0.9362  0.5519
   71SAPC  H16S 6182   0.008   3.021   3.798  0.7488  0.3383  0.7153
   71SAPC  C217 6183   0.117   2.878   3.931  0.7794 -0.1366  0.8651
   71SAPC  H17R 6184   0.212   2.891   3.877 -0.1976 -0.3140 -0.9583
   71SAPC  H17S 6185   0.113   2.770   3.956 -0.5214  0.3216  2.9780
   71SAPC  C218 6186   0.120   2.976   4.055  0.5482  0.2947  0.3550
   71SAPC  H18R 6187   0.208   2.947   4.116 -1.0558 -1.4409  1.9815
   71SAPC  H18S 6188   0.026   2.947   4.108 -0.3249  2.9986  0.4171
   71SAPC  C219 6189   0.128   3.128   4.035  0.0768  0.3734 -0.2543
   71SAPC  H19R 6190   0.144   3.164   4.139 -0.4741  0.9231 -0.3534
   71SAPC  H19S 6191   0.030   3.169   4.002  0.7499  3.6301  1.4035
   71SAPC  C220 6192   0.233   3.183   3.937  0.6589 -0.4543 -0.2268
   71SAPC  H20R 6193   0.236   3.293   3.949  0.8995 -0.4115 -0.6584
   71SAPC  H20S 6194   0.200   3.146   3.838 -0.0224 -2.0931  0.5681
   71SAPC  H20T 6195   0.336   3.143   3.951  0.7861 -0.7490 -1.8601
   71SAPC   C33 6196   0.664   3.471   2.806  0.2285 -0.7376 -0.3551
   71SAPC   H3X 6197   0.636   3.553   2.737 -0.0054 -1.1181 -0.7135
   71SAPC   H3Y 6198   0.773   3.477   2.828 -0.0945  0.6777  1.0445
   71SAPC   C34 6199   0.595   3.488   2.940 -0.3510 -0.6342 -0.2916
   71SAPC   H4X 6200   0.488   3.461   2.932 -1.0831  1.2135  2.2235
   71SAPC   H4Y 6201   0.596   3.593   2.976 -0.5003 -0.8879  0.4592
   71SAPC   C35 6202   0.665   3.397   3.045  0.8207  0.4731  0.1280
   71SAPC   H5X 6203   0.773   3.421   3.048  0.3104  3.1810 -0.4628
   71SAPC   H5Y 6204   0.667   3.289   3.022  1.8795  0.0505  2.0329
   71SAPC   C36 6205   0.601   3.419   3.184 -0.6869 -0.1939  0.5488
   71SAPC   H6X 6206   0.608   3.528   3.204  2.8019 -0.1871 -0.2065
   71SAPC   H6Y 6207   0.669   3.369   3.256 -1.9540  0.9861  2.6568
   71SAPC   C37 6208   0.458   3.361   3.211  0.9068  0.2262 -0.1025
   71SAPC   H7X 6209   0.458   3.250   3.214  1.7579  0.2009 -0.5862
   71SAPC   H7Y 6210   0.388   3.403   3.135 -0.2010  2.1949  1.8910
   71SAPC   C38 6211   0.389   3.409   3.341  0.1665  0.0840  0.2868
   71SAPC   H8X 6212   0.284   3.432   3.316  0.5772  1.7931 -0.0423
   71SAPC   H8Y 6213   0.433   3.509   3.362  1.6062 -0.5269  0.3269
   71SAPC   C39 6214   0.408   3.318   3.468  0.1955 -0.1538 -0.0469
   71SAPC   H9X 6215   0.517   3.298   3.474  0.6244  1.5411 -1.4260
   71SAPC   H9Y 6216   0.356   3.226   3.435  0.1021 -0.8797  1.9591
   71SAPC  C310 6217   0.339   3.365   3.598  0.0703  0.0679 -0.4252
   71SAPC  H10X 6218   0.353   3.283   3.672  4.2806  1.2557  0.3120
   71SAPC  H10Y 6219   0.228   3.368   3.584  0.1583 -1.7334 -1.8562
   71SAPC  C311 6220   0.414   3.493   3.659  0.4980 -0.1350 -0.0659
   71SAPC  H11X 6221   0.413   3.577   3.586 -1.5060 -0.2860 -0.2457
   71SAPC  H11Y 6222   0.520   3.459   3.660  0.4444 -0.3774  2.0377
   71SAPC  C312 6223   0.364   3.552   3.793 -0.1194 -0.2289  0.8652
   71SAPC  H12X 6224   0.426   3.642   3.810  1.9628 -0.3955 -4.2475
   71SAPC  H12Y 6225   0.383   3.487   3.881 -0.5832 -0.9435  0.4542
   71SAPC  C313 6226   0.213   3.582   3.794 -0.4811  0.1248 -0.5292
   71SAPC  H13X 6227   0.186   3.580   3.902 -1.0452 -0.6060 -0.6796
   71SAPC  H13Y 6228   0.159   3.492   3.757 -0.7079 -0.0491  0.2128
   71SAPC  C314 6229   0.166   3.705   3.714  0.0426 -0.3898  0.0524
   71SAPC  H14X 6230   0.056   3.691   3.713 -0.0156 -0.2139  1.7569
   71SAPC  H14Y 6231   0.206   3.686   3.611  0.7929 -1.2763  0.4876
   71SAPC  C315 6232   0.206   3.840   3.773 -0.0099 -1.0576  0.6063
   71SAPC  H15X 6233   0.317   3.831   3.779 -0.0896 -2.1490  0.6744
   71SAPC  H15Y 6234   0.162   3.846   3.875  1.5246 -0.5052  1.2673
   71SAPC  C316 6235   0.165   3.955   3.675  0.7710  0.1463  0.2071
   71SAPC  H16X 6236   0.057   3.954   3.650  0.9073 -0.8423 -0.4060
   71SAPC  H16Y 6237   0.224   3.956   3.580 -0.9373  3.9127 -0.9934
   71SAPC  C317 6238   0.191   4.093   3.737  0.9497  0.0329  0.2141
   71SAPC  H17X 6239   0.298   4.098   3.766  1.0573  0.0831 -0.1908
   71SAPC  H17Y 6240   0.138   4.090   3.835 -3.9111 -1.0032 -2.1351
   71SAPC  C318 6241   0.159   4.209   3.644  0.5338 -0.6701  0.7851
   71SAPC  H18X 6242   0.235   4.237   3.568 -0.5302 -1.1162 -0.4700
   71SAPC  H18Y 6243   0.149   4.302   3.704 -1.2981 -1.7997  2.3275
   71SAPC  H18Z 6244   0.064   4.193   3.588  1.9332 -2.1447 -1.2888
   72SAPC     N 6245   3.680   3.464   1.785  0.6027  0.1650 -0.2031
   72SAPC   C12 6246   3.815   3.430   1.847  0.1354  0.7985 -0.6508
   72SAPC  H12A 6247   3.850   3.333   1.815 -0.1792 -0.5455  2.6704
   72SAPC  H12B 6248   3.787   3.410   1.950  0.6929  0.4913 -0.5521
   72SAPC   C13 6249   3.576   3.367   1.808  0.1883 -0.6899 -0.3787
   72SAPC  H13A 6250   3.603   3.264   1.789 -0.3463 -0.9404  0.2211
   72SAPC  H13B 6251   3.550   3.380   1.911  1.6589  1.0915 -0.1625
   72SAPC  H13C 6252   3.486   3.379   1.750  0.4072 -2.9091 -1.2809
   72SAPC   C14 6253   3.618   3.593   1.841  0.7415  0.0473  0.0645
   72SAPC  H14A 6254   3.583   3.589   1.944 -2.3703 -1.7776 -0.9283
   72SAPC  H14B 6255   3.685   3.677   1.831 -0.3506  1.1070  1.2420
   72SAPC  H14C 6256   3.532   3.617   1.781  1.0981 -0.0618 -0.4969
   72SAPC   C15 6257   3.696   3.486   1.635 -0.2945  0.2756  0.2843
   72SAPC  H15A 6258   3.771   3.562   1.623 -2.4726  2.4239 -0.6239
   72SAPC  H15B 6259   3.724   3.393   1.588 -0.8921  0.3705 -0.2791
   72SAPC  H15C 6260   3.605   3.524   1.590 -0.3118  0.9315  0.8506
   72SAPC   C11 6261   3.927   3.538   1.863  0.6407  0.6452  0.1512
   72SAPC  H11A 6262   3.949   3.576   1.761  1.7550 -3.5213 -1.3667
   72SAPC  H11B 6263   4.015   3.487   1.905  0.9356  0.1130 -1.0542
   72SAPC     P 6264   3.956   3.780   1.976 -0.1185 -0.3492 -0.2084
   72SAPC   O13 6265   4.025   3.810   1.851  0.8880  0.3070  0.2256
   72SAPC   O14 6266   3.862   3.877   2.025  0.2556 -0.0858 -0.4664
   72SAPC   O12 6267   3.882   3.642   1.952 -0.6985 -0.4515  0.6947
   72SAPC   O11 6268   4.065   3.743   2.089  0.5315 -0.2785 -0.0522
   72SAPC    C1 6269   4.018   3.685   2.212  0.7421  1.0612  0.5582
   72SAPC    HA 6270   4.012   3.765   2.289  1.5124  0.0805  1.6801
   72SAPC    HB 6271   3.922   3.630   2.212  1.8096 -0.9851  2.6956
   72SAPC    C2 6272   4.117   3.575   2.265 -0.1655 -0.7333  0.4015
   72SAPC    HS 6273   4.125   3.502   2.181  1.3102  0.6631 -0.7059
   72SAPC   O21 6274   4.053   3.506   2.374  0.3627  0.2078  0.4800
   72SAPC   C21 6275   4.098   3.387   2.403  0.1652  0.2460  0.8430
   72SAPC   O22 6276   4.171   3.314   2.333  0.4796  0.0869  0.2807
   72SAPC   C22 6277   4.044   3.350   2.535  0.0555  0.8116  0.0112
   72SAPC   H2R 6278   4.113   3.406   2.601  1.2377  0.3191 -0.7781
   72SAPC   H2S 6279   3.943   3.388   2.564 -0.6201 -0.6519 -0.3047
   72SAPC    C3 6280   4.259   3.619   2.294 -0.1978 -0.4849  0.2563
   72SAPC    HX 6281   4.293   3.663   2.199 -1.5408 -1.6651 -0.8355
   72SAPC    HY 6282   4.328   3.535   2.317  1.2756  0.7615  0.5032
   72SAPC   O31 6283   4.269   3.717   2.397  0.1701 -0.5469 -0.2014
   72SAPC   C31 6284   4.287   3.679   2.520 -0.8981 -0.1391 -0.1108
   72SAPC   O32 6285   4.306   3.564   2.561  0.0193  0.3105  0.3584
   72SAPC   C32 6286   4.285   3.815   2.605  0.3107 -1.0190  0.3368
   72SAPC   H2X 6287   4.216   3.888   2.557  0.7669 -1.7151 -1.4337
   72SAPC   H2Y 6288   4.388   3.855   2.601 -0.7350  1.9081 -2.2055
   72SAPC   C23 6289   4.055   3.196   2.551  0.3161 -1.0195  0.4683
   72SAPC   H3R 6290   4.155   3.155   2.576  0.0221 -0.7525  2.2257
   72SAPC   H3S 6291   4.013   3.137   2.467 -0.9942  0.1499  0.2590
   72SAPC   C24 6292   3.971   3.159   2.678 -0.7453  0.0788  0.3362
   72SAPC   H4R 6293   4.020   3.219   2.758  1.4515  2.0819 -2.2808
   72SAPC   H4S 6294   3.993   3.051   2.689  3.1503  0.7180  0.3545
   72SAPC   C25 6295   3.826   3.187   2.664 -0.0851  0.4026 -0.4864
   72SAPC   H5R 6296   3.784   3.154   2.568 -2.1412  0.5273  0.3125
   72SAPC   C26 6297   3.751   3.252   2.758  0.3415 -0.6594  0.7238
   72SAPC   H6R 6298   3.641   3.247   2.749  0.4359 -2.6018  0.3773
   72SAPC   C27 6299   3.798   3.314   2.879  0.1439 -0.3058  0.7700
   72SAPC   H7R 6300   3.731   3.401   2.899 -1.4905 -1.8857  2.5600
   72SAPC   H7S 6301   3.896   3.362   2.859  0.0778 -0.6024 -0.2992
   72SAPC   C28 6302   3.827   3.239   3.005  0.4179 -0.8040 -0.9763
   72SAPC   H8R 6303   3.860   3.135   2.997 -1.4906 -1.6147  0.6680
   72SAPC   C29 6304   3.808   3.289   3.127 -0.1451 -0.7296 -0.7152
   72SAPC   H9R 6305   3.841   3.226   3.211  1.5921 -2.2647 -2.4643
   72SAPC  C210 6306   3.756   3.432   3.165 -0.1143  0.4796 -0.3409
   72SAPC  H10R 6307   3.690   3.472   3.085  0.5615 -2.7771 -2.7385
   72SAPC  H10S 6308   3.840   3.505   3.158  1.6806 -1.5599 -1.6386
   72SAPC  C211 6309   3.690   3.440   3.295 -0.7679  0.1720  0.4742
   72SAPC  H11R 6310   3.587   3.401   3.299 -0.8724  0.5197  2.7323
   72SAPC  C212 6311   3.735   3.495   3.407 -0.1574 -0.0873  0.5254
   72SAPC  H12R 6312   3.669   3.482   3.494  0.6934 -1.1377  1.0315
   72SAPC  C213 6313   3.865   3.571   3.432 -0.7923 -0.4291  0.0411
   72SAPC  H13R 6314   3.836   3.666   3.481 -2.0120  1.3663 -3.7687
   72SAPC  H13S 6315   3.906   3.597   3.332  0.7522  1.9518  1.2141
   72SAPC  C214 6316   3.964   3.483   3.510  0.3576  0.1034 -0.0281
   72SAPC  H14R 6317   4.008   3.400   3.453  3.5284  1.8563 -0.4157
   72SAPC  C215 6318   4.000   3.503   3.637  0.8980 -0.2674  0.4473
   72SAPC  H15R 6319   4.077   3.432   3.672 -1.1340 -2.0085  1.6410
   72SAPC  C216 6320   3.940   3.608   3.722 -0.4932 -0.5493 -0.3415
   72SAPC  H16R 6321   3.932   3.707   3.671  1.6031  0.8881  1.8836
   72SAPC  H16S 6322   4.012   3.642   3.800 -0.2295  4.2418 -2.3247
   72SAPC  C217 6323   3.815   3.562   3.789  0.8601  0.8257 -0.0510
   72SAPC  H17R 6324   3.826   3.462   3.835  0.0748  0.3855 -0.7884
   72SAPC  H17S 6325   3.732   3.569   3.715  0.4830 -0.4089  0.2376
   72SAPC  C218 6326   3.780   3.648   3.913 -0.4092  0.0722  0.1495
   72SAPC  H18R 6327   3.765   3.754   3.885  1.3700  0.1482 -0.6318
   72SAPC  H18S 6328   3.864   3.649   3.986 -2.1058  1.5615  2.1851
   72SAPC  C219 6329   3.655   3.602   3.992 -0.3845  0.6511  0.0128
   72SAPC  H19R 6330   3.566   3.588   3.927 -0.6756  3.1005 -0.2217
   72SAPC  H19S 6331   3.629   3.682   4.065 -0.3575  0.2589  0.4538
   72SAPC  C220 6332   3.671   3.468   4.064 -0.2844 -0.1924 -0.2879
   72SAPC  H20R 6333   3.701   3.490   4.168 -2.7035 -1.7397  0.8410
   72SAPC  H20S 6334   3.742   3.401   4.012  1.7850  2.1677 -0.6483
   72SAPC  H20T 6335   3.572   3.419   4.077 -0.7968  0.6146 -1.0361
   72SAPC   C33 6336   4.247   3.794   2.752 -0.6418  0.3206  0.0089
   72SAPC   H3X 6337   4.255   3.888   2.810 -1.6784  0.9102 -0.7637
   72SAPC   H3Y 6338   4.315   3.715   2.789 -0.9056 -1.3024 -2.6796
   72SAPC   C34 6339   4.108   3.732   2.772 -0.4259 -0.3060  0.1926
   72SAPC   H4X 6340   4.114   3.625   2.741  1.3147  0.5073 -2.6540
   72SAPC   H4Y 6341   4.040   3.787   2.703  2.2290  0.7675 -1.7394
   72SAPC   C35 6342   4.060   3.740   2.918 -0.3488 -0.2940  0.5339
   72SAPC   H5X 6343   4.097   3.651   2.975  1.3210  1.6739  2.7734
   72SAPC   H5Y 6344   3.951   3.720   2.915 -0.5986  0.9218  0.7505
   72SAPC   C36 6345   4.104   3.857   3.006  0.0026 -0.6683 -0.5513
   72SAPC   H6X 6346   4.075   3.955   2.962  2.2283  2.7468  4.5670
   72SAPC   H6Y 6347   4.215   3.857   3.005  0.0028 -0.2566 -0.5849
   72SAPC   C37 6348   4.039   3.855   3.145 -0.5721 -0.2014 -0.5873
   72SAPC   H7X 6349   4.041   3.750   3.180 -1.2775  0.1599  0.5926
   72SAPC   H7Y 6350   3.929   3.868   3.131 -0.8856  0.3643  1.9745
   72SAPC   C38 6351   4.097   3.947   3.259 -0.4219 -0.5575  0.4618
   72SAPC   H8X 6352   4.084   4.053   3.228  1.9321 -0.6100 -0.9029
   72SAPC   H8Y 6353   4.206   3.929   3.259 -0.3282 -0.0022  0.9592
   72SAPC   C39 6354   4.030   3.924   3.394  0.4306  0.8900 -0.3323
   72SAPC   H9X 6355   4.026   3.814   3.410  0.0604  1.1746  1.7851
   72SAPC   H9Y 6356   3.923   3.953   3.396  0.2090  0.0626  0.0690
   72SAPC  C310 6357   4.107   3.993   3.505  0.3913  0.1253  0.2193
   72SAPC  H10X 6358   4.067   4.097   3.512 -3.7113 -1.3189  0.7204
   72SAPC  H10Y 6359   4.217   3.998   3.487  0.2520  0.3215 -0.6202
   72SAPC  C311 6360   4.069   3.934   3.637  0.2312 -0.3602 -0.1346
   72SAPC  H11X 6361   4.114   3.836   3.663 -1.4473 -0.9546  0.6765
   72SAPC  H11Y 6362   3.959   3.919   3.628 -0.3401  3.2464 -0.7892
   72SAPC  C312 6363   4.111   4.034   3.754  0.5994  0.4002  0.1301
   72SAPC  H12X 6364   4.031   4.110   3.745 -1.6549 -1.7118  0.8848
   72SAPC  H12Y 6365   4.207   4.074   3.717  1.0820  0.1019  1.0158
   72SAPC  C313 6366   4.130   3.975   3.892  0.6616 -0.2793  0.3301
   72SAPC  H13X 6367   4.187   4.049   3.953  0.2032  0.8304 -0.5495
   72SAPC  H13Y 6368   4.185   3.880   3.876  1.0525  0.2623 -1.8988
   72SAPC  C314 6369   3.998   3.952   3.959  0.4217  0.2840 -0.2578
   72SAPC  H14X 6370   4.010   3.890   4.050 -1.0659 -1.6030 -1.2785
   72SAPC  H14Y 6371   3.940   3.887   3.890  0.6395 -1.4912  1.1383
   72SAPC  C315 6372   3.913   4.072   3.981 -0.2167 -0.6872 -0.4682
   72SAPC  H15X 6373   3.900   4.139   3.894  0.3528  1.8130  1.2496
   72SAPC  H15Y 6374   3.959   4.140   4.057 -2.2206 -0.0849  0.2700
   72SAPC  C316 6375   3.768   4.026   4.024 -0.8923 -0.6424 -0.3616
   72SAPC  H16X 6376   3.760   3.934   4.086  0.8530 -1.0260 -0.6533
   72SAPC  H16Y 6377   3.701   4.022   3.935 -0.3175 -1.5145 -0.7652
   72SAPC  C317 6378   3.707   4.139   4.118  0.1083 -0.1594 -0.6494
   72SAPC  H17X 6379   3.601   4.113   4.137  0.6901 -1.0966  1.5729
   72SAPC  H17Y 6380   3.718   4.233   4.060  0.1311  2.8049  3.6668
   72SAPC  C318 6381   3.775   4.170   4.251  0.1992  0.3476  0.3227
   72SAPC  H18X 6382   3.790   4.086   4.323 -0.7700 -0.8872 -0.8711
   72SAPC  H18Y 6383   3.731   4.253   4.310 -2.0479 -1.0386  0.7559
   72SAPC  H18Z 6384   3.882   4.198   4.242  0.4531 -1.0220 -1.4465
   73SLPC     N 6385   0.568   3.925   6.552  0.3029 -0.6717  1.3241
   73SLPC   C13 6386   0.608   4.035   6.641 -0.2801  0.6108 -0.5506
   73SLPC  H13A 6387   0.699   4.011   6.695 -0.3562 -0.2424 -0.7850
   73SLPC  H13B 6388   0.619   4.129   6.588  1.3166  1.3041  0.9184
   73SLPC  H13C 6389   0.527   4.053   6.709  0.9664  1.9442  0.6618
   73SLPC   C14 6390   0.489   3.985   6.436 -0.0441 -0.2377 -0.5313
   73SLPC  H14A 6391   0.435   3.913   6.376  1.6945 -1.8083 -0.3308
   73SLPC  H14B 6392   0.412   4.048   6.477  1.5670  0.7439  1.0869
   73SLPC  H14C 6393   0.542   4.055   6.374  0.5342 -0.0825  0.1250
   73SLPC   C15 6394   0.488   3.829   6.634 -0.2415 -0.1387  0.1483
   73SLPC  H15A 6395   0.449   3.754   6.567  1.8343 -0.4702 -0.7935
   73SLPC  H15B 6396   0.556   3.775   6.698 -0.9041 -0.7522  0.3429
   73SLPC  H15C 6397   0.406   3.868   6.692  0.7616  2.3840  0.0205
   73SLPC   C12 6398   0.694   3.855   6.502  0.2857  0.0769  0.4282
   73SLPC  H12A 6399   0.755   3.932   6.457  0.1946 -0.3724 -0.4893
   73SLPC  H12B 6400   0.656   3.797   6.419 -2.4768  0.9958  0.9694
   73SLPC   C11 6401   0.774   3.783   6.601 -0.1249 -0.2933  0.2466
   73SLPC  H11A 6402   0.719   3.688   6.620  1.6150 -2.2981 -3.6092
   73SLPC  H11B 6403   0.796   3.829   6.700  0.8720  1.2954 -0.6668
   73SLPC     P 6404   1.023   3.810   6.514  0.2232  0.0006 -0.1580
   73SLPC   O13 6405   1.024   3.919   6.613  0.2911 -0.0924 -0.3188
   73SLPC   O14 6406   1.133   3.709   6.502 -0.0300 -0.1504  0.0838
   73SLPC   O12 6407   0.894   3.734   6.545  0.1766  0.1718 -0.4234
   73SLPC   O11 6408   0.989   3.873   6.371  0.4634 -0.1445 -0.1873
   73SLPC    C1 6409   0.937   3.780   6.280 -0.7133  0.4921  0.0172
   73SLPC    HA 6410   1.010   3.699   6.259 -2.2301 -0.8539 -0.2952
   73SLPC    HB 6411   0.850   3.729   6.327  1.0612  0.3146  3.4342
   73SLPC    C2 6412   0.897   3.850   6.149 -0.4762  0.1774 -0.4810
   73SLPC    HS 6413   0.993   3.888   6.109 -0.7852  1.4495 -0.0744
   73SLPC   O21 6414   0.813   3.959   6.172  0.3577 -0.1872 -0.0631
   73SLPC   C21 6415   0.831   4.067   6.104 -1.0861  0.2693 -0.1329
   73SLPC   O22 6416   0.930   4.095   6.041 -1.2038  0.3783  0.1865
   73SLPC   C22 6417   0.705   4.154   6.107  0.5970 -0.1741 -0.1919
   73SLPC   H2R 6418   0.623   4.079   6.099  0.6713 -0.5173  1.8475
   73SLPC   H2S 6419   0.701   4.198   6.209 -1.3324 -1.1091  0.1674
   73SLPC    C3 6420   0.838   3.747   6.046 -0.5210 -0.0269 -0.3369
   73SLPC    HX 6421   0.734   3.730   6.081 -1.1105  0.4001 -1.8226
   73SLPC    HY 6422   0.897   3.653   6.044  0.4303  0.5558 -0.4696
   73SLPC   O31 6423   0.830   3.801   5.911  0.2803 -0.1011  0.2097
   73SLPC   C31 6424   0.949   3.810   5.851 -0.2490  0.1438  0.4449
   73SLPC   O32 6425   1.051   3.745   5.872 -0.4439  0.0552 -0.4458
   73SLPC   C32 6426   0.933   3.894   5.723 -0.3153 -0.3343 -0.4631
   73SLPC   H2X 6427   0.989   3.987   5.746  0.2501 -0.7764 -0.0261
   73SLPC   H2Y 6428   0.826   3.917   5.702 -0.6881  0.0951  1.6647
   73SLPC   C23 6429   0.665   4.246   5.994  0.1237 -0.1966  0.6168
   73SLPC   H3R 6430   0.726   4.339   5.997 -1.8904  1.4416 -2.9889
   73SLPC   H3S 6431   0.557   4.270   6.009  0.7418  1.5094  2.9979
   73SLPC   C24 6432   0.685   4.179   5.853 -0.0670 -0.7671 -0.1805
   73SLPC   H4R 6433   0.647   4.075   5.853 -0.5325 -0.5994 -0.4582
   73SLPC   H4S 6434   0.795   4.178   5.837 -0.3924 -1.2351 -2.8020
   73SLPC   C25 6435   0.627   4.256   5.733  0.0768 -0.0231  0.5402
   73SLPC   H5R 6436   0.651   4.364   5.723 -1.5514  0.2874 -0.4734
   73SLPC   H5S 6437   0.516   4.255   5.748 -0.0925  0.6828 -0.5524
   73SLPC   C26 6438   0.654   4.194   5.594  0.2336  0.7521  0.1352
   73SLPC   H6R 6439   0.668   4.085   5.606 -1.5309  0.6803  2.0923
   73SLPC   H6S 6440   0.754   4.236   5.572  0.8939 -0.8690 -0.0444
   73SLPC   C27 6441   0.545   4.223   5.494 -0.4665 -0.5613  0.7338
   73SLPC   H7R 6442   0.499   4.324   5.504 -2.3013 -1.2812  0.1430
   73SLPC   H7S 6443   0.454   4.161   5.512  0.0149 -1.5969 -0.2446
   73SLPC   C28 6444   0.606   4.202   5.350  0.8637 -0.6001 -0.8541
   73SLPC   H8R 6445   0.618   4.094   5.326 -0.3001 -0.2718 -3.2643
   73SLPC   H8S 6446   0.706   4.249   5.339  0.7529  0.3922  1.7196
   73SLPC   C29 6447   0.507   4.257   5.251  0.3105 -0.0946  0.6127
   73SLPC   H9R 6448   0.518   4.365   5.230  1.2377 -0.1786  0.6138
   73SLPC  C210 6449   0.393   4.200   5.200 -0.0412  0.5939 -0.0697
   73SLPC  H10R 6450   0.340   4.250   5.118 -2.2114  2.2292  2.2116
   73SLPC  C211 6451   0.362   4.055   5.226 -0.0743  0.1987 -0.1292
   73SLPC  H11R 6452   0.357   4.034   5.335 -0.0587 -0.2205 -0.2077
   73SLPC  H11S 6453   0.453   4.002   5.192  1.6108  3.2332 -0.6998
   73SLPC  C212 6454   0.233   4.011   5.159 -0.2444 -0.1883 -0.1835
   73SLPC  H12R 6455   0.238   4.014   5.050  3.3448  0.3403 -0.1238
   73SLPC  C213 6456   0.122   3.978   5.224  0.1166  0.5691  0.8088
   73SLPC  H13R 6457   0.031   3.948   5.170  0.3666  0.8845  0.2005
   73SLPC  C214 6458   0.104   3.965   5.372 -0.1083  0.7714  0.5146
   73SLPC  H14R 6459   0.204   3.956   5.420  0.5524  1.2640 -0.7278
   73SLPC  H14S 6460   0.049   3.872   5.399  3.9021 -2.1759 -0.4952
   73SLPC  C215 6461   0.039   4.092   5.431  0.0741  0.1923 -0.4812
   73SLPC  H15R 6462  -0.068   4.112   5.412 -0.4207 -1.7710  0.0208
   73SLPC  H15S 6463   0.085   4.182   5.386 -0.4304 -0.1111 -1.6237
   73SLPC  C216 6464   0.051   4.098   5.581  0.0943  0.3805 -0.3619
   73SLPC  H16R 6465   0.157   4.071   5.599 -0.6434 -2.2208  0.5731
   73SLPC  H16S 6466  -0.016   4.016   5.613  1.6203 -1.3629 -1.4189
   73SLPC  C217 6467   0.023   4.228   5.655  0.0079 -0.0362 -0.9479
   73SLPC  H17R 6468  -0.086   4.248   5.659  0.1646  0.6382  1.4431
   73SLPC  H17S 6469   0.070   4.318   5.611  0.9798 -0.0898 -0.0586
   73SLPC  C218 6470   0.071   4.227   5.808  0.3407 -0.9650 -0.5485
   73SLPC  H18R 6471   0.181   4.237   5.821  0.0227 -0.2156  2.2592
   73SLPC  H18S 6472   0.029   4.133   5.849  0.2946 -1.0682 -0.8285
   73SLPC  H18T 6473   0.019   4.311   5.859  0.8069 -0.5840 -0.7018
   73SLPC   C33 6474   1.000   3.831   5.601  0.1570 -0.0426 -0.6416
   73SLPC   H3X 6475   0.967   3.725   5.597 -1.4205  0.4598 -1.5273
   73SLPC   H3Y 6476   1.111   3.827   5.612 -0.0248 -0.4456  1.1830
   73SLPC   C34 6477   0.967   3.887   5.464  0.3302  0.1716 -0.4203
   73SLPC   H4X 6478   0.861   3.869   5.436  0.6822 -0.0257 -1.6767
   73SLPC   H4Y 6479   1.030   3.825   5.397 -1.2752 -0.3261 -1.5439
   73SLPC   C35 6480   0.991   4.034   5.444 -0.0348  0.2036  0.2482
   73SLPC   H5X 6481   1.092   4.060   5.483  1.0491 -0.7008 -1.8332
   73SLPC   H5Y 6482   0.922   4.096   5.505 -0.9203  1.6872 -2.1218
   73SLPC   C36 6483   0.975   4.088   5.299  0.5934 -0.4121 -0.1688
   73SLPC   H6X 6484   0.872   4.073   5.262  0.5364 -0.5291  0.0308
   73SLPC   H6Y 6485   1.057   4.031   5.249  0.7671 -0.5298  0.2407
   73SLPC   C37 6486   1.008   4.233   5.277  0.2161  0.2967  0.2055
   73SLPC   H7X 6487   1.117   4.253   5.269  0.8414 -2.4272  0.9957
   73SLPC   H7Y 6488   0.970   4.277   5.371  0.6407  0.7332  0.1782
   73SLPC   C38 6489   0.948   4.303   5.150 -0.6364  0.1733 -0.0238
   73SLPC   H8X 6490   0.837   4.301   5.142 -0.6706  1.3578  0.0864
   73SLPC   H8Y 6491   0.997   4.263   5.058  1.0586  0.7975  0.5703
   73SLPC   C39 6492   0.977   4.459   5.155  0.4157 -0.0322  0.0835
   73SLPC   H9X 6493   1.084   4.467   5.183  0.4040  1.4840 -0.1957
   73SLPC   H9Y 6494   0.908   4.498   5.233 -1.2739 -1.1383 -0.7874
   73SLPC  C310 6495   0.951   4.533   5.015  0.1368  0.5809  0.1462
   73SLPC  H10X 6496   1.005   4.629   5.032  0.5723  0.5573 -1.0540
   73SLPC  H10Y 6497   0.845   4.563   5.008  0.3037  0.7802 -2.3268
   73SLPC  C311 6498   1.014   4.475   4.883  1.2364  0.2879 -0.6136
   73SLPC  H11X 6499   1.003   4.364   4.879  1.3605 -0.2360  5.1060
   73SLPC  H11Y 6500   1.120   4.509   4.885  0.9231  1.3229  1.6161
   73SLPC  C312 6501   0.947   4.539   4.753  0.2172  0.6316 -0.2582
   73SLPC  H12X 6502   0.949   4.648   4.774  0.1155  0.4296  0.8502
   73SLPC  H12Y 6503   0.844   4.502   4.736  1.7753 -4.6654  0.1030
   73SLPC  C313 6504   1.013   4.495   4.626 -0.2802  0.6633 -0.2719
   73SLPC  H13X 6505   0.996   4.385   4.619  2.4356  0.1998 -0.7622
   73SLPC  H13Y 6506   1.123   4.502   4.639 -0.3464  3.5140 -0.5568
   73SLPC  C314 6507   0.950   4.552   4.497 -0.2820  0.6728  0.0483
   73SLPC  H14X 6508   0.965   4.663   4.499  0.2066  0.6081  2.3534
   73SLPC  H14Y 6509   0.840   4.537   4.491 -0.2815  0.7218 -0.0818
   73SLPC  C315 6510   1.018   4.500   4.369 -0.0343 -0.0780 -0.3255
   73SLPC  H15X 6511   1.009   4.389   4.365  2.0505 -0.2667 -0.5645
   73SLPC  H15Y 6512   1.125   4.526   4.376 -0.7974  2.8663  3.3594
   73SLPC  C316 6513   0.966   4.566   4.239  0.5171 -0.7072  0.3239
   73SLPC  H16X 6514   0.998   4.673   4.237  0.8303 -0.7557  1.6842
   73SLPC  H16Y 6515   0.856   4.562   4.248  0.5659 -1.7499  0.6098
   73SLPC  C317 6516   1.006   4.498   4.109  0.1385  0.3689 -0.1488
   73SLPC  H17X 6517   1.114   4.520   4.119  0.1245  0.5479 -0.3879
   73SLPC  H17Y 6518   0.956   4.545   4.022 -0.7822 -1.0018 -0.3983
   73SLPC  C318 6519   1.002   4.345   4.095 -0.6645  0.3231  0.5319
   73SLPC  H18X 6520   1.087   4.291   4.142 -1.4875 -0.9868  0.5536
   73SLPC  H18Y 6521   1.016   4.310   3.990  1.9528 -0.6575  1.1074
   73SLPC  H18Z 6522   0.910   4.302   4.139 -2.0586  0.6856 -1.8788
   74SLPC     N 6523   3.365   4.862   6.792 -0.5488  1.0378 -0.3616
   74SLPC   C13 6524   3.461   4.748   6.797 -0.5564 -0.1593 -0.1048
   74SLPC  H13A 6525   3.560   4.779   6.769 -0.1855 -1.7820 -0.6517
   74SLPC  H13B 6526   3.465   4.708   6.898  0.4785  0.1722 -0.0043
   74SLPC  H13C 6527   3.427   4.668   6.734 -0.6684  0.7119 -1.1706
   74SLPC   C14 6528   3.238   4.805   6.840 -0.3360 -0.5590  0.7727
   74SLPC  H14A 6529   3.255   4.767   6.940 -0.4666 -0.1748  0.9444
   74SLPC  H14B 6530   3.156   4.875   6.851  0.3581  0.2907  0.6744
   74SLPC  H14C 6531   3.203   4.727   6.774 -0.4469 -0.7673  1.0754
   74SLPC   C15 6532   3.350   4.928   6.659 -0.1708  0.6388  0.7182
   74SLPC  H15A 6533   3.314   4.858   6.584 -5.1557  3.0591  0.4453
   74SLPC  H15B 6534   3.275   5.005   6.660  0.2625  1.1564 -1.5492
   74SLPC  H15C 6535   3.441   4.980   6.632 -0.7203  0.6472 -1.3244
   74SLPC   C12 6536   3.414   4.971   6.893  0.1794 -0.2255 -0.3673
   74SLPC  H12A 6537   3.409   4.937   6.996 -0.5210 -0.8420 -0.5962
   74SLPC  H12B 6538   3.351   5.058   6.881  1.1564  0.2948 -1.9330
   74SLPC   C11 6539   3.559   5.033   6.865 -0.2472 -0.6742  0.4730
   74SLPC  H11A 6540   3.631   4.952   6.886 -1.3298 -1.8521 -0.1857
   74SLPC  H11B 6541   3.583   5.119   6.931  1.0185  0.3633 -1.2447
   74SLPC     P 6542   3.720   5.104   6.666  0.0206  0.3448  0.1384
   74SLPC   O13 6543   3.806   5.206   6.741  0.5469  0.2267 -0.0241
   74SLPC   O14 6544   3.783   4.972   6.649 -0.2983  0.0559  0.1947
   74SLPC   O12 6545   3.577   5.088   6.729  0.1343 -0.4233  0.2487
   74SLPC   O11 6546   3.686   5.168   6.530 -0.4258 -0.1074  0.0716
   74SLPC    C1 6547   3.558   5.177   6.469 -0.1075  0.4431 -0.3173
   74SLPC    HA 6548   3.471   5.195   6.536 -1.9313 -0.7446 -2.2531
   74SLPC    HB 6549   3.560   5.256   6.392 -0.2338  0.4631 -0.3010
   74SLPC    C2 6550   3.530   5.051   6.388  0.7284  0.3596 -0.2880
   74SLPC    HS 6551   3.509   4.966   6.456  1.1092 -0.3754 -1.0585
   74SLPC   O21 6552   3.641   5.024   6.294 -0.4152 -0.5198 -0.2114
   74SLPC   C21 6553   3.669   4.893   6.294  0.0572 -0.4772 -0.4726
   74SLPC   O22 6554   3.599   4.809   6.350 -0.0673 -0.2968  0.7093
   74SLPC   C22 6555   3.801   4.864   6.218 -0.0741  0.4031 -0.3826
   74SLPC   H2R 6556   3.865   4.954   6.206  2.6255 -1.5614 -2.2005
   74SLPC   H2S 6557   3.866   4.808   6.289 -2.2177 -0.7391  0.7812
   74SLPC    C3 6558   3.390   5.069   6.312 -0.5460 -0.3760  0.0619
   74SLPC    HX 6559   3.403   5.160   6.249 -2.0886  0.7640  1.3137
   74SLPC    HY 6560   3.306   5.092   6.380 -1.4215  0.1302 -1.1408
   74SLPC   O31 6561   3.369   4.956   6.230 -0.1137 -0.2054  0.4099
   74SLPC   C31 6562   3.276   4.870   6.263  0.1593 -0.0961  0.1888
   74SLPC   O32 6563   3.193   4.884   6.352  0.4449 -0.4082  0.2386
   74SLPC   C32 6564   3.265   4.749   6.160  0.0755 -0.0025 -0.0987
   74SLPC   H2X 6565   3.182   4.688   6.202  0.7068 -1.3812 -0.8024
   74SLPC   H2Y 6566   3.356   4.688   6.174 -1.2119 -2.5027 -1.9529
   74SLPC   C23 6567   3.782   4.783   6.091  0.2752  0.2690 -0.2493
   74SLPC   H3R 6568   3.700   4.710   6.109  1.5414 -0.7757  1.5457
   74SLPC   H3S 6569   3.871   4.721   6.066  1.7250  1.0479  2.6620
   74SLPC   C24 6570   3.727   4.862   5.974 -0.4467  1.1251 -0.0028
   74SLPC   H4R 6571   3.807   4.937   5.958  1.9314 -1.2555 -0.1957
   74SLPC   H4S 6572   3.624   4.901   5.987 -1.7082 -1.6449 -0.7933
   74SLPC   C25 6573   3.714   4.761   5.853  0.1766  0.0143 -0.2538
   74SLPC   H5R 6574   3.612   4.718   5.855  0.1568  0.0107  2.2284
   74SLPC   H5S 6575   3.792   4.683   5.866  0.0379  0.2860  3.5318
   74SLPC   C26 6576   3.731   4.820   5.712 -0.4165  0.1250 -0.2217
   74SLPC   H6R 6577   3.840   4.834   5.692 -0.2641  0.7073  0.9085
   74SLPC   H6S 6578   3.696   4.925   5.714  1.4004  0.7703  1.7770
   74SLPC   C27 6579   3.670   4.740   5.595 -0.4979  0.3849  0.4510
   74SLPC   H7R 6580   3.564   4.720   5.623 -0.7064 -0.8635 -1.1152
   74SLPC   H7S 6581   3.716   4.639   5.590 -2.7603 -0.6829  0.0303
   74SLPC   C28 6582   3.674   4.807   5.457 -0.2659  0.9870  0.8328
   74SLPC   H8R 6583   3.654   4.727   5.383  2.1502  0.8789  0.2096
   74SLPC   H8S 6584   3.777   4.840   5.432  0.6230 -0.6247  2.2363
   74SLPC   C29 6585   3.570   4.913   5.439  0.3537 -0.3336  0.3996
   74SLPC   H9R 6586   3.502   4.937   5.523  0.6263  0.7434  0.3206
   74SLPC  C210 6587   3.552   4.965   5.317 -0.0150 -0.2261 -0.7150
   74SLPC  H10R 6588   3.467   5.031   5.294  0.1613 -0.7464 -3.0735
   74SLPC  C211 6589   3.635   4.937   5.196 -1.2172 -0.1148  0.1587
   74SLPC  H11R 6590   3.728   4.880   5.220 -1.0393  0.2857  0.4269
   74SLPC  H11S 6591   3.665   5.035   5.152 -0.2646 -0.1555  0.6821
   74SLPC  C212 6592   3.551   4.847   5.106  0.8845 -0.8008  0.3739
   74SLPC  H12R 6593   3.535   4.742   5.136  1.7342 -0.6153  1.5397
   74SLPC  C213 6594   3.491   4.878   4.991 -0.1107 -0.1811  0.6735
   74SLPC  H13R 6595   3.437   4.797   4.938  1.9611 -0.8976 -0.4558
   74SLPC  C214 6596   3.504   5.012   4.920  0.0348 -0.1402 -0.8201
   74SLPC  H14R 6597   3.584   5.076   4.963 -1.7419  1.6575 -0.0729
   74SLPC  H14S 6598   3.411   5.070   4.936  0.5105  0.4153 -0.0356
   74SLPC  C215 6599   3.528   4.991   4.773 -0.6277  0.7417  1.0793
   74SLPC  H15R 6600   3.623   4.934   4.767 -0.1591  1.5996 -0.7512
   74SLPC  H15S 6601   3.556   5.087   4.724  1.5798 -0.9902 -1.3395
   74SLPC  C216 6602   3.416   4.925   4.686 -0.1610  0.5493 -0.0659
   74SLPC  H16R 6603   3.315   4.968   4.705  0.1212  1.4759 -0.6149
   74SLPC  H16S 6604   3.408   4.817   4.710 -0.2620  0.3034 -1.1328
   74SLPC  C217 6605   3.449   4.928   4.537 -1.1262  0.2709  0.2591
   74SLPC  H17R 6606   3.423   4.826   4.501 -0.9095 -0.5656  2.3576
   74SLPC  H17S 6607   3.557   4.949   4.520 -1.2085  0.0709 -0.5545
   74SLPC  C218 6608   3.371   5.032   4.465 -0.6913 -0.6287  0.3201
   74SLPC  H18R 6609   3.405   5.132   4.498  0.7257 -0.7336 -0.7221
   74SLPC  H18S 6610   3.263   5.024   4.491 -0.7669 -1.5808 -0.2208
   74SLPC  H18T 6611   3.391   5.032   4.355 -1.0303 -0.5199  0.2573
   74SLPC   C33 6612   3.228   4.785   6.016  0.0326 -0.4825  0.3780
   74SLPC   H3X 6613   3.146   4.860   6.008  0.4529 -0.0500 -0.0323
   74SLPC   H3Y 6614   3.195   4.693   5.965  0.5495 -1.2321  1.3638
   74SLPC   C34 6615   3.350   4.844   5.939  0.1375  0.2480 -0.9197
   74SLPC   H4X 6616   3.439   4.784   5.967 -0.0338  0.0623 -0.7675
   74SLPC   H4Y 6617   3.377   4.946   5.974 -0.8261  0.2590 -0.1477
   74SLPC   C35 6618   3.339   4.822   5.791  0.6782 -0.0880 -0.3883
   74SLPC   H5X 6619   3.306   4.718   5.768  0.1100  0.0465 -0.2016
   74SLPC   H5Y 6620   3.437   4.843   5.743 -0.3834  0.3751 -2.4654
   74SLPC   C36 6621   3.232   4.912   5.722 -0.8894  0.2518  0.4197
   74SLPC   H6X 6622   3.281   5.011   5.739  1.1016 -0.6210  0.0054
   74SLPC   H6Y 6623   3.139   4.904   5.783 -1.0413  1.1466  0.3214
   74SLPC   C37 6624   3.195   4.871   5.580  0.7458 -0.2284  0.3133
   74SLPC   H7X 6625   3.152   4.769   5.577  1.2968 -0.4529 -1.7743
   74SLPC   H7Y 6626   3.288   4.852   5.521 -1.0869 -0.6529 -2.6231
   74SLPC   C38 6627   3.113   4.978   5.501  0.2819  0.3426  0.0571
   74SLPC   H8X 6628   3.165   5.075   5.515 -0.3512  0.3403  3.2358
   74SLPC   H8Y 6629   3.012   4.997   5.543  0.2424  1.6067 -0.5920
   74SLPC   C39 6630   3.101   4.955   5.356  0.3801 -0.0440  0.4473
   74SLPC   H9X 6631   3.052   4.855   5.346 -0.4503  0.4832 -1.1800
   74SLPC   H9Y 6632   3.200   4.939   5.310  0.2905 -2.5598  0.9921
   74SLPC  C310 6633   3.020   5.061   5.278  0.4160 -0.2412  0.7278
   74SLPC  H10X 6634   3.088   5.148   5.289  0.1101  0.4115 -1.7351
   74SLPC  H10Y 6635   2.928   5.096   5.329 -0.6680 -1.1021 -0.5419
   74SLPC  C311 6636   2.984   5.030   5.142  0.6639  0.2637 -0.7967
   74SLPC  H11X 6637   3.059   4.984   5.074  0.6645 -1.5774  0.3774
   74SLPC  H11Y 6638   2.944   5.122   5.093 -1.0131 -1.1428 -2.2001
   74SLPC  C312 6639   2.868   4.925   5.135  0.7026  0.0618  0.7111
   74SLPC  H12X 6640   2.771   4.975   5.157  0.4306 -0.3643  0.4827
   74SLPC  H12Y 6641   2.878   4.844   5.211 -0.2871  1.0326  1.9207
   74SLPC  C313 6642   2.846   4.871   4.988 -0.2558  1.4828 -0.2706
   74SLPC  H13X 6643   2.932   4.808   4.956 -1.6473 -0.0769 -1.1373
   74SLPC  H13Y 6644   2.853   4.945   4.906  0.3054 -0.4240 -2.0343
   74SLPC  C314 6645   2.718   4.781   4.980 -0.0587  0.1854 -0.4124
   74SLPC  H14X 6646   2.685   4.763   5.085  1.8239 -0.8015  0.0440
   74SLPC  H14Y 6647   2.746   4.683   4.937  0.0279 -2.0312  4.1175
   74SLPC  C315 6648   2.603   4.844   4.903 -0.7056  0.2402 -0.5922
   74SLPC  H15X 6649   2.637   4.881   4.804 -1.2678  0.1144 -0.8344
   74SLPC  H15Y 6650   2.575   4.933   4.964  2.4106  0.3172  0.9473
   74SLPC  C316 6651   2.474   4.759   4.891 -0.2236 -0.1297 -0.6732
   74SLPC  H16X 6652   2.441   4.735   4.994 -1.5815  1.8606 -0.5929
   74SLPC  H16Y 6653   2.503   4.666   4.839  1.4895 -0.3871  0.6465
   74SLPC  C317 6654   2.368   4.834   4.812 -0.6077 -0.1976  0.2351
   74SLPC  H17X 6655   2.418   4.875   4.722  1.0290 -0.8078  0.8321
   74SLPC  H17Y 6656   2.348   4.924   4.875  0.2985  0.2737 -0.1390
   74SLPC  C318 6657   2.244   4.768   4.777 -1.0067  0.4330  0.2031
   74SLPC  H18X 6658   2.271   4.717   4.683 -0.8128  0.4434  0.2533
   74SLPC  H18Y 6659   2.171   4.844   4.740  0.2040  0.7357 -1.7023
   74SLPC  H18Z 6660   2.211   4.698   4.856  2.6535  1.9393  3.3855
   75SLPC     N 6661   0.243   2.305   6.653 -0.5088  0.0799 -0.1192
   75SLPC   C13 6662   0.302   2.404   6.752  0.3047  0.2631 -0.0242
   75SLPC  H13A 6663   0.310   2.358   6.849 -3.0420  1.3118  0.8866
   75SLPC  H13B 6664   0.399   2.437   6.719  0.4417  0.3828  0.4963
   75SLPC  H13C 6665   0.234   2.488   6.758  1.0840  0.8958  0.0692
   75SLPC   C14 6666   0.185   2.376   6.542  0.0471  0.2581  0.1257
   75SLPC  H14A 6667   0.082   2.392   6.569  0.3407  0.8823  0.9165
   75SLPC  H14B 6668   0.222   2.476   6.523  0.6659  0.2541  1.1974
   75SLPC  H14C 6669   0.181   2.310   6.457 -1.8366 -0.6044  0.8230
   75SLPC   C15 6670   0.131   2.238   6.724 -0.2368  0.6484  0.5805
   75SLPC  H15A 6671   0.073   2.307   6.782 -1.8137 -2.0107  2.3681
   75SLPC  H15B 6672   0.064   2.190   6.653 -0.0146  0.7475  0.2999
   75SLPC  H15C 6673   0.172   2.167   6.794  1.4078  1.6939  0.7244
   75SLPC   C12 6674   0.344   2.199   6.604  0.3230 -0.2067  0.4777
   75SLPC  H12A 6675   0.290   2.129   6.542 -1.7760 -0.9542  2.9701
   75SLPC  H12B 6676   0.390   2.141   6.682  0.9726 -1.8493 -1.0594
   75SLPC   C11 6677   0.456   2.257   6.515 -0.3621 -0.1467  0.3713
   75SLPC  H11A 6678   0.422   2.304   6.421 -2.0137  0.5384  1.2646
   75SLPC  H11B 6679   0.513   2.168   6.482  0.5102  0.4972  0.0917
   75SLPC     P 6680   0.646   2.309   6.681 -0.3450 -0.0252  0.1901
   75SLPC   O13 6681   0.676   2.416   6.779  0.0267 -0.0687 -0.2295
   75SLPC   O14 6682   0.623   2.168   6.727 -0.1523 -0.3990  0.3530
   75SLPC   O12 6683   0.536   2.357   6.583  0.2650  0.7320 -0.3478
   75SLPC   O11 6684   0.773   2.305   6.580 -0.0051 -0.2559  0.6013
   75SLPC    C1 6685   0.825   2.433   6.526  0.5392  0.6998  0.8082
   75SLPC    HA 6686   0.823   2.515   6.601  0.1645 -0.4274  2.0725
   75SLPC    HB 6687   0.932   2.424   6.496  0.3424  0.8806  0.0357
   75SLPC    C2 6688   0.763   2.466   6.386  0.3243  0.8998 -0.0228
   75SLPC    HS 6689   0.664   2.506   6.418  0.3043  1.0335 -0.2517
   75SLPC   O21 6690   0.736   2.348   6.301 -1.1599  0.3679 -0.5262
   75SLPC   C21 6691   0.631   2.357   6.232  0.8793 -0.5386 -0.0907
   75SLPC   O22 6692   0.555   2.455   6.231  0.4873  0.3452  0.3950
   75SLPC   C22 6693   0.601   2.232   6.147  0.3517 -0.1318  0.4244
   75SLPC   H2R 6694   0.656   2.147   6.194 -2.4386 -1.2756  1.8811
   75SLPC   H2S 6695   0.491   2.219   6.142  0.0768  1.9963  0.1255
   75SLPC    C3 6696   0.830   2.580   6.316 -0.1048  0.5192 -0.0862
   75SLPC    HX 6697   0.939   2.560   6.316 -0.3314 -0.8238 -0.0127
   75SLPC    HY 6698   0.808   2.676   6.367  1.1575  0.7558  0.0421
   75SLPC   O31 6699   0.788   2.609   6.186  0.7841  0.0204  0.4713
   75SLPC   C31 6700   0.861   2.593   6.087 -0.3030 -0.4727 -0.8054
   75SLPC   O32 6701   0.974   2.540   6.084  0.3865  0.1234  1.1571
   75SLPC   C32 6702   0.801   2.665   5.971 -0.8675  0.2777  0.5849
   75SLPC   H2X 6703   0.842   2.768   5.962 -1.8839  0.6217 -0.3378
   75SLPC   H2Y 6704   0.690   2.675   5.977 -0.8183  2.0478 -0.5962
   75SLPC   C23 6705   0.664   2.243   6.003 -0.1043 -0.1513 -0.0718
   75SLPC   H3R 6706   0.764   2.288   6.021 -0.2770 -0.3048  1.4086
   75SLPC   H3S 6707   0.594   2.304   5.943 -0.2610 -0.3921 -0.1335
   75SLPC   C24 6708   0.692   2.101   5.950  0.4463 -0.1213  0.4443
   75SLPC   H4R 6709   0.597   2.049   5.925  0.2489  1.5464 -2.7767
   75SLPC   H4S 6710   0.759   2.042   6.015  0.6201 -0.9479 -0.4673
   75SLPC   C25 6711   0.760   2.101   5.813  0.5852  0.4176 -0.1685
   75SLPC   H5R 6712   0.791   1.996   5.792  1.7556  0.2636  2.0415
   75SLPC   H5S 6713   0.854   2.148   5.849 -0.6531  0.1915  3.8592
   75SLPC   C26 6714   0.686   2.173   5.701 -0.1923 -0.0999  0.8678
   75SLPC   H6R 6715   0.664   2.282   5.713 -1.7642  0.0725 -2.4759
   75SLPC   H6S 6716   0.589   2.119   5.704 -0.0538 -0.3248  1.3344
   75SLPC   C27 6717   0.759   2.186   5.569 -0.3147  0.6093 -0.3417
   75SLPC   H7R 6718   0.794   2.085   5.537 -1.7527  0.4596 -1.5409
   75SLPC   H7S 6719   0.856   2.239   5.582  1.0289 -2.2212  2.6189
   75SLPC   C28 6720   0.670   2.234   5.452  0.2301  0.5520  0.8858
   75SLPC   H8R 6721   0.634   2.333   5.486 -1.5801 -0.3313  1.6939
   75SLPC   H8S 6722   0.588   2.163   5.429  1.2624 -0.8028  1.2123
   75SLPC   C29 6723   0.761   2.269   5.335 -0.3149  0.9595  0.0422
   75SLPC   H9R 6724   0.841   2.344   5.347  2.6297 -1.8494 -0.4636
   75SLPC  C210 6725   0.748   2.194   5.223  0.0868 -0.4868  0.0697
   75SLPC  H10R 6726   0.823   2.213   5.144 -1.4209  1.4321 -0.9683
   75SLPC  C211 6727   0.647   2.082   5.195  0.2659 -0.2253  0.0448
   75SLPC  H11R 6728   0.542   2.118   5.194  0.4373  0.3229 -1.4482
   75SLPC  H11S 6729   0.656   2.012   5.281 -0.2457 -1.4343 -0.8526
   75SLPC  C212 6730   0.694   1.989   5.079 -0.3926 -0.2735 -0.0292
   75SLPC  H12R 6731   0.791   1.941   5.097 -0.1534  0.9684  2.5098
   75SLPC  C213 6732   0.636   1.963   4.964 -0.4299  0.2171  0.2199
   75SLPC  H13R 6733   0.696   1.902   4.895  1.2106  1.0757  0.8279
   75SLPC  C214 6734   0.507   2.018   4.914  0.5104 -0.1878 -0.5497
   75SLPC  H14R 6735   0.534   2.091   4.834  0.8304 -0.1526 -0.4111
   75SLPC  H14S 6736   0.455   2.075   4.994  0.0527 -0.2882 -0.7657
   75SLPC  C215 6737   0.408   1.914   4.848 -0.4896 -0.0209 -0.4365
   75SLPC  H15R 6738   0.310   1.961   4.828 -0.7747 -0.6357 -0.5063
   75SLPC  H15S 6739   0.392   1.821   4.907  0.6142  0.7036  1.0698
   75SLPC  C216 6740   0.461   1.870   4.712  0.2495 -0.5588  0.4189
   75SLPC  H16R 6741   0.567   1.839   4.710  0.4704  0.2108 -0.3849
   75SLPC  H16S 6742   0.459   1.959   4.646 -0.8813  0.5223  1.8163
   75SLPC  C217 6743   0.376   1.758   4.644 -0.3110  0.3466 -0.0395
   75SLPC  H17R 6744   0.273   1.799   4.635 -0.6672  0.1945  2.7400
   75SLPC  H17S 6745   0.364   1.669   4.708  1.8743 -0.8113 -1.1154
   75SLPC  C218 6746   0.432   1.707   4.511 -0.8144  0.0154 -0.5113
   75SLPC  H18R 6747   0.431   1.786   4.433 -2.5116 -0.5877 -1.1628
   75SLPC  H18S 6748   0.369   1.631   4.460  1.6030 -1.3701 -1.5721
   75SLPC  H18T 6749   0.536   1.670   4.519 -0.2676  1.6914  0.5945
   75SLPC   C33 6750   0.831   2.586   5.844 -0.4162 -0.3161 -0.1578
   75SLPC   H3X 6751   0.783   2.487   5.832  0.0201 -0.3271 -2.2166
   75SLPC   H3Y 6752   0.940   2.563   5.845 -0.1228  0.9927  0.1677
   75SLPC   C34 6753   0.793   2.668   5.725  0.2383  0.5940  0.4921
   75SLPC   H4X 6754   0.825   2.774   5.731 -1.4384  1.2021 -0.7320
   75SLPC   H4Y 6755   0.684   2.664   5.704  0.2876 -1.6638  0.4445
   75SLPC   C35 6756   0.878   2.616   5.602  0.0348  0.1292 -0.2911
   75SLPC   H5X 6757   0.855   2.507   5.596 -0.6002  0.2700 -0.4706
   75SLPC   H5Y 6758   0.986   2.633   5.621 -0.3441  1.8064  0.5192
   75SLPC   C36 6759   0.836   2.690   5.475  0.0181 -0.4146 -0.2876
   75SLPC   H6X 6760   0.859   2.798   5.482 -0.9694 -0.2077 -0.1058
   75SLPC   H6Y 6761   0.725   2.685   5.463 -0.2451  0.2786  1.5603
   75SLPC   C37 6762   0.921   2.640   5.351  0.4349 -0.2834  0.8171
   75SLPC   H7X 6763   0.903   2.531   5.339 -2.4861 -0.1021  2.7158
   75SLPC   H7Y 6764   1.029   2.652   5.376 -0.0085  2.1641  1.7937
   75SLPC   C38 6765   0.879   2.708   5.220 -0.2615 -0.3957 -0.1081
   75SLPC   H8X 6766   0.879   2.816   5.246 -0.7078 -0.5624  0.6190
   75SLPC   H8Y 6767   0.773   2.687   5.194 -0.1755 -1.5719  0.4263
   75SLPC   C39 6768   0.960   2.663   5.100 -0.0585 -0.8034  0.4391
   75SLPC   H9X 6769   1.067   2.686   5.120 -0.3984 -0.9750  2.7605
   75SLPC   H9Y 6770   0.922   2.724   5.015 -1.2725 -0.0770  1.4574
   75SLPC  C310 6771   0.945   2.518   5.067 -0.4887  0.3148 -0.2020
   75SLPC  H10X 6772   0.838   2.494   5.086 -1.3407  3.0105 -1.1859
   75SLPC  H10Y 6773   1.009   2.459   5.135 -2.0736 -0.6760  0.4747
   75SLPC  C311 6774   0.979   2.489   4.922  0.2196 -0.2937 -0.2006
   75SLPC  H11X 6775   1.086   2.510   4.902 -0.0000 -0.7300 -1.9847
   75SLPC  H11Y 6776   0.917   2.552   4.855  3.0666  0.3224 -2.4331
   75SLPC  C312 6777   0.935   2.343   4.882 -0.2372  0.2376 -0.4718
   75SLPC  H12X 6778   0.829   2.333   4.912  0.0238  2.4041  1.4249
   75SLPC  H12Y 6779   0.997   2.263   4.926 -0.5831 -0.3959 -1.1160
   75SLPC  C313 6780   0.922   2.331   4.727 -0.1843 -0.0722 -0.0299
   75SLPC  H13X 6781   1.022   2.342   4.679 -0.2189 -1.1649 -0.3787
   75SLPC  H13Y 6782   0.851   2.403   4.682  0.0100  0.0310 -0.1748
   75SLPC  C314 6783   0.880   2.191   4.693  0.1692 -0.2630  0.1155
   75SLPC  H14X 6784   0.784   2.170   4.745 -0.1499  1.5301  0.3228
   75SLPC  H14Y 6785   0.949   2.114   4.732  1.7121  1.0327  0.0606
   75SLPC  C315 6786   0.854   2.172   4.539 -0.3918  0.1125 -0.6797
   75SLPC  H15X 6787   0.949   2.198   4.488 -0.0785 -0.6451 -0.5077
   75SLPC  H15Y 6788   0.770   2.234   4.501 -2.7572 -1.4030  1.7194
   75SLPC  C316 6789   0.810   2.030   4.510 -0.3806  0.2796  1.2007
   75SLPC  H16X 6790   0.705   2.015   4.543 -0.3374 -0.3391  1.0577
   75SLPC  H16Y 6791   0.872   1.961   4.570 -1.1829 -0.3107  1.3588
   75SLPC  C317 6792   0.833   1.987   4.363  0.0836  0.7920  0.9262
   75SLPC  H17X 6793   0.941   2.003   4.343  0.2102  0.3419  1.2448
   75SLPC  H17Y 6794   0.779   2.061   4.299  1.0878  1.3209  0.6569
   75SLPC  C318 6795   0.778   1.848   4.336  0.6380  0.1462  0.3440
   75SLPC  H18X 6796   0.667   1.841   4.339  0.6540 -2.3105 -1.3881
   75SLPC  H18Y 6797   0.819   1.772   4.406 -1.2940 -0.2742  1.0792
   75SLPC  H18Z 6798   0.816   1.798   4.245 -0.3696 -1.1855  0.6156
   76SLPC     N 6799   6.628   3.486   6.978 -0.4344  0.5206 -0.2420
   76SLPC   C13 6800   6.675   3.624   7.017  0.3869  0.0803  0.1078
   76SLPC  H13A 6801   6.684   3.636   7.123  1.7647 -0.7109  0.1013
   76SLPC  H13B 6802   6.771   3.638   6.970  0.9266 -3.6808 -0.1753
   76SLPC  H13C 6803   6.610   3.701   6.976  0.7752  0.6569  0.5623
   76SLPC   C14 6804   6.632   3.464   6.828 -0.1493 -0.2571  0.4652
   76SLPC  H14A 6805   6.738   3.459   6.804 -0.1181 -0.9377  0.7102
   76SLPC  H14B 6806   6.577   3.373   6.806  0.7601 -0.5234 -0.8812
   76SLPC  H14C 6807   6.591   3.547   6.773 -1.5063  0.4795  2.5044
   76SLPC   C15 6808   6.491   3.451   7.020 -0.5593 -0.1328 -0.3988
   76SLPC  H15A 6809   6.423   3.531   6.994 -0.9655 -0.6552 -0.9703
   76SLPC  H15B 6810   6.447   3.359   6.986 -3.8152  0.5262  1.5361
   76SLPC  H15C 6811   6.496   3.452   7.128 -1.7615  1.8439 -0.3127
   76SLPC   C12 6812   6.724   3.386   7.047 -0.6622  0.2328 -0.2194
   76SLPC  H12A 6813   6.686   3.286   7.043  1.7736 -0.9090  2.0908
   76SLPC  H12B 6814   6.730   3.403   7.153  0.7061  2.8034 -0.5987
   76SLPC   C11 6815   6.870   3.388   6.990 -0.6720  0.3458 -0.1588
   76SLPC  H11A 6816   6.944   3.368   7.070 -0.9977 -0.2342  0.0037
   76SLPC  H11B 6817   6.899   3.492   6.963  0.6382 -0.3399 -1.5170
   76SLPC     P 6818   6.876   3.142   6.891  0.1266  0.0350 -0.0207
   76SLPC   O13 6819   7.012   3.101   6.924  0.4200 -0.3767  0.3000
   76SLPC   O14 6820   6.769   3.105   6.987 -0.1688  0.4459  0.1109
   76SLPC   O12 6821   6.881   3.301   6.870  0.1700 -0.2581 -0.4496
   76SLPC   O11 6822   6.844   3.099   6.744  0.1077  0.1906  0.0481
   76SLPC    C1 6823   6.940   3.123   6.632  0.1948  0.3711 -0.1596
   76SLPC    HA 6824   6.979   3.227   6.640  0.3669  0.3601 -0.8450
   76SLPC    HB 6825   7.030   3.059   6.631  0.2818  0.4677 -2.0180
   76SLPC    C2 6826   6.871   3.115   6.501  0.3604 -0.1177  0.1578
   76SLPC    HS 6827   6.807   3.204   6.485 -1.1272 -0.7298  2.2407
   76SLPC   O21 6828   6.783   3.007   6.498  0.3440  0.0290  0.3103
   76SLPC   C21 6829   6.678   3.014   6.412 -0.4399 -0.3864  0.8740
   76SLPC   O22 6830   6.652   3.112   6.341 -0.0482  0.1021  0.3420
   76SLPC   C22 6831   6.603   2.884   6.409  0.5098  0.0634 -0.8469
   76SLPC   H2R 6832   6.663   2.817   6.473  4.1282  3.1033 -0.6909
   76SLPC   H2S 6833   6.502   2.909   6.447  1.4824  1.8111  0.7754
   76SLPC    C3 6834   6.982   3.117   6.388 -0.9677  0.8014 -0.2887
   76SLPC    HX 6835   7.042   3.025   6.406  0.1540  1.7527  1.0349
   76SLPC    HY 6836   7.046   3.199   6.426 -1.1320  0.3904  0.9430
   76SLPC   O31 6837   6.942   3.127   6.253 -1.0265 -0.0185 -0.3389
   76SLPC   C31 6838   6.895   3.243   6.215  0.3741 -0.7504  0.1865
   76SLPC   O32 6839   6.885   3.342   6.289 -0.1071  0.6494  0.6205
   76SLPC   C32 6840   6.845   3.228   6.071  0.2662 -0.4203  0.2845
   76SLPC   H2X 6841   6.776   3.310   6.041 -1.7831 -1.5595  1.6234
   76SLPC   H2Y 6842   6.781   3.137   6.072  0.9760 -0.9239  0.4271
   76SLPC   C23 6843   6.612   2.835   6.260 -0.2012 -0.7759 -0.2723
   76SLPC   H3R 6844   6.580   2.904   6.178 -0.3237  0.8611  1.0969
   76SLPC   H3S 6845   6.551   2.743   6.258 -2.1783  0.3693  1.9448
   76SLPC   C24 6846   6.756   2.806   6.233 -0.5003  0.1191 -0.3588
   76SLPC   H4R 6847   6.792   2.741   6.315  0.7168  1.3271  0.0903
   76SLPC   H4S 6848   6.828   2.887   6.256  0.0456 -0.6181  0.5945
   76SLPC   C25 6849   6.782   2.744   6.100 -0.0939  0.2592  0.3253
   76SLPC   H5R 6850   6.710   2.664   6.072  0.0374 -0.5708  2.2071
   76SLPC   H5S 6851   6.874   2.685   6.116 -0.3853  0.0864  1.4476
   76SLPC   C26 6852   6.798   2.841   5.979 -0.2242 -0.5999  0.0723
   76SLPC   H6R 6853   6.878   2.911   6.009 -0.9740  0.4890 -0.4389
   76SLPC   H6S 6854   6.712   2.908   5.961  0.9649  0.8789 -0.3058
   76SLPC   C27 6855   6.848   2.766   5.850  0.2881 -0.6657 -0.6332
   76SLPC   H7R 6856   6.772   2.688   5.832 -2.8027  2.4661 -2.4897
   76SLPC   H7S 6857   6.951   2.729   5.868  1.1011  1.4436 -0.6137
   76SLPC   C28 6858   6.860   2.847   5.720 -0.2461 -0.6158  0.3723
   76SLPC   H8R 6859   6.945   2.916   5.740 -1.6554  0.8121  1.6721
   76SLPC   H8S 6860   6.768   2.902   5.688  0.0366 -1.0370 -1.2468
   76SLPC   C29 6861   6.908   2.748   5.620  0.3362  0.4058 -0.0423
   76SLPC   H9R 6862   6.994   2.687   5.652  0.3782 -0.9150 -2.4504
   76SLPC  C210 6863   6.856   2.703   5.501 -0.3138  0.3730 -0.5914
   76SLPC  H10R 6864   6.923   2.641   5.440  2.1760  2.2428  0.0947
   76SLPC  C211 6865   6.724   2.738   5.444 -0.3745 -0.1775 -0.2253
   76SLPC  H11R 6866   6.750   2.812   5.366  4.6575 -1.9804 -0.5931
   76SLPC  H11S 6867   6.651   2.790   5.511  0.3417  2.9896 -1.7157
   76SLPC  C212 6868   6.653   2.618   5.389  0.1060  0.6640  0.3789
   76SLPC  H12R 6869   6.608   2.549   5.461 -0.8156 -0.0963 -0.8703
   76SLPC  C213 6870   6.633   2.590   5.261  0.1262 -0.0124 -0.8962
   76SLPC  H13R 6871   6.586   2.496   5.229 -1.9483  0.5931  0.1817
   76SLPC  C214 6872   6.665   2.681   5.142  0.1616  0.0018  0.5749
   76SLPC  H14R 6873   6.770   2.658   5.115  0.9572  4.2150 -0.7380
   76SLPC  H14S 6874   6.659   2.786   5.179 -0.2247 -0.5844  2.3001
   76SLPC  C215 6875   6.584   2.662   5.007  0.4583 -0.2678 -0.4965
   76SLPC  H15R 6876   6.595   2.558   4.972 -1.3246 -0.2282 -1.2869
   76SLPC  H15S 6877   6.639   2.721   4.930  0.5728  0.6537  0.2638
   76SLPC  C216 6878   6.429   2.701   5.020  0.4374 -0.6415  0.3145
   76SLPC  H16R 6879   6.415   2.806   5.053  1.9277  0.9709 -3.5830
   76SLPC  H16S 6880   6.384   2.634   5.097 -0.6896 -0.5721 -0.2641
   76SLPC  C217 6881   6.343   2.684   4.887  0.2162  0.6058 -0.1040
   76SLPC  H17R 6882   6.238   2.690   4.925  0.5457 -0.0569  0.9396
   76SLPC  H17S 6883   6.359   2.582   4.848 -1.1814  0.7197 -1.0549
   76SLPC  C218 6884   6.372   2.779   4.774 -0.0126  0.2030 -0.3819
   76SLPC  H18R 6885   6.322   2.756   4.677  1.7747  0.1332 -1.3202
   76SLPC  H18S 6886   6.479   2.772   4.747  0.3493 -1.4237  1.3265
   76SLPC  H18T 6887   6.342   2.879   4.813  1.0282 -0.3990  2.0975
   76SLPC   C33 6888   6.953   3.219   5.964  0.4626  0.2702 -0.1354
   76SLPC   H3X 6889   6.902   3.205   5.867  1.3468  1.7911 -0.8519
   76SLPC   H3Y 6890   7.026   3.138   5.985  1.4864  1.0412 -0.6178
   76SLPC   C34 6891   7.022   3.356   5.953  0.0412 -0.1609  0.2492
   76SLPC   H4X 6892   7.051   3.390   6.055 -0.1829  1.0398 -0.0673
   76SLPC   H4Y 6893   6.942   3.428   5.926  1.1569  1.7338  1.6922
   76SLPC   C35 6894   7.133   3.357   5.848 -0.0719 -0.1510  0.0497
   76SLPC   H5X 6895   7.190   3.263   5.838  0.9243  0.4979 -0.6065
   76SLPC   H5Y 6896   7.206   3.434   5.882 -1.4926  0.3955  2.0817
   76SLPC   C36 6897   7.099   3.403   5.701 -0.2201 -0.2218 -0.3256
   76SLPC   H6X 6898   7.192   3.412   5.642 -0.5167  2.9976 -0.4564
   76SLPC   H6Y 6899   7.048   3.501   5.713 -0.7590 -0.4893 -0.3967
   76SLPC   C37 6900   7.005   3.313   5.627  0.2894  0.0225  0.1417
   76SLPC   H7X 6901   6.897   3.316   5.653  0.4760 -1.9003  1.2803
   76SLPC   H7Y 6902   7.045   3.212   5.645  2.2884 -0.1444 -3.9804
   76SLPC   C38 6903   7.021   3.328   5.474  0.4344 -0.7318  0.6041
   76SLPC   H8X 6904   7.130   3.321   5.453  0.5521  2.2544 -0.1645
   76SLPC   H8Y 6905   6.989   3.433   5.460  0.6834 -0.6138  0.9115
   76SLPC   C39 6906   6.934   3.229   5.400 -0.0914 -0.5897 -0.3542
   76SLPC   H9X 6907   6.834   3.275   5.393  0.5669  0.9866  0.1954
   76SLPC   H9Y 6908   6.918   3.142   5.468 -1.9108  0.0690  0.1052
   76SLPC  C310 6909   6.990   3.197   5.255  0.2630 -0.2542 -0.1855
   76SLPC  H10X 6910   6.918   3.126   5.209  0.1960  0.5365 -1.3697
   76SLPC  H10Y 6911   7.092   3.156   5.246  1.2329  2.2297 -1.6748
   76SLPC  C311 6912   6.985   3.331   5.178 -0.1949  0.3415 -0.0132
   76SLPC  H11X 6913   7.059   3.402   5.220  0.4350 -1.6019  2.4016
   76SLPC  H11Y 6914   6.886   3.370   5.210  0.2729  0.4482  1.4129
   76SLPC  C312 6915   7.007   3.309   5.031  0.5611 -0.4649  0.5505
   76SLPC  H12X 6916   7.111   3.271   5.021  0.4900 -1.4592  2.8788
   76SLPC  H12Y 6917   7.004   3.408   4.980 -1.6579 -0.3467  0.8283
   76SLPC  C313 6918   6.901   3.219   4.967  0.0007  0.6809  0.1279
   76SLPC  H13X 6919   6.807   3.240   5.021  1.4875  1.9558  2.4219
   76SLPC  H13Y 6920   6.928   3.116   4.997  0.9295  0.6546 -0.7369
   76SLPC  C314 6921   6.885   3.213   4.816  0.2019 -0.1192  0.2688
   76SLPC  H14X 6922   6.795   3.153   4.794  0.8698 -0.5422 -1.4269
   76SLPC  H14Y 6923   6.967   3.155   4.768 -1.7625 -2.5846 -0.2776
   76SLPC  C315 6924   6.873   3.353   4.752  0.1787 -0.1121 -0.1862
   76SLPC  H15X 6925   6.959   3.415   4.785 -0.7143  0.9603  0.2073
   76SLPC  H15Y 6926   6.787   3.403   4.802  0.5165 -0.1099  0.4077
   76SLPC  C316 6927   6.853   3.360   4.604 -0.1836 -0.1347  0.9874
   76SLPC  H16X 6928   6.927   3.304   4.543  1.8467  1.8794  1.4682
   76SLPC  H16Y 6929   6.870   3.461   4.562  1.5175 -1.0300 -0.6600
   76SLPC  C317 6930   6.713   3.319   4.568  0.1797  0.6280  0.5830
   76SLPC  H17X 6931   6.649   3.386   4.630 -1.0879  1.6314 -1.7068
   76SLPC  H17Y 6932   6.711   3.215   4.607  1.3019  0.6788  0.8026
   76SLPC  C318 6933   6.673   3.312   4.422 -0.8132 -0.4597  0.2049
   76SLPC  H18X 6934   6.563   3.306   4.418 -0.7521 -0.7670 -1.7746
   76SLPC  H18Y 6935   6.721   3.232   4.362  1.6298  1.4798 -0.6693
   76SLPC  H18Z 6936   6.692   3.409   4.371 -1.2973 -0.5663 -0.1795
   77SLPC     N 6937   0.208   5.170   7.164 -0.5403  0.0064  0.3459
   77SLPC   C13 6938   0.360   5.173   7.166  0.8999 -0.1909 -0.1759
   77SLPC  H13A 6939   0.383   5.236   7.251 -0.9148  1.0828 -0.5568
   77SLPC  H13B 6940   0.410   5.081   7.190 -2.1355 -1.7843  0.4651
   77SLPC  H13C 6941   0.405   5.206   7.074  0.6727 -2.5105 -1.1766
   77SLPC   C14 6942   0.147   5.307   7.200 -0.0732 -0.0466 -0.5251
   77SLPC  H14A 6943   0.183   5.330   7.299 -0.7691 -0.5040 -0.1533
   77SLPC  H14B 6944   0.188   5.383   7.136  1.6793 -0.2314  0.3225
   77SLPC  H14C 6945   0.039   5.298   7.196 -0.0940  0.4647 -1.5066
   77SLPC   C15 6946   0.159   5.092   7.279 -0.6761 -0.0736  0.0775
   77SLPC  H15A 6947   0.196   5.137   7.369 -2.1215 -0.8629  1.1003
   77SLPC  H15B 6948   0.054   5.082   7.300 -0.5142  0.5328  1.2015
   77SLPC  H15C 6949   0.193   4.989   7.283 -1.8626 -0.6883 -2.7302
   77SLPC   C12 6950   0.152   5.118   7.031  0.5515  0.8320 -0.2100
   77SLPC  H12A 6951   0.152   5.198   6.959 -2.4814  1.1107 -0.0365
   77SLPC  H12B 6952   0.046   5.097   7.035  0.5743  0.8664  1.2837
   77SLPC   C11 6953   0.226   4.987   6.983 -0.1225 -0.0941 -0.0813
   77SLPC  H11A 6954   0.334   5.010   6.974 -0.1511  0.1710  0.2416
   77SLPC  H11B 6955   0.183   4.966   6.882  1.1072  0.5819 -0.7663
   77SLPC     P 6956   0.292   4.756   7.089  0.1618 -0.2245  0.0085
   77SLPC   O13 6957   0.394   4.786   7.189  0.8317 -0.2627  0.7021
   77SLPC   O14 6958   0.211   4.637   7.111  0.2295  0.3219  0.1112
   77SLPC   O12 6959   0.193   4.879   7.077 -0.1673  0.7344  0.0206
   77SLPC   O11 6960   0.367   4.749   6.945 -0.0387 -0.4953  0.5958
   77SLPC    C1 6961   0.506   4.717   6.933  0.4291  1.1394  0.1522
   77SLPC    HA 6962   0.562   4.736   7.027 -1.6396 -0.2161  1.7534
   77SLPC    HB 6963   0.523   4.608   6.916 -0.8639  0.7816  0.9804
   77SLPC    C2 6964   0.579   4.804   6.825 -0.4194 -0.1446 -0.4326
   77SLPC    HS 6965   0.546   4.908   6.847 -1.9351 -0.5010 -0.9411
   77SLPC   O21 6966   0.518   4.784   6.696 -0.4274  0.7865 -0.4974
   77SLPC   C21 6967   0.548   4.696   6.612 -0.5888 -0.0456  0.6463
   77SLPC   O22 6968   0.620   4.597   6.622  0.1835 -0.2087  0.2658
   77SLPC   C22 6969   0.473   4.733   6.477 -0.3817  0.0267 -0.2698
   77SLPC   H2R 6970   0.367   4.701   6.482 -0.0899 -1.0416 -0.5906
   77SLPC   H2S 6971   0.485   4.843   6.468 -1.1502  0.1535  0.2430
   77SLPC    C3 6972   0.735   4.791   6.834  0.1136  0.4594  0.3658
   77SLPC    HX 6973   0.741   4.681   6.844 -0.6140  0.5398  2.1986
   77SLPC    HY 6974   0.777   4.840   6.925 -0.9837  1.0519  0.5775
   77SLPC   O31 6975   0.797   4.835   6.713 -0.1842  0.2996  0.3617
   77SLPC   C31 6976   0.837   4.965   6.714  0.1476  0.3606 -0.3227
   77SLPC   O32 6977   0.806   5.039   6.809 -0.1843 -0.0674  0.3968
   77SLPC   C32 6978   0.918   5.000   6.593  0.6349  0.3295  0.0020
   77SLPC   H2X 6979   0.984   4.913   6.572 -0.6648 -0.6515 -0.1318
   77SLPC   H2Y 6980   0.977   5.093   6.605  0.3423  0.4912  0.2022
   77SLPC   C23 6981   0.549   4.675   6.353 -0.8974 -0.2977  0.0997
   77SLPC   H3R 6982   0.577   4.569   6.367  2.5797  0.4354 -0.3729
   77SLPC   H3S 6983   0.647   4.728   6.354 -0.2032 -1.4773 -1.1790
   77SLPC   C24 6984   0.464   4.697   6.229 -0.2993  0.1901 -0.0019
   77SLPC   H4R 6985   0.424   4.799   6.208 -0.8293 -0.2522 -1.2418
   77SLPC   H4S 6986   0.383   4.624   6.249  1.8789 -2.4068 -0.0729
   77SLPC   C25 6987   0.522   4.652   6.096  0.1733  0.3009  1.1042
   77SLPC   H5R 6988   0.542   4.543   6.101 -0.9647  0.1016  1.5135
   77SLPC   H5S 6989   0.612   4.709   6.063 -0.1296 -0.1448 -0.5414
   77SLPC   C26 6990   0.423   4.664   5.974 -0.8297  0.5030 -0.8085
   77SLPC   H6R 6991   0.473   4.651   5.876 -1.6256 -0.7388 -1.0758
   77SLPC   H6S 6992   0.381   4.766   5.964 -1.4820  0.2862 -0.3441
   77SLPC   C27 6993   0.302   4.570   5.977  0.0932 -0.0102  0.7876
   77SLPC   H7R 6994   0.242   4.599   6.066 -0.1782 -1.0147  0.9491
   77SLPC   H7S 6995   0.338   4.466   5.993 -0.9347 -0.3146  1.1906
   77SLPC   C28 6996   0.219   4.578   5.852 -0.1711  0.0680 -1.1015
   77SLPC   H8R 6997   0.186   4.681   5.827 -0.0967  0.0604 -1.2302
   77SLPC   H8S 6998   0.122   4.527   5.872  0.2152 -0.2953 -0.0561
   77SLPC   C29 6999   0.272   4.506   5.729  0.1067 -0.1274  0.1278
   77SLPC   H9R 7000   0.294   4.398   5.730 -3.1924 -1.0136 -2.5914
   77SLPC  C210 7001   0.308   4.569   5.617  0.4987 -0.2927 -0.1972
   77SLPC  H10R 7002   0.347   4.513   5.530  2.4566  1.6369 -0.6678
   77SLPC  C211 7003   0.309   4.716   5.590 -1.0035  0.6589  0.0391
   77SLPC  H11R 7004   0.385   4.724   5.509 -1.5264 -0.6451 -0.6135
   77SLPC  H11S 7005   0.342   4.773   5.680 -0.3687 -0.2022  0.3645
   77SLPC  C212 7006   0.171   4.759   5.555  0.1829 -0.4018  0.0600
   77SLPC  H12R 7007   0.097   4.762   5.636 -0.4019 -1.8280 -0.3829
   77SLPC  C213 7008   0.127   4.789   5.428  0.6316  0.4800 -0.3368
   77SLPC  H13R 7009   0.023   4.823   5.427 -0.1136 -1.5328  1.5398
   77SLPC  C214 7010   0.216   4.789   5.303 -0.1702 -0.2577  0.2059
   77SLPC  H14R 7011   0.275   4.696   5.291 -1.6367 -1.2767  0.5747
   77SLPC  H14S 7012   0.290   4.870   5.318 -1.1016  0.4367  1.2626
   77SLPC  C215 7013   0.148   4.808   5.176 -0.0969 -0.2165 -0.0914
   77SLPC  H15R 7014   0.231   4.805   5.103  1.3671 -0.9550  1.5430
   77SLPC  H15S 7015   0.105   4.909   5.165  2.0149  0.6347 -1.0997
   77SLPC  C216 7016   0.019   4.714   5.142  0.3404 -0.4705 -0.1530
   77SLPC  H16R 7017  -0.076   4.761   5.175  2.1466  2.2286  1.6113
   77SLPC  H16S 7018   0.036   4.614   5.186 -1.1667 -0.4786  0.4501
   77SLPC  C217 7019   0.014   4.699   4.996  0.3314  1.1593  0.2627
   77SLPC  H17R 7020   0.022   4.795   4.940  0.9273 -1.3648 -4.4894
   77SLPC  H17S 7021  -0.082   4.660   4.956 -0.0386 -0.1039  2.2424
   77SLPC  C218 7022   0.121   4.607   4.941 -0.0670  0.2081  0.0905
   77SLPC  H18R 7023   0.120   4.595   4.830 -2.1581 -0.4072  0.1179
   77SLPC  H18S 7024   0.103   4.503   4.975  2.3254 -0.3426 -0.1680
   77SLPC  H18T 7025   0.222   4.630   4.979  0.5609  0.7441 -1.7862
   77SLPC   C33 7026   0.828   5.034   6.474 -0.2860 -0.0503 -0.2149
   77SLPC   H3X 7027   0.783   5.134   6.490  0.3366  0.6162 -2.2868
   77SLPC   H3Y 7028   0.740   4.967   6.465 -0.3960  0.3588 -3.0756
   77SLPC   C34 7029   0.891   5.044   6.334 -0.0849 -0.5217  0.2165
   77SLPC   H4X 7030   0.921   4.944   6.297  1.3464  0.2074 -0.6860
   77SLPC   H4Y 7031   0.981   5.110   6.336 -2.0976  2.4076  0.5021
   77SLPC   C35 7032   0.789   5.089   6.234  0.1326  0.0490  0.1562
   77SLPC   H5X 7033   0.748   5.190   6.257  2.5524  1.5255 -1.5768
   77SLPC   H5Y 7034   0.716   5.006   6.222 -0.2817  0.0207  2.3801
   77SLPC   C36 7035   0.843   5.103   6.084  0.3724 -0.0248 -0.6987
   77SLPC   H6X 7036   0.887   5.204   6.091 -2.7902  1.4651 -0.8184
   77SLPC   H6Y 7037   0.754   5.094   6.017 -0.6142  2.3751  0.1700
   77SLPC   C37 7038   0.952   5.003   6.048 -0.4210 -0.2280  0.2064
   77SLPC   H7X 7039   0.908   4.904   6.023  0.3307 -0.6345  0.4663
   77SLPC   H7Y 7040   1.033   4.987   6.122  0.3768  1.1446 -0.3320
   77SLPC   C38 7041   1.015   5.050   5.910 -0.0613  0.3487 -0.2132
   77SLPC   H8X 7042   1.112   4.997   5.899 -0.3759 -0.4135  0.6239
   77SLPC   H8Y 7043   1.059   5.152   5.921  2.9970 -0.7234 -1.5205
   77SLPC   C39 7044   0.938   5.042   5.778  0.5853  0.1021  0.0078
   77SLPC   H9X 7045   0.831   5.069   5.793  0.7722  0.7592  0.1960
   77SLPC   H9Y 7046   0.938   4.933   5.758  3.2736 -0.0480  0.4141
   77SLPC  C310 7047   0.999   5.135   5.678 -0.0864  0.4655 -0.1003
   77SLPC  H10X 7048   1.103   5.100   5.658  0.4963  1.7367  0.5658
   77SLPC  H10Y 7049   1.010   5.240   5.715 -0.5605  0.3420  0.3984
   77SLPC  C311 7050   0.919   5.124   5.547 -0.4603 -0.4737  0.0082
   77SLPC  H11X 7051   0.819   5.158   5.582  0.6864  0.8799  2.1413
   77SLPC  H11Y 7052   0.918   5.016   5.519 -0.1654 -0.9455  1.7112
   77SLPC  C312 7053   0.960   5.215   5.434 -0.1656  0.2025  0.6844
   77SLPC  H12X 7054   1.070   5.207   5.423 -0.3546 -1.0920 -0.4507
   77SLPC  H12Y 7055   0.933   5.320   5.460 -2.6488 -0.5367  1.3666
   77SLPC  C313 7056   0.893   5.177   5.293 -0.2199  0.2066  0.0499
   77SLPC  H13X 7057   0.787   5.207   5.305 -0.0434  0.2016  2.1256
   77SLPC  H13Y 7058   0.891   5.066   5.287  1.6609  0.2102 -1.5462
   77SLPC  C314 7059   0.963   5.242   5.175 -1.1945 -0.4901 -0.1304
   77SLPC  H14X 7060   1.069   5.211   5.174 -1.3255 -1.0297  1.1338
   77SLPC  H14Y 7061   0.955   5.351   5.194 -0.0916 -1.0081  4.2116
   77SLPC  C315 7062   0.890   5.205   5.040  0.7684 -0.4434 -0.6955
   77SLPC  H15X 7063   0.924   5.278   4.964  1.5574 -0.8782 -0.7679
   77SLPC  H15Y 7064   0.783   5.221   5.065  1.3563 -0.8451  2.4992
   77SLPC  C316 7065   0.914   5.061   4.998  0.0552  0.1945  0.6220
   77SLPC  H16X 7066   0.827   5.039   4.933  1.0242 -1.0215 -0.3164
   77SLPC  H16Y 7067   0.908   4.997   5.088 -0.4323 -2.2828 -1.0636
   77SLPC  C317 7068   1.040   5.041   4.911  0.4297 -0.2392 -0.5019
   77SLPC  H17X 7069   1.129   5.090   4.957 -1.6183  2.8082  0.5066
   77SLPC  H17Y 7070   1.019   5.103   4.822 -0.6075  0.3394  0.1368
   77SLPC  C318 7071   1.066   4.899   4.864  0.2190  0.0077 -0.3825
   77SLPC  H18X 7072   1.054   4.827   4.947 -0.8833  1.1848  0.5069
   77SLPC  H18Y 7073   1.161   4.879   4.810  1.4021 -1.9552  2.1956
   77SLPC  H18Z 7074   0.990   4.865   4.790  0.5317 -0.1760 -0.6266
   78SLPC     N 7075   1.648   2.045   6.826  0.3240 -0.0705  0.3200
   78SLPC   C13 7076   1.768   2.087   6.896 -0.2754 -0.6720  0.0210
   78SLPC  H13A 7077   1.838   2.008   6.918 -0.1649 -0.7812 -0.6807
   78SLPC  H13B 7078   1.832   2.160   6.848 -0.5734  1.3602  2.5070
   78SLPC  H13C 7079   1.743   2.142   6.986  1.2150 -2.1247  1.3851
   78SLPC   C14 7080   1.574   1.945   6.911 -0.3413  0.0144  0.0136
   78SLPC  H14A 7081   1.545   1.990   7.004  1.0581 -0.4553  0.7018
   78SLPC  H14B 7082   1.483   1.905   6.867 -0.4507  0.2410  0.0326
   78SLPC  H14C 7083   1.633   1.859   6.939 -2.0318 -0.3009  3.0523
   78SLPC   C15 7084   1.696   1.984   6.700 -0.2477 -0.3985 -0.1732
   78SLPC  H15A 7085   1.773   2.052   6.667 -2.1221  0.7558 -2.4243
   78SLPC  H15B 7086   1.755   1.896   6.721 -1.0954 -0.3730  2.7959
   78SLPC  H15C 7087   1.631   1.969   6.616  1.4052  1.1114 -1.8323
   78SLPC   C12 7088   1.570   2.173   6.793  0.8491 -0.2410  0.1117
   78SLPC  H12A 7089   1.537   2.230   6.878  0.0260 -0.4196 -0.0793
   78SLPC  H12B 7090   1.477   2.141   6.749  2.0659 -1.3176 -1.8291
   78SLPC   C11 7091   1.631   2.268   6.694 -0.4261 -0.3002  0.2382
   78SLPC  H11A 7092   1.550   2.343   6.679 -2.3468 -2.1696  0.7757
   78SLPC  H11B 7093   1.649   2.221   6.595  2.4318  1.2520 -0.0886
   78SLPC     P 7094   1.867   2.345   6.664 -0.0156 -0.0856  0.1515
   78SLPC   O13 7095   1.935   2.475   6.686  0.1276  0.4660  0.2948
   78SLPC   O14 7096   1.932   2.220   6.708  0.0528  0.0304 -0.3712
   78SLPC   O12 7097   1.737   2.350   6.740 -0.3429  0.6950  0.4823
   78SLPC   O11 7098   1.833   2.331   6.508  0.0236 -0.5460 -0.3740
   78SLPC    C1 7099   1.830   2.213   6.432 -0.6310  0.1258 -0.0561
   78SLPC    HA 7100   1.830   2.120   6.493 -1.2260  0.1065 -0.0804
   78SLPC    HB 7101   1.743   2.211   6.364  0.5642 -1.3212 -1.6418
   78SLPC    C2 7102   1.953   2.215   6.342 -1.0937  0.0342  0.8568
   78SLPC    HS 7103   2.046   2.226   6.403 -0.3768  0.6963 -0.3176
   78SLPC   O21 7104   1.932   2.314   6.238  0.3762 -0.0005  0.2060
   78SLPC   C21 7105   2.047   2.367   6.182 -0.2050  0.3358 -0.1042
   78SLPC   O22 7106   2.159   2.341   6.223  0.3751  0.0130  0.0415
   78SLPC   C22 7107   2.012   2.467   6.070  0.3156 -0.2420 -0.8196
   78SLPC   H2R 7108   1.973   2.556   6.123 -0.2052 -0.3387 -1.0338
   78SLPC   H2S 7109   2.107   2.507   6.028  1.5012  0.3076  2.1671
   78SLPC    C3 7110   1.964   2.074   6.269  0.8488  0.0500  0.5899
   78SLPC    HX 7111   1.867   2.064   6.214  1.8084  1.1496 -1.4182
   78SLPC    HY 7112   1.967   1.992   6.343  0.4420  0.4685  1.0752
   78SLPC   O31 7113   2.070   2.067   6.172 -0.0715 -0.2417 -0.1840
   78SLPC   C31 7114   2.188   2.034   6.216 -0.4866  0.7113  0.5874
   78SLPC   O32 7115   2.233   2.013   6.325 -0.2625  0.3361 -0.3134
   78SLPC   C32 7116   2.271   2.034   6.095 -0.1850  0.3808 -0.0928
   78SLPC   H2X 7117   2.377   2.013   6.121 -0.2598 -0.5132 -0.4930
   78SLPC   H2Y 7118   2.267   2.141   6.066  0.7141  0.5424  0.3372
   78SLPC   C23 7119   1.896   2.418   5.974  0.0961  0.6774  0.5160
   78SLPC   H3R 7120   1.885   2.502   5.903 -1.5962  2.0322  2.2568
   78SLPC   H3S 7121   1.793   2.408   6.016 -1.9758  5.5419 -2.5108
   78SLPC   C24 7122   1.926   2.286   5.895 -0.1773  0.3508 -0.4034
   78SLPC   H4R 7123   1.836   2.247   5.844 -0.6601  0.5051  0.3060
   78SLPC   H4S 7124   1.957   2.208   5.968 -0.0775 -0.5632 -1.3960
   78SLPC   C25 7125   2.045   2.302   5.801 -0.2323  0.3423  0.7650
   78SLPC   H5R 7126   2.044   2.209   5.740  0.2323  1.0872 -0.4125
   78SLPC   H5S 7127   2.133   2.299   5.868  0.9585  2.0724 -0.6314
   78SLPC   C26 7128   2.049   2.424   5.710  0.1702 -0.5609 -0.1229
   78SLPC   H6R 7129   2.054   2.517   5.770  0.5976  0.3908 -1.5888
   78SLPC   H6S 7130   1.954   2.433   5.653  1.7314  0.2089 -2.7472
   78SLPC   C27 7131   2.170   2.431   5.608 -0.3173  0.4821 -0.1277
   78SLPC   H7R 7132   2.267   2.433   5.663 -1.6218  0.7231  2.3088
   78SLPC   H7S 7133   2.152   2.526   5.553  0.3174  0.6403 -0.0698
   78SLPC   C28 7134   2.171   2.317   5.498  0.4942 -0.1760  0.5845
   78SLPC   H8R 7135   2.200   2.226   5.556  0.5393  0.1278  1.0469
   78SLPC   H8S 7136   2.255   2.322   5.426 -1.6678 -1.1528 -2.1720
   78SLPC   C29 7137   2.045   2.302   5.422 -0.0389  0.3687 -0.0792
   78SLPC   H9R 7138   1.969   2.250   5.482  0.8220  0.2174  0.9140
   78SLPC  C210 7139   2.032   2.311   5.289  0.3603  0.3205  0.0163
   78SLPC  H10R 7140   1.927   2.310   5.258  0.6303  1.3787 -1.0150
   78SLPC  C211 7141   2.130   2.358   5.191 -0.4916 -0.7923  0.0428
   78SLPC  H11R 7142   2.151   2.464   5.220 -3.1638 -0.1047 -0.2639
   78SLPC  H11S 7143   2.068   2.361   5.099 -0.4680  0.2296  0.0425
   78SLPC  C212 7144   2.260   2.286   5.183  0.8239 -0.0653 -0.4508
   78SLPC  H12R 7145   2.273   2.188   5.230 -1.3699  0.0075  0.4444
   78SLPC  C213 7146   2.372   2.345   5.133  0.2277  0.1818 -0.2604
   78SLPC  H13R 7147   2.464   2.284   5.141 -1.3220 -2.1766  0.6472
   78SLPC  C214 7148   2.389   2.474   5.061 -0.1618  0.2375 -0.5742
   78SLPC  H14R 7149   2.483   2.526   5.092  0.0761 -0.8201  0.5608
   78SLPC  H14S 7150   2.307   2.548   5.069  0.4664  1.0781 -1.7126
   78SLPC  C215 7151   2.387   2.460   4.903  0.2555 -0.3169  0.5862
   78SLPC  H15R 7152   2.463   2.386   4.869 -0.1693 -0.1604 -0.7483
   78SLPC  H15S 7153   2.414   2.558   4.858  1.6692 -1.8155 -2.1063
   78SLPC  C216 7154   2.248   2.411   4.848  0.0043  0.5165  0.3997
   78SLPC  H16R 7155   2.184   2.403   4.938  1.0566  1.1426  1.2291
   78SLPC  H16S 7156   2.257   2.307   4.810  0.4256  1.6871 -3.1419
   78SLPC  C217 7157   2.172   2.493   4.740  0.4304 -0.2023 -1.2025
   78SLPC  H17R 7158   2.182   2.600   4.770 -2.8093 -0.6647  2.1521
   78SLPC  H17S 7159   2.064   2.471   4.742  0.7184 -1.6818  1.1059
   78SLPC  C218 7160   2.231   2.490   4.598 -0.2837  0.0663  0.0736
   78SLPC  H18R 7161   2.233   2.391   4.547  0.7487  1.2615 -2.4188
   78SLPC  H18S 7162   2.336   2.527   4.595  0.0650 -0.6395  2.2640
   78SLPC  H18T 7163   2.160   2.545   4.532 -1.8105 -2.3574 -0.4115
   78SLPC   C33 7164   2.224   1.940   5.980 -0.2261 -0.3046 -0.2168
   78SLPC   H3X 7165   2.121   1.956   5.943 -0.1245 -0.4567 -0.5719
   78SLPC   H3Y 7166   2.242   1.834   6.009 -1.0027 -0.7223 -1.2221
   78SLPC   C34 7167   2.319   1.953   5.864  0.9683 -0.2215  0.1692
   78SLPC   H4X 7168   2.421   1.919   5.892  0.3383 -2.5577 -0.1684
   78SLPC   H4Y 7169   2.335   2.057   5.826  0.9026 -0.1717  0.2787
   78SLPC   C35 7170   2.271   1.882   5.731  0.8082  0.1700  0.2430
   78SLPC   H5X 7171   2.162   1.899   5.729  0.7937  0.8856  2.8853
   78SLPC   H5Y 7172   2.287   1.773   5.747 -1.0381 -0.0015  1.2227
   78SLPC   C36 7173   2.346   1.927   5.608 -0.4543  0.1659  0.0750
   78SLPC   H6X 7174   2.456   1.917   5.623 -0.4791  1.1941  1.0277
   78SLPC   H6Y 7175   2.332   2.035   5.589  0.6928  0.2080 -0.5915
   78SLPC   C37 7176   2.287   1.854   5.490 -0.1030  1.0378 -0.2142
   78SLPC   H7X 7177   2.177   1.853   5.484 -0.1309 -2.6793 -3.8179
   78SLPC   H7Y 7178   2.305   1.747   5.511 -0.4517  1.2983  1.5724
   78SLPC   C38 7179   2.339   1.906   5.360  0.8373 -0.4160  0.4222
   78SLPC   H8X 7180   2.449   1.919   5.366  1.2004 -1.9299 -1.6917
   78SLPC   H8Y 7181   2.303   2.008   5.337 -1.0663 -1.5317 -1.9945
   78SLPC   C39 7182   2.314   1.812   5.245 -1.0181  0.4307  0.3991
   78SLPC   H9X 7183   2.204   1.807   5.235 -1.1266 -1.4154  1.9581
   78SLPC   H9Y 7184   2.355   1.711   5.269 -0.0077  1.0358  1.3360
   78SLPC  C310 7185   2.363   1.869   5.108  0.2788  0.3190 -0.3563
   78SLPC  H10X 7186   2.473   1.861   5.096  0.3549  1.7031 -0.7704
   78SLPC  H10Y 7187   2.328   1.974   5.104  1.3757  0.7395  0.6691
   78SLPC  C311 7188   2.314   1.788   4.984  0.4035 -0.5310  0.0150
   78SLPC  H11X 7189   2.204   1.801   4.987  0.6515  1.8316  1.5566
   78SLPC  H11Y 7190   2.334   1.680   5.004 -1.9979 -1.1845 -0.7389
   78SLPC  C312 7191   2.392   1.828   4.859 -0.2273 -0.1295  0.8808
   78SLPC  H12X 7192   2.492   1.781   4.861 -1.0257 -1.9727  3.7766
   78SLPC  H12Y 7193   2.401   1.939   4.857  0.7258 -0.2165 -0.4286
   78SLPC  C313 7194   2.326   1.798   4.726 -0.3463  0.0254 -0.6243
   78SLPC  H13X 7195   2.231   1.855   4.718 -0.4981  0.4965  2.9895
   78SLPC  H13Y 7196   2.293   1.693   4.712 -0.7506  0.2290 -1.2629
   78SLPC  C314 7197   2.422   1.817   4.606  0.4507 -0.3600  0.1466
   78SLPC  H14X 7198   2.370   1.799   4.510  1.8358  2.5470 -1.2956
   78SLPC  H14Y 7199   2.507   1.746   4.610  0.3361 -0.4427  2.8368
   78SLPC  C315 7200   2.466   1.961   4.600 -0.3160 -0.2917  0.0604
   78SLPC  H15X 7201   2.550   1.985   4.669 -0.1951  0.8571 -0.4613
   78SLPC  H15Y 7202   2.381   2.029   4.622  0.2368  0.2770  0.4887
   78SLPC  C316 7203   2.498   2.008   4.455 -0.2080 -0.4516 -0.5876
   78SLPC  H16X 7204   2.412   1.972   4.394 -0.6403 -0.1744 -0.1483
   78SLPC  H16Y 7205   2.597   1.970   4.422 -0.1236 -0.3803 -0.4180
   78SLPC  C317 7206   2.517   2.161   4.435  0.5548  0.0542  0.2694
   78SLPC  H17X 7207   2.420   2.215   4.428 -0.1539 -1.4272 -2.4679
   78SLPC  H17Y 7208   2.570   2.178   4.340  2.3864 -1.7673  0.9005
   78SLPC  C318 7209   2.604   2.227   4.533 -0.6005  0.0602 -0.0438
   78SLPC  H18X 7210   2.629   2.333   4.509  2.1899 -0.5549 -0.1030
   78SLPC  H18Y 7211   2.706   2.184   4.527 -0.7103 -0.0403 -2.3643
   78SLPC  H18Z 7212   2.568   2.230   4.638  0.1770  1.2085  0.2142
   79SLPC     N 7213   3.408   2.937   6.423  0.0414 -0.4087 -0.5021
   79SLPC   C13 7214   3.281   2.955   6.498  0.4128  0.3434  0.2494
   79SLPC  H13A 7215   3.285   3.042   6.562  1.2266 -1.1460  2.3330
   79SLPC  H13B 7216   3.197   2.970   6.432  0.9703  0.9084 -0.3393
   79SLPC  H13C 7217   3.251   2.871   6.559  0.2515 -1.1147 -1.7578
   79SLPC   C14 7218   3.517   2.932   6.525  0.7524 -0.4355 -0.0272
   79SLPC  H14A 7219   3.500   2.856   6.599  0.6961 -0.0930  0.3174
   79SLPC  H14B 7220   3.608   2.912   6.471  0.0312  1.5147 -2.1124
   79SLPC  H14C 7221   3.526   3.017   6.592  0.2052 -0.9892  0.7686
   79SLPC   C15 7222   3.415   3.051   6.334  0.0866  0.9397 -0.3964
   79SLPC  H15A 7223   3.334   3.038   6.263  1.0363 -1.1316 -1.1876
   79SLPC  H15B 7224   3.409   3.144   6.387  0.7068  0.5486  0.3858
   79SLPC  H15C 7225   3.506   3.050   6.276 -0.4720 -1.1831 -1.3441
   79SLPC   C12 7226   3.397   2.808   6.342  0.6133 -0.0741  0.5641
   79SLPC  H12A 7227   3.371   2.723   6.403 -1.4478 -1.6639 -2.2989
   79SLPC  H12B 7228   3.496   2.781   6.308  0.2012 -3.2091  1.5394
   79SLPC   C11 7229   3.289   2.802   6.231  0.1031 -0.3956 -0.5106
   79SLPC  H11A 7230   3.309   2.705   6.181  0.1074 -1.6219  1.7412
   79SLPC  H11B 7231   3.302   2.874   6.147 -0.1912 -0.3509 -0.5162
   79SLPC     P 7232   3.037   2.887   6.236 -0.0139 -0.0937 -0.0583
   79SLPC   O13 7233   2.911   2.817   6.267  0.6672  0.3575  0.3538
   79SLPC   O14 7234   3.059   3.021   6.292  0.3087 -0.0264 -0.0122
   79SLPC   O12 7235   3.156   2.793   6.284  0.0540 -0.3068  0.3750
   79SLPC   O11 7236   3.043   2.895   6.080 -0.4111 -0.4200 -0.4682
   79SLPC    C1 7237   2.933   2.852   6.001 -0.4320  0.2383  0.1765
   79SLPC    HA 7238   2.840   2.891   6.047 -0.5807  2.7453 -2.0575
   79SLPC    HB 7239   2.939   2.902   5.903 -0.4391 -1.2131 -0.5977
   79SLPC    C2 7240   2.941   2.696   5.978 -0.3869  0.9867 -0.0921
   79SLPC    HS 7241   2.927   2.652   6.079 -1.2885 -1.4558 -1.2171
   79SLPC   O21 7242   3.071   2.663   5.928  0.4911 -0.0391 -0.3863
   79SLPC   C21 7243   3.099   2.534   5.942 -0.1404  0.0472  0.9062
   79SLPC   O22 7244   3.021   2.450   5.990 -0.2946 -0.6494  0.2031
   79SLPC   C22 7245   3.242   2.512   5.886 -0.0457  0.0649 -0.3015
   79SLPC   H2R 7246   3.285   2.614   5.872 -0.3650  0.4580  1.3386
   79SLPC   H2S 7247   3.301   2.451   5.958  0.9187 -0.0887 -1.1983
   79SLPC    C3 7248   2.821   2.647   5.887 -0.3078  0.2433 -0.4288
   79SLPC    HX 7249   2.732   2.695   5.934 -0.0466  1.1791 -0.8653
   79SLPC    HY 7250   2.821   2.536   5.887 -1.0936  0.2207 -1.6976
   79SLPC   O31 7251   2.843   2.692   5.753 -0.9187  0.0117  1.1831
   79SLPC   C31 7252   2.745   2.744   5.679 -0.3013 -0.2851  0.6656
   79SLPC   O32 7253   2.631   2.762   5.717  0.4211  0.4325 -0.4960
   79SLPC   C32 7254   2.803   2.779   5.543 -0.3574  0.5480 -0.3097
   79SLPC   H2X 7255   2.909   2.744   5.543 -0.2165  0.9597  0.2381
   79SLPC   H2Y 7256   2.803   2.889   5.531 -0.2049  0.3023 -3.4196
   79SLPC   C23 7257   3.225   2.422   5.757 -0.9396 -0.2380  0.0775
   79SLPC   H3R 7258   3.175   2.324   5.769 -1.1352 -0.4707 -2.2063
   79SLPC   H3S 7259   3.329   2.388   5.745 -1.0519 -0.9319  0.9714
   79SLPC   C24 7260   3.193   2.496   5.628 -0.2910  0.0826 -0.6105
   79SLPC   H4R 7261   3.250   2.592   5.631 -2.6675  1.6242 -1.5377
   79SLPC   H4S 7262   3.088   2.530   5.641  0.3674  1.6138  1.0696
   79SLPC   C25 7263   3.203   2.414   5.504 -0.3489  0.6192  0.0033
   79SLPC   H5R 7264   3.141   2.323   5.513 -2.4301  2.0208  0.4793
   79SLPC   H5S 7265   3.309   2.383   5.491 -0.3999  0.4133  0.0811
   79SLPC   C26 7266   3.167   2.509   5.385  0.7501 -0.5412  0.0779
   79SLPC   H6R 7267   3.222   2.603   5.404 -0.4357  0.0871  0.5444
   79SLPC   H6S 7268   3.058   2.527   5.403  0.8143 -0.7913  0.7493
   79SLPC   C27 7269   3.180   2.451   5.244 -0.3666 -0.1509  0.0886
   79SLPC   H7R 7270   3.147   2.345   5.245  0.3418 -0.3797  1.1223
   79SLPC   H7S 7271   3.288   2.451   5.217 -0.3677 -0.8253  0.0539
   79SLPC   C28 7272   3.105   2.532   5.134 -0.0407 -0.7150  0.8247
   79SLPC   H8R 7273   3.109   2.640   5.160 -2.6717 -0.2522 -0.3327
   79SLPC   H8S 7274   2.996   2.510   5.141 -0.7209  2.0954  0.4738
   79SLPC   C29 7275   3.160   2.508   4.999  0.6208 -0.4883 -0.4983
   79SLPC   H9R 7276   3.270   2.510   4.996  0.6716 -1.9779 -0.3993
   79SLPC  C210 7277   3.094   2.470   4.890 -0.2821 -0.0572 -0.1729
   79SLPC  H10R 7278   3.143   2.463   4.792 -0.9210  2.1834 -0.7150
   79SLPC  C211 7279   2.942   2.435   4.873 -0.4159 -0.2176 -0.6163
   79SLPC  H11R 7280   2.888   2.481   4.958  1.3062  1.2720 -0.2599
   79SLPC  H11S 7281   2.915   2.327   4.882 -3.0986  0.5014  1.1274
   79SLPC  C212 7282   2.894   2.486   4.736  0.3435  0.3843  0.3690
   79SLPC  H12R 7283   2.829   2.575   4.744  0.7314  0.7312 -0.2096
   79SLPC  C213 7284   2.925   2.444   4.610 -0.5593  0.5370  0.5044
   79SLPC  H13R 7285   2.854   2.484   4.536 -1.6277 -0.3424  1.0274
   79SLPC  C214 7286   3.007   2.317   4.577  0.4676  0.3076  0.0988
   79SLPC  H14R 7287   2.953   2.265   4.495 -2.4260 -2.0635  3.2199
   79SLPC  H14S 7288   3.009   2.248   4.663 -0.4730 -2.5484 -2.0090
   79SLPC  C215 7289   3.154   2.347   4.539  0.0888  0.2480  0.4282
   79SLPC  H15R 7290   3.210   2.402   4.617  2.2938 -0.1499 -0.7804
   79SLPC  H15S 7291   3.156   2.400   4.441 -2.1399  0.2525  0.3348
   79SLPC  C216 7292   3.232   2.215   4.517  0.6741 -0.4311 -0.2000
   79SLPC  H16R 7293   3.253   2.161   4.612  1.1634 -2.2745 -1.3029
   79SLPC  H16S 7294   3.332   2.252   4.487  0.8080  0.8878  1.6941
   79SLPC  C217 7295   3.179   2.114   4.410 -0.6656 -1.1217  0.5578
   79SLPC  H17R 7296   3.149   2.164   4.315  2.2489 -1.4572 -0.6340
   79SLPC  H17S 7297   3.079   2.078   4.444 -0.3304  0.1744  3.2073
   79SLPC  C218 7298   3.278   2.010   4.369 -0.4458 -0.4696 -0.2098
   79SLPC  H18R 7299   3.250   1.949   4.281  0.5711  1.1725 -1.7333
   79SLPC  H18S 7300   3.297   1.947   4.459  1.5883 -1.1442 -1.0642
   79SLPC  H18T 7301   3.373   2.052   4.331 -1.8549  1.6367 -1.6484
   79SLPC   C33 7302   2.711   2.706   5.434 -0.0409 -0.2794 -0.0805
   79SLPC   H3X 7303   2.607   2.733   5.462  0.3527 -0.4193  1.6032
   79SLPC   H3Y 7304   2.726   2.596   5.437 -2.6448 -0.7624 -1.4461
   79SLPC   C34 7305   2.733   2.727   5.281  0.6087  0.0740  0.8263
   79SLPC   H4X 7306   2.648   2.682   5.226 -0.6116  0.3203  2.4436
   79SLPC   H4Y 7307   2.825   2.675   5.248 -0.3087 -0.6589 -0.6955
   79SLPC   C35 7308   2.749   2.880   5.257 -0.1403  0.8087 -0.1516
   79SLPC   H5X 7309   2.836   2.925   5.308  0.3064  0.2372 -0.3950
   79SLPC   H5Y 7310   2.669   2.934   5.313 -1.7007 -1.0664 -0.4336
   79SLPC   C36 7311   2.742   2.915   5.114  0.7795 -0.2632  0.2200
   79SLPC   H6X 7312   2.688   3.011   5.097  1.6753  0.4489  1.2898
   79SLPC   H6Y 7313   2.681   2.838   5.061  0.5259 -0.6513  1.0577
   79SLPC   C37 7314   2.884   2.918   5.049  0.1723 -0.0835  0.3655
   79SLPC   H7X 7315   2.948   2.832   5.078  1.7109  0.6486 -0.7283
   79SLPC   H7Y 7316   2.947   3.006   5.074  1.7631 -0.9846 -0.3507
   79SLPC   C38 7317   2.888   2.908   4.891  0.2812  0.5814  0.2041
   79SLPC   H8X 7318   2.835   2.999   4.856  0.4495 -0.3943 -2.8718
   79SLPC   H8Y 7319   2.818   2.824   4.870 -0.8639  1.3685  0.7856
   79SLPC   C39 7320   3.035   2.882   4.840  0.3502  0.0739  0.7353
   79SLPC   H9X 7321   3.083   2.804   4.902  0.3484 -2.1754 -1.8598
   79SLPC   H9Y 7322   3.098   2.973   4.843 -1.3591  1.4765 -1.6989
   79SLPC  C310 7323   3.034   2.825   4.701 -0.3484 -0.4739 -0.6275
   79SLPC  H10X 7324   2.980   2.900   4.641 -0.6761  0.0832  0.3382
   79SLPC  H10Y 7325   2.967   2.738   4.684  0.9234 -0.8959 -4.1808
   79SLPC  C311 7326   3.180   2.797   4.651 -0.7712 -0.2583 -0.2579
   79SLPC  H11X 7327   3.235   2.713   4.699 -0.2957  0.1327 -0.1119
   79SLPC  H11Y 7328   3.241   2.888   4.667  0.7174 -1.3133  0.3265
   79SLPC  C312 7329   3.179   2.776   4.495  1.1540  0.0571 -0.1885
   79SLPC  H12X 7330   3.146   2.865   4.438  0.5348 -0.6572 -0.9683
   79SLPC  H12Y 7331   3.099   2.703   4.470  0.5770  0.6149 -0.0014
   79SLPC  C313 7332   3.318   2.718   4.436  0.2771 -0.3889 -0.6173
   79SLPC  H13X 7333   3.348   2.638   4.507  1.2675  2.7664  2.8364
   79SLPC  H13Y 7334   3.390   2.803   4.440 -1.1315  0.8160  0.4183
   79SLPC  C314 7335   3.308   2.692   4.284  0.0222  0.1215 -0.6901
   79SLPC  H14X 7336   3.408   2.709   4.238  1.0816 -2.7363  0.3296
   79SLPC  H14Y 7337   3.234   2.757   4.234 -0.2545 -0.6569 -1.3182
   79SLPC  C315 7338   3.285   2.541   4.258 -0.9561  1.4181 -0.3182
   79SLPC  H15X 7339   3.178   2.514   4.266 -0.7035  0.2717 -0.5992
   79SLPC  H15Y 7340   3.340   2.484   4.336 -0.2351 -0.1909 -1.9281
   79SLPC  C316 7341   3.340   2.506   4.119 -0.1199 -0.3640  0.2627
   79SLPC  H16X 7342   3.441   2.551   4.106  0.0935 -0.8305  0.2908
   79SLPC  H16Y 7343   3.286   2.570   4.045  1.8547 -0.8882 -1.7204
   79SLPC  C317 7344   3.325   2.359   4.087  0.0137 -0.2166  0.1217
   79SLPC  H17X 7345   3.217   2.332   4.096  0.1373 -0.4763  0.8534
   79SLPC  H17Y 7346   3.374   2.310   4.173  0.7705 -1.3387 -0.9210
   79SLPC  C318 7347   3.385   2.319   3.949  0.0563 -0.8387 -0.2774
   79SLPC  H18X 7348   3.496   2.317   3.939  0.2849 -0.9891  1.8643
   79SLPC  H18Y 7349   3.335   2.391   3.880  0.6723  0.5539  0.6752
   79SLPC  H18Z 7350   3.361   2.212   3.928  4.4160 -1.4689 -3.4302
   80SLPC     N 7351   0.371   1.065   6.700 -0.1622 -0.2812  0.0951
   80SLPC   C13 7352   0.461   1.111   6.591  0.1695 -0.4958 -0.0945
   80SLPC  H13A 7353   0.448   1.057   6.498  1.6934  0.8249 -1.1205
   80SLPC  H13B 7354   0.425   1.212   6.577  0.2852 -0.3262  0.8164
   80SLPC  H13C 7355   0.558   1.132   6.632 -0.5229  1.1810  0.7505
   80SLPC   C14 7356   0.351   1.178   6.793 -0.7435 -0.4250  0.2551
   80SLPC  H14A 7357   0.297   1.149   6.882  1.0565  0.3706  1.6869
   80SLPC  H14B 7358   0.450   1.211   6.820 -0.9261  1.5474 -1.2066
   80SLPC  H14C 7359   0.294   1.262   6.755 -0.5187 -0.0280  0.7701
   80SLPC   C15 7360   0.435   0.948   6.773  0.5446  0.1903  0.2442
   80SLPC  H15A 7361   0.369   0.898   6.843  0.6320 -1.0771 -0.5549
   80SLPC  H15B 7362   0.462   0.876   6.697  0.8135  0.5949 -0.0429
   80SLPC  H15C 7363   0.517   0.980   6.837 -0.2645  3.7134 -0.2717
   80SLPC   C12 7364   0.241   1.007   6.646 -0.6237 -0.3645 -0.2180
   80SLPC  H12A 7365   0.166   1.006   6.724 -1.2247 -1.7837 -0.7654
   80SLPC  H12B 7366   0.256   0.905   6.614  0.7718  0.1280 -1.2099
   80SLPC   C11 7367   0.159   1.087   6.537 -0.2813  0.4213 -0.8433
   80SLPC  H11A 7368   0.065   1.028   6.524 -0.3743 -0.2378  2.1279
   80SLPC  H11B 7369   0.227   1.086   6.449  0.4923 -3.3789 -0.4002
   80SLPC     P 7370   0.155   1.343   6.506 -0.3727 -0.3223 -0.2973
   80SLPC   O13 7371   0.063   1.443   6.563  0.2886 -0.4251 -0.0581
   80SLPC   O14 7372   0.300   1.365   6.531  0.8646  0.1642 -0.1833
   80SLPC   O12 7373   0.118   1.211   6.588  0.3281 -0.6251 -0.3862
   80SLPC   O11 7374   0.125   1.321   6.354  0.3724  0.3389  0.4431
   80SLPC    C1 7375  -0.012   1.319   6.315  0.3097 -0.2788 -0.2495
   80SLPC    HA 7376  -0.076   1.260   6.383  1.7825  0.0180  1.4683
   80SLPC    HB 7377  -0.050   1.424   6.317  1.5037  0.1801  2.5570
   80SLPC    C2 7378  -0.035   1.264   6.170 -0.4239 -0.8850 -0.4687
   80SLPC    HS 7379  -0.144   1.243   6.167 -0.7202  0.6603 -1.9540
   80SLPC   O21 7380   0.040   1.146   6.136  0.2660 -0.5261 -0.3430
   80SLPC   C21 7381   0.015   1.019   6.182  0.0574  0.2567  0.1225
   80SLPC   O22 7382  -0.083   0.992   6.250 -0.0960 -0.1212  0.0762
   80SLPC   C22 7383   0.131   0.934   6.134 -0.2442  0.4731 -0.5357
   80SLPC   H2R 7384   0.226   0.992   6.141 -0.8557  1.8605 -2.7157
   80SLPC   H2S 7385   0.152   0.842   6.193 -0.3884  1.6232  1.3915
   80SLPC    C3 7386  -0.025   1.376   6.069 -0.2802 -0.4501 -0.0120
   80SLPC    HX 7387   0.078   1.417   6.072  0.1799 -1.4276 -1.2890
   80SLPC    HY 7388  -0.085   1.457   6.115 -0.2634  0.7074 -1.9423
   80SLPC   O31 7389  -0.077   1.340   5.941  0.0566 -0.5461 -0.4992
   80SLPC   C31 7390   0.016   1.310   5.850  0.6855  0.6469  0.0675
   80SLPC   O32 7391   0.136   1.311   5.862  0.4552  0.2041 -1.0773
   80SLPC   C32 7392  -0.059   1.283   5.721  0.5308 -0.4806 -0.5121
   80SLPC   H2X 7393  -0.103   1.378   5.683 -0.9808 -0.7384  0.4886
   80SLPC   H2Y 7394  -0.158   1.233   5.732  1.1141 -1.9777 -1.7208
   80SLPC   C23 7395   0.109   0.889   5.990  0.1866 -0.1311 -0.4410
   80SLPC   H3R 7396   0.096   0.986   5.937  2.6831  0.0802 -0.7822
   80SLPC   H3S 7397   0.018   0.825   5.987  0.9391 -1.2250 -0.5710
   80SLPC   C24 7398   0.215   0.824   5.905 -0.2202 -0.5290  0.0766
   80SLPC   H4R 7399   0.226   0.714   5.921 -2.8000 -1.1979 -2.0440
   80SLPC   H4S 7400   0.311   0.875   5.928  0.2721 -1.6817  0.6950
   80SLPC   C25 7401   0.194   0.854   5.754 -0.0983  0.3363  0.4106
   80SLPC   H5R 7402   0.242   0.952   5.731 -0.2116  0.3134  0.0826
   80SLPC   H5S 7403   0.084   0.848   5.751 -0.0609 -3.0935  1.8196
   80SLPC   C26 7404   0.248   0.744   5.671  0.0233  0.8878  0.1722
   80SLPC   H6R 7405   0.198   0.652   5.708  3.8300 -0.4749  2.5498
   80SLPC   H6S 7406   0.357   0.732   5.687  0.4730  2.9201 -0.9481
   80SLPC   C27 7407   0.234   0.778   5.522 -0.1493  0.3442 -0.4813
   80SLPC   H7R 7408   0.299   0.865   5.497  0.9797 -0.6908 -1.2336
   80SLPC   H7S 7409   0.129   0.805   5.496  0.3544  2.3695 -0.6373
   80SLPC   C28 7410   0.293   0.665   5.439  0.1664  0.2002  0.1302
   80SLPC   H8R 7411   0.234   0.575   5.468  0.7917 -0.5268 -0.7836
   80SLPC   H8S 7412   0.392   0.648   5.485 -1.5134 -2.3497  3.2077
   80SLPC   C29 7413   0.301   0.654   5.290  0.2138 -0.5671 -1.1131
   80SLPC   H9R 7414   0.205   0.656   5.237 -0.8183 -0.3561  0.6796
   80SLPC  C210 7415   0.416   0.648   5.219  0.0716  0.0667 -0.3196
   80SLPC  H10R 7416   0.396   0.639   5.111 -1.9512 -2.4229  0.1581
   80SLPC  C211 7417   0.559   0.669   5.264 -0.3452 -0.3299  0.0964
   80SLPC  H11R 7418   0.559   0.699   5.371  0.9993 -0.4432  0.1366
   80SLPC  H11S 7419   0.609   0.747   5.203  1.2143 -1.5400 -0.2361
   80SLPC  C212 7420   0.632   0.538   5.243  0.2029 -0.1003 -0.1732
   80SLPC  H12R 7421   0.652   0.486   5.338  2.9103 -0.6138 -0.9356
   80SLPC  C213 7422   0.661   0.477   5.121  0.8328  0.0434 -0.7793
   80SLPC  H13R 7423   0.704   0.376   5.124  1.8553  0.4848  0.5600
   80SLPC  C214 7424   0.630   0.534   4.985  0.4184  0.0326 -0.2165
   80SLPC  H14R 7425   0.715   0.519   4.916 -0.0077 -0.2167 -0.6940
   80SLPC  H14S 7426   0.605   0.641   4.974 -1.0039 -0.4874 -2.8846
   80SLPC  C215 7427   0.506   0.477   4.909 -0.0341 -0.8418  0.1005
   80SLPC  H15R 7428   0.417   0.469   4.975  0.6071  0.3886  1.1619
   80SLPC  H15S 7429   0.519   0.374   4.870 -1.6733 -1.4938  1.1499
   80SLPC  C216 7430   0.457   0.572   4.797  0.4021  0.0984  0.4404
   80SLPC  H16R 7431   0.543   0.577   4.727  2.9881  0.5102  3.4171
   80SLPC  H16S 7432   0.437   0.672   4.842  1.1116  0.1716  0.5976
   80SLPC  C217 7433   0.335   0.514   4.724  0.3732  0.5048 -0.2001
   80SLPC  H17R 7434   0.254   0.501   4.800 -0.9537  0.1671 -1.6301
   80SLPC  H17S 7435   0.349   0.416   4.675 -0.6489  0.4844 -0.4724
   80SLPC  C218 7436   0.276   0.600   4.611  0.0047 -0.5103 -0.1600
   80SLPC  H18R 7437   0.215   0.678   4.662  2.3005  1.8978 -0.8724
   80SLPC  H18S 7438   0.210   0.539   4.546  0.2851 -1.6424  0.5921
   80SLPC  H18T 7439   0.360   0.648   4.556  0.6548 -1.0608  0.3362
   80SLPC   C33 7440   0.016   1.221   5.609  0.3099 -0.2956 -0.0403
   80SLPC   H3X 7441   0.051   1.116   5.621 -1.1867 -0.9535 -1.0155
   80SLPC   H3Y 7442   0.107   1.281   5.588  0.4976 -0.9184 -1.0609
   80SLPC   C34 7443  -0.075   1.216   5.480 -0.6997 -0.2421  0.4900
   80SLPC   H4X 7444  -0.093   1.324   5.463  0.5443 -0.4403 -2.7825
   80SLPC   H4Y 7445  -0.171   1.168   5.509 -0.5423 -0.5839  0.4522
   80SLPC   C35 7446  -0.012   1.143   5.368 -0.6207 -0.2721  0.7931
   80SLPC   H5X 7447  -0.090   1.131   5.289  0.9185 -1.7994 -0.5818
   80SLPC   H5Y 7448   0.028   1.044   5.398 -0.6746 -0.0976  1.4496
   80SLPC   C36 7449   0.110   1.217   5.296  0.8018  0.0374  0.2780
   80SLPC   H6X 7450   0.197   1.197   5.361  0.1720 -2.3091  0.5015
   80SLPC   H6Y 7451   0.091   1.326   5.287  0.1159 -0.2028 -1.8013
   80SLPC   C37 7452   0.141   1.165   5.151  0.3362 -0.7533  0.0923
   80SLPC   H7X 7453   0.237   1.203   5.110  0.1329 -0.2357  0.1003
   80SLPC   H7Y 7454   0.061   1.206   5.085 -0.5422  0.7784  1.9991
   80SLPC   C38 7455   0.132   1.007   5.132 -1.3523  0.4526  0.3246
   80SLPC   H8X 7456   0.027   0.981   5.108 -0.8536 -1.2630 -0.1428
   80SLPC   H8Y 7457   0.167   0.973   5.232 -0.2130  0.6885  0.0255
   80SLPC   C39 7458   0.222   0.943   5.027  0.4567 -0.2866  0.1185
   80SLPC   H9X 7459   0.249   0.839   5.057  1.4648 -0.0087  0.2108
   80SLPC   H9Y 7460   0.319   0.995   5.016  0.7534 -1.1815 -1.9037
   80SLPC  C310 7461   0.161   0.921   4.891  0.2658 -0.4967 -0.7940
   80SLPC  H10X 7462   0.081   0.998   4.880 -0.3561 -0.9937  0.1753
   80SLPC  H10Y 7463   0.118   0.821   4.866  0.3448 -1.1256  1.3972
   80SLPC  C311 7464   0.255   0.955   4.771 -0.4971 -0.0163 -0.6509
   80SLPC  H11X 7465   0.332   0.881   4.740  0.7203  0.3453  1.3530
   80SLPC  H11Y 7466   0.326   1.034   4.804  0.0794 -0.5136 -0.6772
   80SLPC  C312 7467   0.176   0.997   4.639 -0.7726 -0.0962  0.1705
   80SLPC  H12X 7468   0.096   1.072   4.656 -2.3547 -1.5188 -0.6435
   80SLPC  H12Y 7469   0.114   0.912   4.603 -2.0616  0.6738  0.5288
   80SLPC  C313 7470   0.274   1.033   4.521  1.0067  0.0453 -0.9802
   80SLPC  H13X 7471   0.379   1.027   4.555  1.0056 -0.6059 -1.0805
   80SLPC  H13Y 7472   0.260   1.141   4.496 -1.6359 -0.1681 -0.6510
   80SLPC  C314 7473   0.243   0.949   4.392 -0.1836 -0.3471 -0.5096
   80SLPC  H14X 7474   0.135   0.944   4.365 -0.7377  0.0536  1.4388
   80SLPC  H14Y 7475   0.269   0.842   4.404 -0.5237 -0.2593  1.2683
   80SLPC  C315 7476   0.328   0.992   4.271  0.1021  0.0956 -0.3599
   80SLPC  H15X 7477   0.333   1.101   4.292 -1.1165  0.0260  0.4093
   80SLPC  H15Y 7478   0.269   0.986   4.177 -2.8432  2.7212  1.1077
   80SLPC  C316 7479   0.469   0.933   4.270  0.6508  0.4226 -0.8793
   80SLPC  H16X 7480   0.475   0.822   4.266  0.6905 -0.0318  4.6809
   80SLPC  H16Y 7481   0.517   0.950   4.368 -0.8398  0.5650 -0.1501
   80SLPC  C317 7482   0.557   0.991   4.159 -0.3770  0.1311  0.0609
   80SLPC  H17X 7483   0.576   1.099   4.177  0.0789  0.0969 -0.1946
   80SLPC  H17Y 7484   0.517   0.975   4.057  1.7003  0.3011 -0.8276
   80SLPC  C318 7485   0.696   0.925   4.152 -0.0262 -0.1336 -0.0964
   80SLPC  H18X 7486   0.709   0.817   4.129 -0.7559 -0.1277 -0.5567
   80SLPC  H18Y 7487   0.745   0.950   4.248  3.6720  4.1762 -2.6996
   80SLPC  H18Z 7488   0.757   0.987   4.083 -1.7009  0.3328 -1.2175
   81SLPC     N 7489   0.325   4.148   2.184  0.5542  0.3580  0.6980
   81SLPC   C13 7490   0.469   4.143   2.141 -0.0653 -0.0983 -0.5365
   81SLPC  H13A 7491   0.477   4.088   2.048  0.1693 -0.5434 -0.2596
   81SLPC  H13B 7492   0.492   4.247   2.127 -0.0699  0.0188  0.2690
   81SLPC  H13C 7493   0.536   4.112   2.220  0.2600  1.5542 -0.1423
   81SLPC   C14 7494   0.243   4.171   2.053  0.1662 -0.2227 -0.0615
   81SLPC  H14A 7495   0.286   4.254   2.000  1.8519 -0.3546  1.0274
   81SLPC  H14B 7496   0.243   4.090   1.982 -0.7737  0.6941 -1.1440
   81SLPC  H14C 7497   0.140   4.183   2.086  0.5160  0.8765  0.6983
   81SLPC   C15 7498   0.299   4.258   2.274 -0.6890  0.3948 -0.0896
   81SLPC  H15A 7499   0.193   4.252   2.292 -0.7891  0.5418 -0.6008
   81SLPC  H15B 7500   0.334   4.239   2.374  0.1146 -1.3537 -0.6723
   81SLPC  H15C 7501   0.332   4.357   2.244 -0.7514  0.2114 -0.7694
   81SLPC   C12 7502   0.287   4.013   2.246 -0.4404  0.4327 -0.1808
   81SLPC  H12A 7503   0.341   3.993   2.337  2.4252  0.2098 -1.8027
   81SLPC  H12B 7504   0.326   3.936   2.181  2.3386  1.0057  0.7088
   81SLPC   C11 7505   0.133   3.987   2.281  0.2327  0.5044  0.0226
   81SLPC  H11A 7506   0.115   3.878   2.300 -4.0331  1.3697  2.3732
   81SLPC  H11B 7507   0.072   4.013   2.192  0.4256  0.3155 -0.1640
   81SLPC     P 7508   0.121   4.021   2.536  0.1864  0.3291 -0.9341
   81SLPC   O13 7509   0.084   4.130   2.627  0.1886 -0.4166  0.4311
   81SLPC   O14 7510   0.053   3.897   2.550  0.7358  0.9033 -0.6837
   81SLPC   O12 7511   0.100   4.069   2.389  0.1263 -0.1601 -0.6554
   81SLPC   O11 7512   0.278   4.004   2.550  0.9356  0.4825 -0.4930
   81SLPC    C1 7513   0.345   3.873   2.551 -0.1926  0.4330  0.2457
   81SLPC    HA 7514   0.293   3.799   2.486  0.0327  1.1169 -0.7403
   81SLPC    HB 7515   0.434   3.890   2.485  1.0519 -0.9666  1.4744
   81SLPC    C2 7516   0.388   3.828   2.691  0.0515  0.2418  0.2793
   81SLPC    HS 7517   0.455   3.740   2.680  1.8990  1.8781 -3.3659
   81SLPC   O21 7518   0.271   3.802   2.768 -0.1547  0.6245 -0.4375
   81SLPC   C21 7519   0.206   3.687   2.737  0.1911  0.0812  0.0669
   81SLPC   O22 7520   0.250   3.602   2.663  0.5241  1.1313 -0.3967
   81SLPC   C22 7521   0.081   3.674   2.814 -0.2611  0.0134 -0.4049
   81SLPC   H2R 7522   0.023   3.759   2.773  1.5815  1.3236 -0.4517
   81SLPC   H2S 7523   0.038   3.577   2.783  1.0621 -0.7482  0.0390
   81SLPC    C3 7524   0.463   3.936   2.767 -0.5425  0.5874  0.5244
   81SLPC    HX 7525   0.396   4.024   2.769 -0.0805  0.9269  1.7301
   81SLPC    HY 7526   0.555   3.961   2.709 -1.4256  0.3601 -1.0379
   81SLPC   O31 7527   0.497   3.890   2.903 -0.1178 -0.0394 -0.3114
   81SLPC   C31 7528   0.414   3.939   2.996  0.8265 -0.1430 -0.5548
   81SLPC   O32 7529   0.318   4.011   2.976 -0.3825  0.0530 -0.0203
   81SLPC   C32 7530   0.448   3.875   3.128 -0.2429  0.2901 -0.7322
   81SLPC   H2X 7531   0.555   3.890   3.151 -0.1016 -1.0484 -0.4281
   81SLPC   H2Y 7532   0.418   3.768   3.131 -0.2208  0.2822 -0.7814
   81SLPC   C23 7533   0.101   3.693   2.967  0.0982 -0.4169  0.4498
   81SLPC   H3R 7534   0.104   3.803   2.983 -0.2244 -0.3204 -0.1213
   81SLPC   H3S 7535   0.200   3.650   2.992  0.3958  0.4750  0.8460
   81SLPC   C24 7536   0.002   3.613   3.044 -0.3145 -0.1657  0.4961
   81SLPC   H4R 7537   0.007   3.511   3.001 -3.7210  0.0224 -0.6896
   81SLPC   H4S 7538  -0.099   3.661   3.041  0.1784  0.9129  0.4902
   81SLPC   C25 7539   0.052   3.600   3.183  0.0521  0.0198  0.0766
   81SLPC   H5R 7540   0.065   3.707   3.212 -0.4801  1.4431 -4.1972
   81SLPC   H5S 7541   0.155   3.560   3.181  0.2631  0.5710 -1.4006
   81SLPC   C26 7542  -0.033   3.506   3.277  0.5940 -0.5984  0.0869
   81SLPC   H6R 7543  -0.029   3.405   3.231 -0.2276 -0.5631 -0.0672
   81SLPC   H6S 7544  -0.140   3.534   3.265  1.1001  1.4122 -0.1749
   81SLPC   C27 7545   0.012   3.503   3.419 -0.3831  0.1160 -0.3979
   81SLPC   H7R 7546   0.030   3.604   3.460 -1.7546 -0.4431  1.7302
   81SLPC   H7S 7547   0.113   3.458   3.422 -1.3607 -2.1553  1.1830
   81SLPC   C28 7548  -0.069   3.419   3.524 -0.2420  0.3509  0.8514
   81SLPC   H8R 7549  -0.007   3.386   3.610  1.4716 -2.7647 -1.3668
   81SLPC   H8S 7550  -0.099   3.324   3.474  0.4098 -0.2570  1.5981
   81SLPC   C29 7551  -0.208   3.468   3.568  0.0411 -0.2132  0.0967
   81SLPC   H9R 7552  -0.260   3.542   3.505  3.6533  1.7546 -0.8306
   81SLPC  C210 7553  -0.262   3.455   3.695 -0.1824  0.3811 -0.5465
   81SLPC  H10R 7554  -0.371   3.462   3.708 -0.1187  1.3566 -0.4623
   81SLPC  C211 7555  -0.189   3.372   3.806 -0.3348 -0.2285  0.3284
   81SLPC  H11R 7556  -0.118   3.442   3.855 -1.9475  2.7455 -1.2969
   81SLPC  H11S 7557  -0.129   3.292   3.758  1.1154  0.3173  1.1452
   81SLPC  C212 7558  -0.260   3.315   3.928 -0.0317 -0.1468  0.0286
   81SLPC  H12R 7559  -0.298   3.212   3.920 -2.7196  0.7337  0.3165
   81SLPC  C213 7560  -0.305   3.378   4.039  0.2827 -0.0206 -0.2875
   81SLPC  H13R 7561  -0.369   3.319   4.106 -1.7735  1.2827 -1.0248
   81SLPC  C214 7562  -0.286   3.526   4.076  0.6598  0.2329 -0.0238
   81SLPC  H14R 7563  -0.219   3.579   4.005  2.2116  0.9846  1.8892
   81SLPC  H14S 7564  -0.241   3.539   4.177 -0.1812  1.0666  0.2635
   81SLPC  C215 7565  -0.422   3.608   4.072  0.6490  0.4328  0.1471
   81SLPC  H15R 7566  -0.386   3.708   4.104 -0.1907  0.8077 -0.0559
   81SLPC  H15S 7567  -0.505   3.584   4.142  0.7962  1.4523  0.6782
   81SLPC  C216 7568  -0.477   3.632   3.932  0.3314  0.0208 -0.5015
   81SLPC  H16R 7569  -0.494   3.534   3.882 -2.1950  0.5132 -0.7086
   81SLPC  H16S 7570  -0.405   3.701   3.883  1.1526  1.4404  2.4787
   81SLPC  C217 7571  -0.596   3.715   3.948  1.2817 -0.5093 -0.3327
   81SLPC  H17R 7572  -0.589   3.803   4.015 -1.6316 -2.0392  2.2143
   81SLPC  H17S 7573  -0.683   3.660   3.991  0.2782  0.5565 -0.9439
   81SLPC  C218 7574  -0.646   3.747   3.805 -0.3689 -0.0294  0.3283
   81SLPC  H18R 7575  -0.687   3.661   3.747  0.9106 -0.7078  0.3905
   81SLPC  H18S 7576  -0.559   3.797   3.759  0.9025 -2.4569 -0.0820
   81SLPC  H18T 7577  -0.727   3.822   3.813 -0.0825  0.4775 -1.1963
   81SLPC   C33 7578   0.366   3.925   3.243  0.7998 -0.4451 -0.3817
   81SLPC   H3X 7579   0.260   3.915   3.212  0.4556 -2.1699  1.1814
   81SLPC   H3Y 7580   0.399   4.030   3.260  0.4240 -0.2195 -1.0166
   81SLPC   C34 7581   0.386   3.834   3.365 -0.0898  0.0182  0.4398
   81SLPC   H4X 7582   0.360   3.730   3.337 -1.5913  0.6397 -0.5894
   81SLPC   H4Y 7583   0.316   3.863   3.446 -0.4509 -1.2729  0.6093
   81SLPC   C35 7584   0.519   3.823   3.434 -0.5710  0.6586  0.1333
   81SLPC   H5X 7585   0.589   3.752   3.386 -2.1337 -1.0185  0.2356
   81SLPC   H5Y 7586   0.508   3.789   3.539 -1.2959  5.1784  1.7718
   81SLPC   C36 7587   0.605   3.942   3.433  0.2248  0.3035 -0.7538
   81SLPC   H6X 7588   0.533   4.018   3.470 -1.0413 -1.5429  0.7912
   81SLPC   H6Y 7589   0.640   3.970   3.332  3.8256  0.6988  0.4821
   81SLPC   C37 7590   0.725   3.946   3.528  1.0116  0.0185 -0.4889
   81SLPC   H7X 7591   0.762   4.051   3.521 -1.6349  1.1105  0.7927
   81SLPC   H7Y 7592   0.809   3.886   3.487  0.4079 -0.6217 -0.8124
   81SLPC   C38 7593   0.690   3.921   3.675  0.3752  0.1908  0.5679
   81SLPC   H8X 7594   0.694   3.811   3.693 -1.6014  0.0292  0.2988
   81SLPC   H8Y 7595   0.588   3.956   3.701 -0.4399 -0.9166 -0.9552
   81SLPC   C39 7596   0.785   3.998   3.764  0.0219 -0.5695 -0.1733
   81SLPC   H9X 7597   0.774   4.107   3.749 -1.1171 -0.5059  0.9937
   81SLPC   H9Y 7598   0.886   3.965   3.730  0.3016  1.5029 -1.5017
   81SLPC  C310 7599   0.770   3.971   3.915 -0.3382 -0.1232  0.3737
   81SLPC  H10X 7600   0.853   4.008   3.978 -0.4071 -1.1717  1.1083
   81SLPC  H10Y 7601   0.785   3.861   3.925  2.0658 -0.1084 -1.8226
   81SLPC  C311 7602   0.638   4.035   3.972  0.1621  0.1701 -0.0548
   81SLPC  H11X 7603   0.554   3.999   3.909 -0.3470 -0.5699  1.0028
   81SLPC  H11Y 7604   0.642   4.146   3.978 -0.4339  0.1498  1.1376
   81SLPC  C312 7605   0.594   3.975   4.111 -0.5038 -0.0618  0.3948
   81SLPC  H12X 7606   0.666   4.024   4.180  0.0883 -1.5096  0.8666
   81SLPC  H12Y 7607   0.606   3.865   4.127  1.2579  0.0912  0.3238
   81SLPC  C313 7608   0.453   4.016   4.145  0.1034  0.9264 -0.8415
   81SLPC  H13X 7609   0.434   3.979   4.248  0.1580 -1.8601 -1.7534
   81SLPC  H13Y 7610   0.377   3.966   4.081 -1.3166  0.8001  0.8717
   81SLPC  C314 7611   0.417   4.158   4.128  0.5003  0.6677 -0.2928
   81SLPC  H14X 7612   0.405   4.179   4.020 -0.1251 -2.1326 -0.8681
   81SLPC  H14Y 7613   0.499   4.224   4.161 -1.2568  1.4358  2.9869
   81SLPC  C315 7614   0.293   4.195   4.202 -0.0665 -0.1682  0.1341
   81SLPC  H15X 7615   0.320   4.223   4.306  0.0227 -1.3174  0.4404
   81SLPC  H15Y 7616   0.240   4.098   4.213  0.0505 -0.3240 -0.6254
   81SLPC  C316 7617   0.223   4.308   4.129 -0.3692  0.2921 -0.7197
   81SLPC  H16X 7618   0.202   4.282   4.023 -0.6756 -1.1799 -0.3163
   81SLPC  H16Y 7619   0.291   4.396   4.120 -1.3009  1.2526  1.0533
   81SLPC  C317 7620   0.101   4.371   4.200 -0.7728 -1.7073 -0.1543
   81SLPC  H17X 7621   0.132   4.431   4.288 -0.8173  1.5070 -2.1834
   81SLPC  H17Y 7622   0.016   4.301   4.218 -1.5350 -0.3290  2.0103
   81SLPC  C318 7623   0.046   4.472   4.095  0.6127  0.2871  0.0451
   81SLPC  H18X 7624   0.126   4.510   4.028 -1.3253  1.2282 -1.8249
   81SLPC  H18Y 7625   0.008   4.568   4.135  1.8362  1.7090 -1.9847
   81SLPC  H18Z 7626  -0.029   4.420   4.032  2.3464  0.7573 -2.5944
   82SLPC     N 7627   1.935   6.253   2.426 -0.0478  0.3045  0.2104
   82SLPC   C13 7628   1.801   6.313   2.454  0.2290 -0.5601  1.0176
   82SLPC  H13A 7629   1.724   6.306   2.379  1.2881  1.0867 -0.3057
   82SLPC  H13B 7630   1.760   6.275   2.546  1.6076 -2.4808  0.8925
   82SLPC  H13C 7631   1.805   6.421   2.466 -2.4169 -0.0167 -1.6491
   82SLPC   C14 7632   1.899   6.112   2.401 -0.0897  0.2423  0.0139
   82SLPC  H14A 7633   1.986   6.049   2.388 -0.3523 -0.4262  1.3570
   82SLPC  H14B 7634   1.829   6.070   2.472 -1.0774  1.3234 -0.2889
   82SLPC  H14C 7635   1.841   6.114   2.309  1.0146  1.2103 -0.6997
   82SLPC   C15 7636   2.022   6.252   2.541  0.5022 -0.2503 -0.4553
   82SLPC  H15A 7637   2.060   6.349   2.569 -0.2447 -0.5630  1.8565
   82SLPC  H15B 7638   1.971   6.197   2.618 -0.9136 -0.9391 -1.8481
   82SLPC  H15C 7639   2.113   6.200   2.513  0.8392 -1.0650  1.9050
   82SLPC   C12 7640   2.006   6.318   2.307  0.5458  0.1448  0.0548
   82SLPC  H12A 7641   1.995   6.425   2.313 -2.1621 -0.1252  1.0221
   82SLPC  H12B 7642   1.946   6.287   2.223 -0.7428 -1.1024  1.3735
   82SLPC   C11 7643   2.159   6.292   2.277 -0.5663  0.1144 -0.1008
   82SLPC  H11A 7644   2.211   6.327   2.369 -3.6736 -2.8813  3.1608
   82SLPC  H11B 7645   2.191   6.351   2.189 -0.2186 -0.1786 -0.1711
   82SLPC     P 7646   2.273   6.051   2.314  0.2385 -0.1512 -0.1041
   82SLPC   O13 7647   2.188   5.991   2.422  0.2133  0.7396  0.1963
   82SLPC   O14 7648   2.338   5.967   2.207 -0.2388  0.5634  0.2211
   82SLPC   O12 7649   2.181   6.157   2.242 -0.4565 -0.5784 -0.2336
   82SLPC   O11 7650   2.384   6.142   2.385 -0.1338 -0.7923  0.4811
   82SLPC    C1 7651   2.476   6.094   2.482  0.4831  0.1130  0.1665
   82SLPC    HA 7652   2.489   5.984   2.490  1.2543  0.3078  2.7005
   82SLPC    HB 7653   2.583   6.114   2.458  0.9170 -4.3014 -2.8513
   82SLPC    C2 7654   2.436   6.150   2.622  0.0131 -0.3678 -0.5174
   82SLPC    HS 7655   2.327   6.133   2.618 -0.2218  1.0267 -0.2875
   82SLPC   O21 7656   2.458   6.293   2.630 -0.5069  0.5315 -0.0902
   82SLPC   C21 7657   2.387   6.364   2.709 -0.0210  0.5806 -0.0950
   82SLPC   O22 7658   2.285   6.325   2.765  0.0312 -0.3884  0.3235
   82SLPC   C22 7659   2.453   6.504   2.729 -0.5407  0.2954  0.0765
   82SLPC   H2R 7660   2.512   6.526   2.637  0.3539 -0.7280  0.3684
   82SLPC   H2S 7661   2.372   6.577   2.746 -0.4540  0.0039  1.9482
   82SLPC    C3 7662   2.502   6.060   2.731 -0.2527  0.8554 -0.6112
   82SLPC    HX 7663   2.611   6.083   2.740 -0.3323  1.0725 -0.1499
   82SLPC    HY 7664   2.495   5.956   2.692 -0.1995  0.7815 -0.4282
   82SLPC   O31 7665   2.459   6.079   2.867 -0.4037  0.4113 -0.1879
   82SLPC   C31 7666   2.339   6.021   2.892 -0.3469 -0.1602 -0.8545
   82SLPC   O32 7667   2.272   5.963   2.816 -0.4539  0.2706  0.1806
   82SLPC   C32 7668   2.309   6.050   3.041  0.3718  0.7087 -0.1609
   82SLPC   H2X 7669   2.237   6.135   3.042  1.3329  1.5395  0.3062
   82SLPC   H2Y 7670   2.395   6.067   3.110  0.0413 -1.5407  0.9158
   82SLPC   C23 7671   2.535   6.503   2.851  1.0599  0.2443 -0.0388
   82SLPC   H3R 7672   2.604   6.589   2.867 -0.1527  0.7569  3.1416
   82SLPC   H3S 7673   2.604   6.415   2.856 -0.5292 -1.0388  0.2124
   82SLPC   C24 7674   2.443   6.493   2.977  0.2867 -0.2794  0.0706
   82SLPC   H4R 7675   2.394   6.393   2.980  0.3424 -0.3289 -0.5201
   82SLPC   H4S 7676   2.359   6.564   2.960  0.7171  0.1216 -0.4219
   82SLPC   C25 7677   2.518   6.519   3.103 -0.5106 -0.1534  0.0477
   82SLPC   H5R 7678   2.555   6.624   3.104  2.9043 -1.2367 -0.2141
   82SLPC   H5S 7679   2.612   6.461   3.114  0.5604  1.5266  0.0889
   82SLPC   C26 7680   2.436   6.509   3.229  0.1835  0.0685 -0.1790
   82SLPC   H6R 7681   2.413   6.404   3.258 -0.4115  0.3729  0.4581
   82SLPC   H6S 7682   2.341   6.564   3.214  1.5134  2.2027 -1.1006
   82SLPC   C27 7683   2.502   6.566   3.356 -0.2600 -0.3635 -0.3563
   82SLPC   H7R 7684   2.506   6.674   3.330  0.9287  0.0074  1.1934
   82SLPC   H7S 7685   2.604   6.535   3.388 -0.5884  2.0301  3.8259
   82SLPC   C28 7686   2.410   6.544   3.483  0.0097  1.2530  0.5833
   82SLPC   H8R 7687   2.389   6.438   3.510 -0.9326  2.0422  3.2581
   82SLPC   H8S 7688   2.314   6.592   3.455 -0.0553  0.1980 -1.1895
   82SLPC   C29 7689   2.475   6.615   3.598  0.4711 -0.1369 -0.2663
   82SLPC   H9R 7690   2.525   6.708   3.567 -0.7484 -0.2170 -2.6998
   82SLPC  C210 7691   2.483   6.574   3.724  0.7956  0.2065  0.0617
   82SLPC  H10R 7692   2.529   6.642   3.798 -2.1612  2.6330 -0.1315
   82SLPC  C211 7693   2.414   6.457   3.783 -0.2686  0.0364  0.0955
   82SLPC  H11R 7694   2.460   6.427   3.879 -0.1697  0.1312  0.0776
   82SLPC  H11S 7695   2.416   6.367   3.717 -0.7168  0.5637 -0.6593
   82SLPC  C212 7696   2.271   6.486   3.811  0.3873 -0.0901  0.4162
   82SLPC  H12R 7697   2.200   6.495   3.727 -1.0671 -2.2837  1.3295
   82SLPC  C213 7698   2.221   6.476   3.932  0.6804  0.4635 -0.3997
   82SLPC  H13R 7699   2.118   6.514   3.941  0.8560  0.5757  1.6556
   82SLPC  C214 7700   2.281   6.459   4.071  0.3252  0.4608  1.0654
   82SLPC  H14R 7701   2.230   6.525   4.144  1.6334  0.9307  1.5844
   82SLPC  H14S 7702   2.383   6.503   4.066  0.7437 -0.6105 -1.1410
   82SLPC  C215 7703   2.285   6.311   4.108 -0.0610  0.3860  0.6901
   82SLPC  H15R 7704   2.326   6.258   4.020  2.3790  3.4139 -0.1563
   82SLPC  H15S 7705   2.178   6.288   4.126 -0.6345  1.4699 -1.0891
   82SLPC  C216 7706   2.367   6.293   4.240  0.1322 -0.0912  1.1626
   82SLPC  H16R 7707   2.472   6.328   4.243  0.6134 -1.1573 -1.0874
   82SLPC  H16S 7708   2.378   6.184   4.261  1.6960  0.3539  2.9415
   82SLPC  C217 7709   2.300   6.357   4.360  0.1198  0.5068 -0.7178
   82SLPC  H17R 7710   2.201   6.408   4.354 -0.0651  0.2928  0.2480
   82SLPC  H17S 7711   2.374   6.434   4.391  0.4197 -0.1605  0.2657
   82SLPC  C218 7712   2.294   6.256   4.474  0.5276  0.1988  0.3131
   82SLPC  H18R 7713   2.285   6.313   4.569 -0.2452  0.1308  0.2856
   82SLPC  H18S 7714   2.381   6.187   4.476 -0.0221 -0.4908  1.5568
   82SLPC  H18T 7715   2.205   6.189   4.475  0.5938  0.0877 -0.7383
   82SLPC   C33 7716   2.234   5.928   3.102 -0.3410 -0.3238  0.3278
   82SLPC   H3X 7717   2.316   5.853   3.109  1.1073  1.3231  2.2697
   82SLPC   H3Y 7718   2.154   5.892   3.034  0.7391 -0.4857 -0.8802
   82SLPC   C34 7719   2.168   5.956   3.241 -1.1835 -0.1620  0.1032
   82SLPC   H4X 7720   2.113   5.864   3.270 -2.2819 -0.1011 -1.6436
   82SLPC   H4Y 7721   2.091   6.033   3.219  0.6619  1.5043 -0.7631
   82SLPC   C35 7722   2.267   6.019   3.351  1.2937 -0.2003  0.3865
   82SLPC   H5X 7723   2.328   6.107   3.321  2.2243 -1.2412 -0.8574
   82SLPC   H5Y 7724   2.340   5.939   3.380  1.1631 -0.0128  1.2751
   82SLPC   C36 7725   2.186   6.063   3.473  0.0941 -0.2122  0.1790
   82SLPC   H6X 7726   2.109   5.988   3.499  0.1165 -0.5082 -0.5773
   82SLPC   H6Y 7727   2.151   6.165   3.447  3.0264  0.6794 -0.7103
   82SLPC   C37 7728   2.273   6.089   3.595  0.4869 -0.1512 -0.5272
   82SLPC   H7X 7729   2.362   6.149   3.567  1.0706 -2.0542 -3.0742
   82SLPC   H7Y 7730   2.310   5.990   3.630  0.4747 -0.4483 -1.3429
   82SLPC   C38 7731   2.192   6.145   3.714  0.4686  0.3053 -0.6387
   82SLPC   H8X 7732   2.137   6.235   3.679  0.1879  0.1987 -0.4805
   82SLPC   H8Y 7733   2.263   6.183   3.790  3.7307 -0.5415 -3.0641
   82SLPC   C39 7734   2.095   6.040   3.777 -0.3546  0.3824 -0.1128
   82SLPC   H9X 7735   2.157   5.956   3.815 -1.4098 -0.6543 -0.6247
   82SLPC   H9Y 7736   2.022   6.005   3.701  0.7153 -0.1381 -0.9408
   82SLPC  C310 7737   2.026   6.111   3.892 -0.4035 -0.1723  0.1336
   82SLPC  H10X 7738   1.964   6.199   3.865 -2.2687 -1.2072  0.8257
   82SLPC  H10Y 7739   2.107   6.162   3.950  2.7775  3.4243 -6.3627
   82SLPC  C311 7740   1.948   6.022   3.984  0.1119  0.3578  0.5128
   82SLPC  H11X 7741   2.025   5.961   4.036  3.0207  3.3919  0.1126
   82SLPC  H11Y 7742   1.882   5.963   3.917  1.4394  0.3800 -0.8507
   82SLPC  C312 7743   1.857   6.098   4.088 -0.0280  0.3124  0.3088
   82SLPC  H12X 7744   1.768   6.037   4.114  0.2526  0.4869  1.7867
   82SLPC  H12Y 7745   1.820   6.190   4.038 -1.3236 -1.1091 -1.5067
   82SLPC  C313 7746   1.924   6.127   4.224  0.2135  0.0491  0.6937
   82SLPC  H13X 7747   2.009   6.197   4.210  1.2097 -1.6058 -2.8221
   82SLPC  H13Y 7748   1.960   6.030   4.266  1.1473 -0.1047 -0.4113
   82SLPC  C314 7749   1.826   6.173   4.329  0.5469 -0.6555 -0.1860
   82SLPC  H14X 7750   1.751   6.095   4.353 -2.9221  2.4113 -0.0734
   82SLPC  H14Y 7751   1.756   6.253   4.296  2.8579  1.2106 -0.8606
   82SLPC  C315 7752   1.892   6.223   4.460 -0.3736  0.5372 -0.5803
   82SLPC  H15X 7753   1.953   6.314   4.443 -0.2934  0.5428 -0.2756
   82SLPC  H15Y 7754   1.953   6.148   4.516 -1.2183  2.3742  3.1683
   82SLPC  C316 7755   1.785   6.264   4.567 -0.4495  0.5423 -0.1778
   82SLPC  H16X 7756   1.718   6.178   4.589  0.6028 -0.0221  0.8901
   82SLPC  H16Y 7757   1.714   6.341   4.530 -0.6993  1.1123  1.4096
   82SLPC  C317 7758   1.829   6.301   4.711  0.2490  0.0915  0.3616
   82SLPC  H17X 7759   1.912   6.376   4.713  1.2310 -0.9645  1.8292
   82SLPC  H17Y 7760   1.861   6.206   4.760 -0.3493  0.7844  2.1886
   82SLPC  C318 7761   1.709   6.366   4.780  0.1783 -0.5367 -0.3670
   82SLPC  H18X 7762   1.620   6.300   4.768 -0.9171  0.1491  2.8591
   82SLPC  H18Y 7763   1.686   6.467   4.739  2.2709 -0.9224 -2.7105
   82SLPC  H18Z 7764   1.721   6.373   4.891  2.0565  1.3333 -0.6272
   83SLPC     N 7765   0.951   4.322   1.930  0.4049 -0.6938  0.5525
   83SLPC   C13 7766   0.882   4.189   1.919 -0.1946 -0.5159 -0.2407
   83SLPC  H13A 7767   0.776   4.190   1.942 -0.3830 -0.9428 -1.0656
   83SLPC  H13B 7768   0.888   4.140   1.823 -1.8960  1.2069 -1.2966
   83SLPC  H13C 7769   0.920   4.128   2.001  0.9212  0.5817  0.0834
   83SLPC   C14 7770   0.914   4.400   1.813  0.0339 -0.0295  0.4777
   83SLPC  H14A 7771   0.811   4.432   1.810  0.1120  0.1561 -0.9928
   83SLPC  H14B 7772   0.985   4.479   1.793  0.0234 -0.6727 -2.6492
   83SLPC  H14C 7773   0.934   4.339   1.726 -1.4961 -0.8887  0.6872
   83SLPC   C15 7774   1.096   4.308   1.924 -0.6297 -0.8279 -0.5880
   83SLPC  H15A 7775   1.138   4.406   1.940 -3.3537  0.2992  0.4565
   83SLPC  H15B 7776   1.126   4.241   2.003 -1.4305 -0.4486  0.0581
   83SLPC  H15C 7777   1.136   4.268   1.833 -0.0565 -1.0194 -0.2576
   83SLPC   C12 7778   0.913   4.401   2.056  0.3117  0.2439 -0.5852
   83SLPC  H12A 7779   0.807   4.415   2.067 -0.0007 -2.7595  1.3841
   83SLPC  H12B 7780   0.962   4.497   2.063 -1.4597  1.4572 -3.1004
   83SLPC   C11 7781   0.936   4.329   2.191 -0.1276 -0.6373  0.8342
   83SLPC  H11A 7782   0.886   4.390   2.270 -1.7336 -0.6674 -0.1174
   83SLPC  H11B 7783   1.045   4.344   2.209  0.0875  0.9264 -1.4236
   83SLPC     P 7784   0.821   4.145   2.330 -0.3706  0.1144 -0.0264
   83SLPC   O13 7785   0.691   4.212   2.329 -0.1529 -0.5631 -0.4469
   83SLPC   O14 7786   0.815   3.997   2.337  0.1131  0.1828  0.4127
   83SLPC   O12 7787   0.896   4.194   2.202  0.6675  0.0813  0.3676
   83SLPC   O11 7788   0.924   4.207   2.439 -0.5911 -0.7508 -0.3677
   83SLPC    C1 7789   1.058   4.152   2.458  0.1762 -0.1158  0.1982
   83SLPC    HA 7790   1.073   4.053   2.408  1.3878  0.0403  0.2447
   83SLPC    HB 7791   1.129   4.227   2.417 -0.2366  0.6504  0.8587
   83SLPC    C2 7792   1.085   4.130   2.601 -0.1589  0.5231  0.2698
   83SLPC    HS 7793   1.182   4.077   2.610 -0.9106 -0.7313  1.4906
   83SLPC   O21 7794   0.974   4.055   2.649  0.3719 -0.0765  0.3931
   83SLPC   C21 7795   0.971   3.928   2.610  0.0766  0.5914  0.4502
   83SLPC   O22 7796   1.070   3.864   2.567  0.8374 -1.3534  0.2161
   83SLPC   C22 7797   0.840   3.859   2.644 -0.7268  0.8648  0.0184
   83SLPC   H2R 7798   0.762   3.938   2.643 -1.9438 -0.1698  2.8666
   83SLPC   H2S 7799   0.825   3.790   2.559  1.1937  1.3654 -0.7884
   83SLPC    C3 7800   1.108   4.260   2.686  0.8832 -0.2440 -0.0983
   83SLPC    HX 7801   1.018   4.317   2.651  0.7300 -0.8029 -0.6329
   83SLPC    HY 7802   1.198   4.314   2.650  0.6048 -0.1240 -0.6373
   83SLPC   O31 7803   1.121   4.236   2.827  0.0103 -0.2205  0.3535
   83SLPC   C31 7804   1.114   4.348   2.901 -0.3016  0.0102  0.5552
   83SLPC   O32 7805   1.101   4.463   2.855 -0.3891  0.7687 -0.0032
   83SLPC   C32 7806   1.142   4.314   3.040  0.3709  0.2090 -0.1844
   83SLPC   H2X 7807   1.188   4.213   3.049 -2.6200 -1.1177  2.0700
   83SLPC   H2Y 7808   1.049   4.305   3.100 -0.3925 -1.0992 -1.4980
   83SLPC   C23 7809   0.841   3.785   2.778  0.2753  0.1584  0.2692
   83SLPC   H3R 7810   0.923   3.710   2.777  0.1207 -0.0600  1.6295
   83SLPC   H3S 7811   0.745   3.736   2.805  0.9003 -1.2128  0.0797
   83SLPC   C24 7812   0.879   3.883   2.892 -0.2031 -0.1460 -0.0971
   83SLPC   H4R 7813   0.833   3.982   2.875 -0.7449 -0.9034 -3.6390
   83SLPC   H4S 7814   0.986   3.910   2.881  0.0533 -1.6211 -1.6383
   83SLPC   C25 7815   0.842   3.829   3.030  0.2173 -0.0163  1.3300
   83SLPC   H5R 7816   0.879   3.725   3.029 -1.4357 -0.6428 -0.6986
   83SLPC   H5S 7817   0.731   3.824   3.034  0.1750  1.2119  2.7130
   83SLPC   C26 7818   0.869   3.898   3.166 -0.7466 -0.2699 -0.4737
   83SLPC   H6R 7819   0.841   3.831   3.250 -0.7716 -0.1940 -0.4213
   83SLPC   H6S 7820   0.826   3.999   3.182  0.4715 -0.2145  3.4440
   83SLPC   C27 7821   1.022   3.920   3.179  0.0544  0.3167 -0.1302
   83SLPC   H7R 7822   1.049   3.988   3.095 -0.0779 -2.9575 -3.0457
   83SLPC   H7S 7823   1.088   3.832   3.163 -0.6364 -0.0637 -0.9886
   83SLPC   C28 7824   1.057   3.981   3.315  0.4245  0.4918 -0.4584
   83SLPC   H8R 7825   1.005   3.922   3.393 -0.7812  0.4946 -1.2299
   83SLPC   H8S 7826   1.017   4.085   3.325 -0.5820 -0.0773  2.3509
   83SLPC   C29 7827   1.205   3.976   3.343  0.2054  0.4365 -0.4721
   83SLPC   H9R 7828   1.270   4.045   3.287  0.3590 -0.8741 -1.9889
   83SLPC  C210 7829   1.272   3.890   3.423 -0.2312 -0.4207  0.6162
   83SLPC  H10R 7830   1.376   3.916   3.447 -1.0771  4.2149  0.1804
   83SLPC  C211 7831   1.213   3.780   3.501  0.0905 -0.5977  0.3359
   83SLPC  H11R 7832   1.143   3.721   3.438  1.7066 -1.6246 -0.5670
   83SLPC  H11S 7833   1.150   3.819   3.584  0.8354 -0.3205  0.7842
   83SLPC  C212 7834   1.321   3.686   3.551  0.3035  0.3251  0.6197
   83SLPC  H12R 7835   1.333   3.592   3.496  1.5966  2.2990 -2.7554
   83SLPC  C213 7836   1.383   3.702   3.668 -0.4340 -0.2312  0.3894
   83SLPC  H13R 7837   1.465   3.636   3.701  1.1217  1.0812 -0.6780
   83SLPC  C214 7838   1.357   3.818   3.761 -0.3661 -0.0881  0.0231
   83SLPC  H14R 7839   1.342   3.786   3.867  1.8938  0.0959  0.4505
   83SLPC  H14S 7840   1.261   3.870   3.740  0.4830  1.3027 -0.5040
   83SLPC  C215 7841   1.474   3.917   3.755 -0.3136  0.0192 -0.1355
   83SLPC  H15R 7842   1.463   3.984   3.843 -0.5753  0.0754 -0.2134
   83SLPC  H15S 7843   1.457   3.990   3.673  1.9690  0.4743 -0.2935
   83SLPC  C216 7844   1.616   3.846   3.765  0.8753  0.3733  0.1010
   83SLPC  H16R 7845   1.648   3.776   3.685  2.7941 -0.0298  1.1605
   83SLPC  H16S 7846   1.609   3.788   3.860  1.9403 -0.9106 -0.5630
   83SLPC  C217 7847   1.728   3.950   3.774  0.3970 -0.2258 -0.0590
   83SLPC  H17R 7848   1.687   4.043   3.819 -0.5507  0.1485 -1.6020
   83SLPC  H17S 7849   1.759   3.974   3.670 -0.4774 -1.9914 -0.7769
   83SLPC  C218 7850   1.841   3.893   3.858 -0.9415 -0.3148  0.7007
   83SLPC  H18R 7851   1.812   3.861   3.960  0.3813  1.5997  1.7493
   83SLPC  H18S 7852   1.923   3.967   3.871 -1.6444  0.0934  3.0907
   83SLPC  H18T 7853   1.880   3.802   3.808 -0.7243 -1.1586  2.3638
   83SLPC   C33 7854   1.236   4.417   3.106 -0.2723 -0.8881 -0.0499
   83SLPC   H3X 7855   1.206   4.524   3.094  1.5183 -0.0753  2.0419
   83SLPC   H3Y 7856   1.332   4.406   3.052 -0.5527  1.6134 -1.2467
   83SLPC   C34 7857   1.266   4.384   3.250  0.5304 -0.2770  0.0233
   83SLPC   H4X 7858   1.283   4.277   3.275  1.1565 -0.2617 -0.3058
   83SLPC   H4Y 7859   1.173   4.415   3.302 -0.4918  0.7106 -2.2255
   83SLPC   C35 7860   1.386   4.455   3.305  0.2481 -0.1880  0.6614
   83SLPC   H5X 7861   1.379   4.560   3.270  0.7824 -0.6275 -0.8794
   83SLPC   H5Y 7862   1.470   4.416   3.244 -1.9697 -2.0205 -1.4312
   83SLPC   C36 7863   1.407   4.442   3.459  0.1705  0.6320  0.1529
   83SLPC   H6X 7864   1.430   4.334   3.470 -1.2117  0.5256  2.7562
   83SLPC   H6Y 7865   1.310   4.471   3.504 -0.7578  1.3999 -2.2231
   83SLPC   C37 7866   1.534   4.512   3.506  0.1427 -0.4657 -0.1490
   83SLPC   H7X 7867   1.536   4.620   3.479  0.9910 -0.5286 -0.3738
   83SLPC   H7Y 7868   1.622   4.475   3.448  1.4898  1.6179  0.4455
   83SLPC   C38 7869   1.557   4.487   3.654  0.1473 -1.1715  0.1024
   83SLPC   H8X 7870   1.661   4.519   3.677  0.2504 -0.7963 -0.8440
   83SLPC   H8Y 7871   1.549   4.378   3.670 -1.5323 -1.1081 -0.1140
   83SLPC   C39 7872   1.448   4.556   3.745 -0.6090  0.1875  0.1876
   83SLPC   H9X 7873   1.349   4.512   3.720  0.7551 -2.8083 -0.4301
   83SLPC   H9Y 7874   1.451   4.662   3.712 -2.6587 -0.4263 -2.2830
   83SLPC  C310 7875   1.484   4.549   3.900 -0.2579 -0.3169  0.9326
   83SLPC  H10X 7876   1.518   4.445   3.917  2.9082  0.1033 -1.8183
   83SLPC  H10Y 7877   1.388   4.558   3.955 -0.1140 -1.3496  1.3671
   83SLPC  C311 7878   1.592   4.647   3.940 -0.9271  0.2938 -0.1855
   83SLPC  H11X 7879   1.549   4.748   3.957  1.0235  0.9022  1.6341
   83SLPC  H11Y 7880   1.679   4.669   3.874 -0.7822  1.8108  0.4627
   83SLPC  C312 7881   1.653   4.624   4.086  0.7302  0.0195 -0.0135
   83SLPC  H12X 7882   1.644   4.521   4.125  1.3119  0.6166  1.7743
   83SLPC  H12Y 7883   1.590   4.683   4.156 -1.5629  0.6611 -2.4470
   83SLPC  C313 7884   1.801   4.657   4.100 -0.6498  0.4079 -0.4905
   83SLPC  H13X 7885   1.820   4.616   4.202 -2.8816  1.3868  0.3701
   83SLPC  H13Y 7886   1.834   4.763   4.106 -1.8885  0.7143  2.0985
   83SLPC  C314 7887   1.901   4.585   3.998  0.5597 -0.1706 -0.4951
   83SLPC  H14X 7888   2.002   4.597   4.043  1.1385 -2.2383 -1.1340
   83SLPC  H14Y 7889   1.911   4.632   3.898 -0.8302  0.9932 -0.1106
   83SLPC  C315 7890   1.874   4.440   3.991  0.0147  0.4104 -0.1365
   83SLPC  H15X 7891   1.962   4.395   3.941  0.2597 -1.3128  1.7224
   83SLPC  H15Y 7892   1.783   4.411   3.935 -0.8124 -0.5434  1.6098
   83SLPC  C316 7893   1.878   4.371   4.131  0.0616 -0.5447  0.1253
   83SLPC  H16X 7894   1.780   4.395   4.177 -0.2513  0.7756 -1.1305
   83SLPC  H16Y 7895   1.960   4.407   4.196  0.5169 -0.4508 -0.4883
   83SLPC  C317 7896   1.884   4.217   4.126 -0.3591 -1.0656  0.0069
   83SLPC  H17X 7897   1.837   4.186   4.031 -1.4241 -0.6910  0.4036
   83SLPC  H17Y 7898   1.830   4.179   4.215 -1.4179  2.4920  1.0407
   83SLPC  C318 7899   2.027   4.155   4.129  0.3710  0.0027 -0.3715
   83SLPC  H18X 7900   2.103   4.235   4.139 -0.7260  1.4752 -2.9155
   83SLPC  H18Y 7901   2.039   4.103   4.031 -0.3321  2.1818 -1.6712
   83SLPC  H18Z 7902   2.038   4.078   4.209  0.4737  0.8024  0.4024
   84SLPC     N 7903   2.238   1.031   2.231 -1.3269  0.8769 -0.3685
   84SLPC   C13 7904   2.142   0.920   2.275  0.5199 -0.1173  0.6387
   84SLPC  H13A 7905   2.078   0.940   2.360 -0.5132  0.5117 -0.2632
   84SLPC  H13B 7906   2.091   0.880   2.189 -0.0661 -0.3145  1.0720
   84SLPC  H13C 7907   2.204   0.840   2.312  1.6408 -0.2111 -1.3413
   84SLPC   C14 7908   2.164   1.142   2.165 -0.2518  0.8580  0.4192
   84SLPC  H14A 7909   2.097   1.185   2.239 -1.3395 -1.6382  0.9775
   84SLPC  H14B 7910   2.228   1.211   2.112  1.2079 -2.5671 -2.7125
   84SLPC  H14C 7911   2.106   1.096   2.086  1.1621 -2.9590  1.3925
   84SLPC   C15 7912   2.327   0.977   2.130  0.3972  0.1389  0.2850
   84SLPC  H15A 7913   2.358   1.058   2.067 -1.8367  1.8305  1.2218
   84SLPC  H15B 7914   2.412   0.919   2.165  0.4902 -1.1104 -1.8573
   84SLPC  H15C 7915   2.256   0.914   2.078 -1.3562  0.8428  1.7292
   84SLPC   C12 7916   2.321   1.084   2.348  0.2499 -0.0252  0.1222
   84SLPC  H12A 7917   2.339   0.997   2.410  2.8927  0.4479  0.1246
   84SLPC  H12B 7918   2.264   1.158   2.403  1.2307  0.0439  1.0986
   84SLPC   C11 7919   2.462   1.140   2.322  0.2301  0.7910 -0.5039
   84SLPC  H11A 7920   2.515   1.081   2.244 -0.3524 -0.8036  0.2399
   84SLPC  H11B 7921   2.534   1.122   2.405  0.3159 -1.9004 -1.0660
   84SLPC     P 7922   2.439   1.389   2.389 -0.0146 -0.2628 -0.1629
   84SLPC   O13 7923   2.425   1.517   2.313 -0.1305 -0.2742  0.6780
   84SLPC   O14 7924   2.341   1.373   2.499 -0.1678  0.5976  0.3833
   84SLPC   O12 7925   2.436   1.277   2.282  0.2377 -0.0850  0.0908
   84SLPC   O11 7926   2.581   1.369   2.447  0.1686  0.1662 -0.0795
   84SLPC    C1 7927   2.697   1.409   2.368  0.3692  0.2392 -0.1075
   84SLPC    HA 7928   2.697   1.360   2.269  2.5035  0.7118 -0.3792
   84SLPC    HB 7929   2.709   1.519   2.373 -0.0767  0.2415  2.6336
   84SLPC    C2 7930   2.826   1.373   2.436 -0.5405  0.5414  0.6116
   84SLPC    HS 7931   2.834   1.263   2.442  0.4034  0.6800  3.1847
   84SLPC   O21 7932   2.830   1.441   2.568  0.2608  0.1848  0.3690
   84SLPC   C21 7933   2.891   1.372   2.667 -0.1086  0.7842  1.2367
   84SLPC   O22 7934   2.951   1.266   2.644 -0.3345  0.1457 -0.0928
   84SLPC   C22 7935   2.885   1.446   2.796 -0.3645 -0.3685 -0.2848
   84SLPC   H2R 7936   2.920   1.551   2.790 -1.6884  0.3806  2.9199
   84SLPC   H2S 7937   2.779   1.448   2.829 -0.3524 -0.2260 -0.2567
   84SLPC    C3 7938   2.951   1.412   2.353 -0.1262 -0.7673  1.3378
   84SLPC    HX 7939   2.920   1.455   2.256  1.4183 -1.6419  0.4029
   84SLPC    HY 7940   3.004   1.321   2.316  1.6171 -0.5296  3.0915
   84SLPC   O31 7941   3.056   1.484   2.422  0.4871 -0.2627 -1.3829
   84SLPC   C31 7942   3.030   1.616   2.430  0.2043  0.1699 -0.0549
   84SLPC   O32 7943   2.941   1.675   2.371  0.3809 -0.1757 -0.2090
   84SLPC   C32 7944   3.134   1.679   2.526  0.1928 -0.1928  0.5427
   84SLPC   H2X 7945   3.233   1.646   2.487  0.4473 -0.0667  1.0833
   84SLPC   H2Y 7946   3.132   1.638   2.629 -0.3449 -0.6265  0.3685
   84SLPC   C23 7947   2.961   1.371   2.914  0.5774  0.1967  0.0032
   84SLPC   H3R 7948   3.062   1.332   2.891  0.4511 -1.1979  1.6456
   84SLPC   H3S 7949   2.898   1.284   2.940 -0.0304  0.4555 -0.5728
   84SLPC   C24 7950   2.965   1.464   3.033  0.1089 -0.2675 -0.0656
   84SLPC   H4R 7951   2.866   1.486   3.076  0.5507  1.2101  0.2272
   84SLPC   H4S 7952   3.016   1.561   3.013  1.0690 -0.8947 -0.8107
   84SLPC   C25 7953   3.062   1.397   3.139 -0.1127  0.0330 -0.5039
   84SLPC   H5R 7954   3.158   1.377   3.088  1.2107 -0.3149  1.9547
   84SLPC   H5S 7955   3.030   1.292   3.156  0.5957 -0.4050 -1.7600
   84SLPC   C26 7956   3.082   1.473   3.268  0.1065  0.6245  0.3626
   84SLPC   H6R 7957   3.108   1.575   3.236  1.4404 -0.1875 -1.3001
   84SLPC   H6S 7958   3.164   1.417   3.319 -1.8097  0.1444  3.1586
   84SLPC   C27 7959   2.956   1.461   3.357 -0.4160  0.3689  0.0713
   84SLPC   H7R 7960   2.920   1.356   3.355  1.0196 -0.1328 -0.6857
   84SLPC   H7S 7961   2.879   1.530   3.317 -0.6978 -1.5290 -2.9718
   84SLPC   C28 7962   2.981   1.499   3.501 -0.3320  0.2251  0.4452
   84SLPC   H8R 7963   3.045   1.418   3.541  1.4483  2.2978  2.0263
   84SLPC   H8S 7964   2.881   1.501   3.550 -0.8130 -0.9790 -0.4132
   84SLPC   C29 7965   3.027   1.637   3.524 -1.0065 -0.4312  0.0982
   84SLPC   H9R 7966   3.005   1.704   3.439  2.2871  1.6011  0.6552
   84SLPC  C210 7967   3.115   1.671   3.617  0.4151 -0.2486 -0.5444
   84SLPC  H10R 7968   3.123   1.778   3.638 -2.3194 -0.1212  0.2442
   84SLPC  C211 7969   3.169   1.582   3.728  0.1423 -0.5921  0.0126
   84SLPC  H11R 7970   3.279   1.591   3.725  0.2276 -1.5867 -0.0249
   84SLPC  H11S 7971   3.138   1.476   3.716  0.6293 -0.5276 -2.4892
   84SLPC  C212 7972   3.125   1.651   3.855 -0.3539 -0.2892 -0.0321
   84SLPC  H12R 7973   3.018   1.672   3.869 -0.3454 -0.1495 -0.1724
   84SLPC  C213 7974   3.203   1.713   3.947  0.2989  0.5797 -0.8517
   84SLPC  H13R 7975   3.158   1.761   4.035  2.8148 -0.3251  1.0646
   84SLPC  C214 7976   3.352   1.714   3.961 -0.0865  0.4222  0.4349
   84SLPC  H14R 7977   3.393   1.657   3.875 -2.4347  0.7484 -0.9847
   84SLPC  H14S 7978   3.370   1.652   4.052 -2.4026 -3.4190 -1.4809
   84SLPC  C215 7979   3.410   1.854   3.958 -0.7032 -0.0071 -0.3210
   84SLPC  H15R 7980   3.347   1.922   4.019 -1.5777 -1.7228  0.7397
   84SLPC  H15S 7981   3.418   1.898   3.856  0.4218  0.5835  0.0015
   84SLPC  C216 7982   3.557   1.865   4.004 -0.4627 -0.8975  0.6516
   84SLPC  H16R 7983   3.617   1.795   3.942 -1.0625  0.2104 -1.2747
   84SLPC  H16S 7984   3.573   1.836   4.110  0.7933 -1.1492  0.4123
   84SLPC  C217 7985   3.628   2.000   3.983  0.2259  0.2388 -0.0554
   84SLPC  H17R 7986   3.581   2.060   3.902 -1.2312 -0.6337  0.1045
   84SLPC  H17S 7987   3.732   1.973   3.955 -0.0450  0.4217 -1.3337
   84SLPC  C218 7988   3.624   2.085   4.113  0.2601  0.0504  0.1603
   84SLPC  H18R 7989   3.681   2.030   4.191 -0.9432 -2.0018 -0.3261
   84SLPC  H18S 7990   3.523   2.112   4.149 -0.4884  0.3308 -2.0082
   84SLPC  H18T 7991   3.680   2.176   4.082  1.1944 -0.8639 -0.9373
   84SLPC   C33 7992   3.139   1.833   2.532 -0.3702  0.3408  1.0102
   84SLPC   H3X 7993   3.038   1.879   2.541 -0.0438  1.6483 -1.1781
   84SLPC   H3Y 7994   3.183   1.863   2.435 -1.6945 -0.3022  0.1842
   84SLPC   C34 7995   3.213   1.895   2.652  0.8422 -0.1119  0.3274
   84SLPC   H4X 7996   3.319   1.864   2.641  0.6488 -0.1008 -2.4073
   84SLPC   H4Y 7997   3.171   1.857   2.748 -0.3728  0.4243  0.0348
   84SLPC   C35 7998   3.206   2.046   2.661  0.0163  0.2665 -0.0301
   84SLPC   H5X 7999   3.098   2.074   2.660  0.0165  0.2968  0.3760
   84SLPC   H5Y 8000   3.249   2.099   2.574 -1.2730 -0.6374 -1.2729
   84SLPC   C36 8001   3.283   2.111   2.781 -0.5659 -0.1866 -0.1012
   84SLPC   H6X 8002   3.269   2.222   2.779  1.8804  0.1881  0.1886
   84SLPC   H6Y 8003   3.391   2.087   2.773  0.2493  3.1028 -0.8591
   84SLPC   C37 8004   3.211   2.069   2.914  0.3989 -0.0984 -0.7220
   84SLPC   H7X 8005   3.249   1.966   2.931  0.2621  0.0223  0.4106
   84SLPC   H7Y 8006   3.104   2.058   2.887  0.7641  0.3282 -2.4425
   84SLPC   C38 8007   3.259   2.146   3.042 -0.3527 -0.1265  0.5583
   84SLPC   H8X 8008   3.205   2.243   3.044 -0.8526 -0.3257 -1.2430
   84SLPC   H8Y 8009   3.369   2.154   3.041 -0.2260 -1.4074 -1.1185
   84SLPC   C39 8010   3.230   2.070   3.173 -0.5820  0.1923 -0.7385
   84SLPC   H9X 8011   3.269   1.966   3.178  2.1284  1.1507 -0.4005
   84SLPC   H9Y 8012   3.121   2.049   3.169 -0.8826  1.5483 -0.1697
   84SLPC  C310 8013   3.249   2.143   3.310  0.0888 -0.3138 -0.3201
   84SLPC  H10X 8014   3.162   2.211   3.323  1.1600  1.3314 -1.5179
   84SLPC  H10Y 8015   3.346   2.196   3.304  0.8247 -1.7949 -3.0499
   84SLPC  C311 8016   3.261   2.029   3.425 -0.0940 -0.6224  1.4213
   84SLPC  H11X 8017   3.352   1.969   3.403  1.1930  0.7825  2.6959
   84SLPC  H11Y 8018   3.165   1.973   3.422  0.0282 -0.8125  0.8658
   84SLPC  C312 8019   3.260   2.095   3.567 -0.0768 -0.1717  0.1682
   84SLPC  H12X 8020   3.340   2.171   3.580 -0.3491  0.0614  0.5075
   84SLPC  H12Y 8021   3.284   2.018   3.643  1.1844 -0.2217 -0.2599
   84SLPC  C313 8022   3.112   2.140   3.594 -0.2281 -0.0002  0.0170
   84SLPC  H13X 8023   3.038   2.057   3.579 -2.5152  1.8104  0.6966
   84SLPC  H13Y 8024   3.086   2.226   3.530 -0.9919 -1.0517 -1.1401
   84SLPC  C314 8025   3.085   2.182   3.734  0.0399 -0.1406 -0.1806
   84SLPC  H14X 8026   3.110   2.289   3.751 -1.0688 -0.1451  1.7897
   84SLPC  H14Y 8027   3.155   2.131   3.803  0.5179 -0.3112 -0.7829
   84SLPC  C315 8028   2.947   2.161   3.795 -0.2708 -0.3102  0.7741
   84SLPC  H15X 8029   2.923   2.057   3.765 -0.4070  0.5173 -2.2919
   84SLPC  H15Y 8030   2.887   2.239   3.743  0.5677  0.5942  1.1298
   84SLPC  C316 8031   2.962   2.193   3.947  0.1307 -0.4185 -0.2039
   84SLPC  H16X 8032   3.043   2.268   3.960 -1.2632  1.4261 -1.4562
   84SLPC  H16Y 8033   2.996   2.103   4.002 -1.4551 -1.3796 -0.7086
   84SLPC  C317 8034   2.831   2.246   4.003  0.2438 -0.5236  0.9748
   84SLPC  H17X 8035   2.756   2.166   3.985  1.9974 -1.7897 -1.2206
   84SLPC  H17Y 8036   2.808   2.337   3.944 -0.0857 -0.1594  1.6533
   84SLPC  C318 8037   2.831   2.290   4.153  0.0817  0.0225 -0.8477
   84SLPC  H18X 8038   2.733   2.308   4.202  0.2545 -0.3290 -0.3740
   84SLPC  H18Y 8039   2.884   2.387   4.170 -0.5369 -0.1864  3.1420
   84SLPC  H18Z 8040   2.873   2.217   4.226 -1.3424  2.8203  3.1239
   85SLPC     N 8041   5.309   6.580   2.085  0.1205  0.1333  0.0936
   85SLPC   C13 8042   5.331   6.721   2.124 -0.2011 -0.2951  0.0072
   85SLPC  H13A 8043   5.359   6.786   2.042  1.0378 -0.0020  0.6293
   85SLPC  H13B 8044   5.255   6.765   2.187  1.0316  0.6817  0.8496
   85SLPC  H13C 8045   5.419   6.710   2.185  0.1303 -0.5025 -0.4972
   85SLPC   C14 8046   5.186   6.574   1.994  0.2334 -0.1840  0.7508
   85SLPC  H14A 8047   5.097   6.611   2.043  0.6051 -0.6659  1.8136
   85SLPC  H14B 8048   5.196   6.636   1.906  1.0517 -1.2284  0.0806
   85SLPC  H14C 8049   5.171   6.472   1.959 -1.5083  0.1023  0.5382
   85SLPC   C15 8050   5.264   6.493   2.201 -0.4173 -0.3001  0.1605
   85SLPC  H15A 8051   5.257   6.390   2.169  0.8547 -0.4035  0.1734
   85SLPC  H15B 8052   5.338   6.491   2.279 -0.0240 -0.6823 -0.2130
   85SLPC  H15C 8053   5.173   6.526   2.248 -1.5243 -0.3411 -1.8372
   85SLPC   C12 8054   5.440   6.527   2.018 -0.2117  0.5447  0.1904
   85SLPC  H12A 8055   5.444   6.563   1.916  0.0933 -0.2624 -0.0921
   85SLPC  H12B 8056   5.416   6.422   2.019 -0.3891  0.5474  2.6827
   85SLPC   C11 8057   5.566   6.550   2.084 -0.4729  0.1831  0.1723
   85SLPC  H11A 8058   5.634   6.467   2.054  0.2895  1.0685 -0.6363
   85SLPC  H11B 8059   5.554   6.562   2.193 -0.6735 -1.1572  0.3161
   85SLPC     P 8060   5.736   6.747   2.082  0.1637  0.1633 -0.2542
   85SLPC   O13 8061   5.860   6.663   2.069 -0.1574  0.1855  0.8867
   85SLPC   O14 8062   5.745   6.876   2.019 -0.3777 -0.4837  0.3688
   85SLPC   O12 8063   5.614   6.663   2.023 -0.1438  0.2048  0.3697
   85SLPC   O11 8064   5.701   6.765   2.236 -0.3220  0.5447  0.0811
   85SLPC    C1 8065   5.806   6.831   2.322  0.0558  0.4575 -0.0489
   85SLPC    HA 8066   5.871   6.899   2.264  0.7524 -0.0484  0.1224
   85SLPC    HB 8067   5.745   6.892   2.391 -1.8278 -0.2579 -0.9915
   85SLPC    C2 8068   5.890   6.720   2.389 -0.0877 -1.0161 -0.6736
   85SLPC    HS 8069   5.911   6.652   2.304  0.0174 -0.5233 -1.0458
   85SLPC   O21 8070   5.814   6.656   2.492 -0.4996 -0.4068 -0.0066
   85SLPC   C21 8071   5.818   6.518   2.499 -0.7887 -0.1649  0.0911
   85SLPC   O22 8072   5.863   6.447   2.413 -0.5760 -0.8539  0.1243
   85SLPC   C22 8073   5.781   6.465   2.640  0.0361 -0.9027 -0.8071
   85SLPC   H2R 8074   5.730   6.544   2.698  1.1230 -1.5506  1.1182
   85SLPC   H2S 8075   5.708   6.386   2.613 -0.1615 -0.3030 -2.1205
   85SLPC    C3 8076   6.027   6.767   2.453  0.3493 -0.2448 -0.0378
   85SLPC    HX 8077   6.085   6.803   2.365  0.4225  0.8999  0.4669
   85SLPC    HY 8078   6.085   6.690   2.510  0.5495  0.3772  0.6173
   85SLPC   O31 8079   6.003   6.875   2.537 -0.1306  1.0629 -0.1158
   85SLPC   C31 8080   6.113   6.915   2.609  0.2734  0.0568 -0.0457
   85SLPC   O32 8081   6.224   6.872   2.603 -0.2758  0.5223  0.2490
   85SLPC   C32 8082   6.070   7.025   2.707 -0.3351  0.2277 -0.4652
   85SLPC   H2X 8083   6.016   7.103   2.649 -1.4639 -1.1400 -1.3072
   85SLPC   H2Y 8084   6.157   7.066   2.763 -1.0303  0.7057  0.2802
   85SLPC   C23 8085   5.896   6.393   2.729 -0.2876 -0.6859 -0.1283
   85SLPC   H3R 8086   5.950   6.333   2.653 -1.6724 -0.0843 -1.6280
   85SLPC   H3S 8087   5.845   6.332   2.807 -1.3706  0.3715  0.0165
   85SLPC   C24 8088   5.986   6.498   2.799  0.1692  0.5315  0.3908
   85SLPC   H4R 8089   5.951   6.521   2.902  1.8930 -0.1364  1.1664
   85SLPC   H4S 8090   5.981   6.593   2.742  0.4561 -0.3914 -1.2370
   85SLPC   C25 8091   6.129   6.459   2.776 -0.9387  1.0035 -0.6125
   85SLPC   H5R 8092   6.146   6.359   2.821 -1.0028  1.0977 -0.3779
   85SLPC   H5S 8093   6.162   6.443   2.671 -0.6277 -0.5941 -0.2968
   85SLPC   C26 8094   6.229   6.556   2.846 -0.1352  0.0079  0.0937
   85SLPC   H6R 8095   6.193   6.574   2.949  1.3903 -1.0975  0.8616
   85SLPC   H6S 8096   6.231   6.647   2.782  0.1732  0.3888  0.6436
   85SLPC   C27 8097   6.371   6.489   2.860 -0.0463 -0.8693  0.1789
   85SLPC   H7R 8098   6.437   6.577   2.872  0.3039 -0.9369 -1.1002
   85SLPC   H7S 8099   6.384   6.438   2.762 -0.7304  0.1611 -0.4637
   85SLPC   C28 8100   6.398   6.392   2.975 -0.7093  0.2527  0.4481
   85SLPC   H8R 8101   6.321   6.312   2.968 -1.5336  0.9115  1.6850
   85SLPC   H8S 8102   6.374   6.447   3.069  0.5090 -0.0772  0.9755
   85SLPC   C29 8103   6.539   6.337   2.987 -0.1461  0.0592 -0.1071
   85SLPC   H9R 8104   6.556   6.231   2.962  2.0941  0.1126  0.9592
   85SLPC  C210 8105   6.648   6.411   3.025  0.0645  0.2757  0.1209
   85SLPC  H10R 8106   6.748   6.365   3.027 -1.5549 -3.6335  2.4011
   85SLPC  C211 8107   6.632   6.554   3.076  1.0288 -0.1643 -0.1233
   85SLPC  H11R 8108   6.539   6.611   3.052  0.0902 -1.1438  1.0642
   85SLPC  H11S 8109   6.718   6.611   3.033 -0.1200  1.0911 -0.8361
   85SLPC  C212 8110   6.639   6.569   3.228  0.7621  0.2125 -0.3080
   85SLPC  H12R 8111   6.567   6.521   3.296  1.4870  1.1538  1.1949
   85SLPC  C213 8112   6.722   6.656   3.289 -0.4040  0.8128  0.0265
   85SLPC  H13R 8113   6.730   6.650   3.399 -0.0844  1.2840  0.0348
   85SLPC  C214 8114   6.819   6.756   3.231 -0.8737  0.0554  0.5801
   85SLPC  H14R 8115   6.773   6.807   3.143  0.2149 -0.3073 -0.2223
   85SLPC  H14S 8116   6.917   6.708   3.208  0.4698  1.3166  3.2209
   85SLPC  C215 8117   6.866   6.860   3.325 -0.7065 -0.5766  0.1802
   85SLPC  H15R 8118   6.951   6.909   3.273 -2.5196  2.3019 -0.3078
   85SLPC  H15S 8119   6.912   6.821   3.419 -1.9039  1.0897  1.5282
   85SLPC  C216 8120   6.758   6.953   3.374  0.3256  0.3543 -0.1294
   85SLPC  H16R 8121   6.677   6.887   3.414  1.2817  0.2651  1.7713
   85SLPC  H16S 8122   6.714   7.018   3.296 -1.4811  0.0777  0.6008
   85SLPC  C217 8123   6.800   7.043   3.498  0.3382 -0.4930 -0.4801
   85SLPC  H17R 8124   6.880   7.117   3.477 -0.2088  0.2943  0.1759
   85SLPC  H17S 8125   6.833   6.971   3.577  0.5044  0.5163  0.3986
   85SLPC  C218 8126   6.673   7.112   3.551 -0.6197  0.6766  0.2690
   85SLPC  H18R 8127   6.699   7.189   3.626 -1.1577 -2.6351  4.1974
   85SLPC  H18S 8128   6.602   7.041   3.598  0.7447 -0.6901  0.3385
   85SLPC  H18T 8129   6.612   7.155   3.468 -0.1712 -0.2238 -0.5607
   85SLPC   C33 8130   5.977   6.959   2.808  0.5561 -0.1089  0.4137
   85SLPC   H3X 8131   5.923   6.870   2.769  0.7758  0.6372 -1.7269
   85SLPC   H3Y 8132   5.898   7.036   2.820  0.9071  0.3857 -0.3961
   85SLPC   C34 8133   6.050   6.922   2.936  0.0021 -0.5323  0.1266
   85SLPC   H4X 8134   6.129   6.992   2.970  1.2744 -1.6667 -0.4287
   85SLPC   H4Y 8135   6.110   6.829   2.929 -0.0602 -0.7863  2.2476
   85SLPC   C35 8136   5.950   6.904   3.054 -0.1314  0.1431  0.2073
   85SLPC   H5X 8137   5.893   6.999   3.066 -1.4939 -0.8692  2.2046
   85SLPC   H5Y 8138   6.014   6.900   3.145  0.2850  0.9710 -0.0376
   85SLPC   C36 8139   5.854   6.793   3.037  0.5525 -0.3711  0.5223
   85SLPC   H6X 8140   5.902   6.693   3.032 -0.9040 -1.1202  0.8278
   85SLPC   H6Y 8141   5.789   6.817   2.950 -1.5366  2.7931  2.7133
   85SLPC   C37 8142   5.755   6.786   3.158  0.6217 -0.5205 -0.2453
   85SLPC   H7X 8143   5.682   6.702   3.152 -0.0644  0.0944 -0.8506
   85SLPC   H7Y 8144   5.693   6.879   3.166  1.7111  0.0912  1.6957
   85SLPC   C38 8145   5.822   6.772   3.297  0.0615  0.1979 -0.3997
   85SLPC   H8X 8146   5.874   6.865   3.329  0.7120 -0.1405 -0.4588
   85SLPC   H8Y 8147   5.907   6.703   3.286  2.1729  2.5673  0.0823
   85SLPC   C39 8148   5.730   6.718   3.404  0.5495 -0.0096 -0.2635
   85SLPC   H9X 8149   5.726   6.607   3.399  1.1546 -0.0232 -0.5570
   85SLPC   H9Y 8150   5.625   6.748   3.386  0.3340  1.2332  2.5673
   85SLPC  C310 8151   5.767   6.776   3.541 -0.0171  0.5587  0.4930
   85SLPC  H10X 8152   5.756   6.886   3.534  2.3151  0.7361 -2.1131
   85SLPC  H10Y 8153   5.877   6.766   3.556  0.0444  1.5519  0.7595
   85SLPC  C311 8154   5.685   6.714   3.659 -0.6509 -0.8972 -0.1242
   85SLPC  H11X 8155   5.729   6.614   3.680 -0.2319 -0.6539  0.1717
   85SLPC  H11Y 8156   5.579   6.709   3.626 -0.1853 -0.6516 -1.7222
   85SLPC  C312 8157   5.699   6.810   3.780 -0.0581  0.6097 -0.1088
   85SLPC  H12X 8158   5.637   6.898   3.751 -1.3169  0.4065  1.7928
   85SLPC  H12Y 8159   5.807   6.837   3.792  0.1696 -0.8386  1.4836
   85SLPC  C313 8160   5.650   6.753   3.912 -0.8159 -0.5881  0.0359
   85SLPC  H13X 8161   5.718   6.669   3.938  1.1029  0.9518  0.2330
   85SLPC  H13Y 8162   5.546   6.717   3.893 -1.0088 -0.0928  0.1456
   85SLPC  C314 8163   5.658   6.860   4.019  0.3847 -0.6114 -0.5590
   85SLPC  H14X 8164   5.580   6.936   3.995 -1.4275 -1.6972  1.5790
   85SLPC  H14Y 8165   5.755   6.915   4.018  0.5084 -0.7058  1.8215
   85SLPC  C315 8166   5.617   6.805   4.157 -0.3251 -0.5874 -0.5945
   85SLPC  H15X 8167   5.687   6.722   4.181  0.1320 -0.2045 -0.6013
   85SLPC  H15Y 8168   5.514   6.765   4.150 -0.1713 -0.9176 -1.0458
   85SLPC  C316 8169   5.627   6.923   4.265 -0.3272  0.3314  0.7180
   85SLPC  H16X 8170   5.544   6.995   4.250 -0.5569 -0.2265 -0.8204
   85SLPC  H16Y 8171   5.724   6.977   4.256 -0.1277 -0.3604 -2.6239
   85SLPC  C317 8172   5.616   6.866   4.410 -0.5247 -0.5157  0.0350
   85SLPC  H17X 8173   5.678   6.930   4.477  2.0869 -1.8648 -0.9459
   85SLPC  H17Y 8174   5.668   6.768   4.409  0.8877  0.1948  0.3524
   85SLPC  C318 8175   5.477   6.845   4.463  0.8250  0.3624  0.3649
   85SLPC  H18X 8176   5.482   6.781   4.553 -1.2019 -1.5229 -0.7547
   85SLPC  H18Y 8177   5.420   6.788   4.387 -0.5100  0.1705  1.4725
   85SLPC  H18Z 8178   5.421   6.939   4.482 -1.0645 -0.4571 -0.7696
   86SLPC     N 8179   0.200   0.258   2.192 -0.5757  0.6557 -0.0098
   86SLPC   C13 8180   0.320   0.290   2.115 -0.6114  0.5432  0.2642
   86SLPC  H13A 8181   0.406   0.274   2.177  0.3826  1.2016 -0.8885
   86SLPC  H13B 8182   0.342   0.219   2.037  1.3219 -1.4793  2.4863
   86SLPC  H13C 8183   0.315   0.392   2.079 -1.9701  1.1042  1.9026
   86SLPC   C14 8184   0.091   0.241   2.087  0.2598  0.0584 -0.0701
   86SLPC  H14A 8185   0.077   0.326   2.021 -0.5388  1.9138  2.3590
   86SLPC  H14B 8186   0.113   0.159   2.020 -1.4291 -0.5295  0.0515
   86SLPC  H14C 8187  -0.005   0.222   2.133  0.9756 -3.3519  0.3084
   86SLPC   C15 8188   0.167   0.375   2.287 -0.5724 -0.1332  0.4006
   86SLPC  H15A 8189   0.079   0.351   2.344 -0.8015 -0.3020 -0.0200
   86SLPC  H15B 8190   0.241   0.384   2.365 -1.5976  0.4507  1.3196
   86SLPC  H15C 8191   0.155   0.470   2.237 -0.4824  0.7191  1.9512
   86SLPC   C12 8192   0.212   0.131   2.269 -0.5236  0.6663 -0.4511
   86SLPC  H12A 8193   0.212   0.043   2.206  1.5070 -0.4383  0.9476
   86SLPC  H12B 8194   0.121   0.120   2.326 -0.5019  0.5646 -0.4347
   86SLPC   C11 8195   0.328   0.125   2.377 -0.5253  0.2843  0.0231
   86SLPC  H11A 8196   0.323   0.029   2.432 -0.0867 -0.1967 -0.7487
   86SLPC  H11B 8197   0.317   0.211   2.445  2.6657  0.0393  0.9900
   86SLPC     P 8198   0.570   0.194   2.385  0.1501  0.1664 -0.2204
   86SLPC   O13 8199   0.690   0.173   2.302  0.1363 -0.8605 -0.2677
   86SLPC   O14 8200   0.537   0.334   2.415  0.7548 -0.2136 -0.1090
   86SLPC   O12 8201   0.452   0.131   2.306  0.2873 -0.2500 -0.4578
   86SLPC   O11 8202   0.565   0.112   2.525 -0.0591 -0.5511  0.2561
   86SLPC    C1 8203   0.683   0.055   2.583  0.6978  0.2348 -0.1246
   86SLPC    HA 8204   0.659  -0.051   2.602 -1.6780  1.0310  1.7949
   86SLPC    HB 8205   0.770   0.072   2.516 -0.0723 -0.3877 -1.3384
   86SLPC    C2 8206   0.713   0.120   2.718  0.0416  0.0963 -0.0441
   86SLPC    HS 8207   0.782   0.057   2.778  1.5018  0.4469 -1.2794
   86SLPC   O21 8208   0.590   0.134   2.785 -0.0344  0.1017 -0.0731
   86SLPC   C21 8209   0.545   0.017   2.831  0.9272 -0.1565  0.3424
   86SLPC   O22 8210   0.613  -0.084   2.845  0.4447  0.3807  0.5232
   86SLPC   C22 8211   0.386   0.031   2.856 -0.6277  0.8043  0.3818
   86SLPC   H2R 8212   0.366   0.112   2.929  0.2618 -0.9286  2.6552
   86SLPC   H2S 8213   0.342   0.055   2.757 -0.6665  3.8769  1.0176
   86SLPC    C3 8214   0.782   0.260   2.701  0.0357 -0.0859 -0.2086
   86SLPC    HX 8215   0.723   0.339   2.651  1.8386  1.6401  0.2397
   86SLPC    HY 8216   0.859   0.224   2.629 -0.2603 -0.6827 -0.2367
   86SLPC   O31 8217   0.840   0.321   2.817 -0.5095 -0.4150 -0.1111
   86SLPC   C31 8218   0.746   0.368   2.904 -0.4630  0.1429 -0.2930
   86SLPC   O32 8219   0.632   0.392   2.875  0.0923 -0.0897 -0.5567
   86SLPC   C32 8220   0.814   0.401   3.040  0.7082  0.6433 -0.3879
   86SLPC   H2X 8221   0.829   0.509   3.060 -0.5956  0.5290  1.4622
   86SLPC   H2Y 8222   0.914   0.352   3.045  0.5209  0.2067 -0.8390
   86SLPC   C23 8223   0.317  -0.101   2.900 -0.5613  0.2181  0.4775
   86SLPC   H3R 8224   0.342  -0.184   2.829 -0.8130 -0.7512  1.4971
   86SLPC   H3S 8225   0.209  -0.077   2.909 -0.5861  0.2583  0.1084
   86SLPC   C24 8226   0.368  -0.160   3.033 -0.2430  0.0196 -0.3047
   86SLPC   H4R 8227   0.470  -0.199   3.016 -0.8004 -0.6255 -2.3841
   86SLPC   H4S 8228   0.295  -0.236   3.067  0.3596 -0.4667 -0.0854
   86SLPC   C25 8229   0.361  -0.052   3.150 -0.2122  0.4450 -0.6156
   86SLPC   H5R 8230   0.264   0.002   3.143 -0.5104 -0.2176 -2.3931
   86SLPC   H5S 8231   0.438   0.025   3.131 -1.7310  1.8352 -1.4287
   86SLPC   C26 8232   0.375  -0.103   3.297 -0.0215  0.3793 -0.5543
   86SLPC   H6R 8233   0.273  -0.136   3.327  1.0392 -0.7629  2.0119
   86SLPC   H6S 8234   0.414  -0.022   3.363 -1.8426  0.7343  0.1430
   86SLPC   C27 8235   0.470  -0.223   3.321  0.2218 -0.1869  0.8639
   86SLPC   H7R 8236   0.570  -0.177   3.328  0.5165 -0.2953 -1.6433
   86SLPC   H7S 8237   0.492  -0.284   3.231  1.2511  0.8198  0.4140
   86SLPC   C28 8238   0.443  -0.325   3.430  0.1539  0.0531 -0.0567
   86SLPC   H8R 8239   0.522  -0.402   3.415  0.3889 -0.1890  2.0674
   86SLPC   H8S 8240   0.343  -0.373   3.423 -0.5505  1.6878 -2.7788
   86SLPC   C29 8241   0.458  -0.258   3.566  0.9209 -0.3308 -0.4360
   86SLPC   H9R 8242   0.456  -0.148   3.572  0.3092 -0.4020  0.9141
   86SLPC  C210 8243   0.466  -0.326   3.681 -0.6595 -0.9187 -0.7947
   86SLPC  H10R 8244   0.479  -0.278   3.779  1.1065 -1.7500 -0.5907
   86SLPC  C211 8245   0.478  -0.476   3.684  0.0604 -0.2712  0.6874
   86SLPC  H11R 8246   0.473  -0.509   3.789 -0.3152  0.7939  1.0181
   86SLPC  H11S 8247   0.581  -0.507   3.656  0.7842  0.3808  2.5128
   86SLPC  C212 8248   0.369  -0.557   3.611  0.0070  0.0294 -0.4037
   86SLPC  H12R 8249   0.405  -0.604   3.517  1.4682  0.6969 -0.2019
   86SLPC  C213 8250   0.239  -0.563   3.634 -0.4506 -0.9289  0.1272
   86SLPC  H13R 8251   0.179  -0.641   3.584  0.4338 -1.1759 -0.5777
   86SLPC  C214 8252   0.153  -0.482   3.724  0.0154 -0.3708  0.5180
   86SLPC  H14R 8253   0.214  -0.424   3.796 -0.3934 -0.0866  0.6414
   86SLPC  H14S 8254   0.092  -0.540   3.795  2.4813 -0.7986  2.4057
   86SLPC  C215 8255   0.068  -0.378   3.660 -0.4358  0.0107  0.6249
   86SLPC  H15R 8256   0.002  -0.417   3.579  0.4813 -0.8628  0.2807
   86SLPC  H15S 8257   0.130  -0.315   3.593 -0.3581 -0.6049  0.1095
   86SLPC  C216 8258  -0.011  -0.298   3.767 -0.0746 -0.1944  0.6205
   86SLPC  H16R 8259   0.069  -0.258   3.834  0.3227 -2.6636  1.7490
   86SLPC  H16S 8260  -0.075  -0.361   3.833 -3.0555  2.7064  0.7033
   86SLPC  C217 8261  -0.108  -0.192   3.711 -0.1431 -0.2740  0.0593
   86SLPC  H17R 8262  -0.192  -0.243   3.658  0.4296  0.0853 -1.2455
   86SLPC  H17S 8263  -0.068  -0.141   3.621 -0.3463 -1.1143 -0.5212
   86SLPC  C218 8264  -0.166  -0.089   3.811  0.2215  0.3527  0.4292
   86SLPC  H18R 8265  -0.227  -0.137   3.890  0.2134 -0.2733  0.0539
   86SLPC  H18S 8266  -0.232  -0.018   3.757  0.2981 -0.5975 -0.9700
   86SLPC  H18T 8267  -0.092  -0.017   3.851  0.4251 -0.0712  0.8249
   86SLPC   C33 8268   0.716   0.344   3.147  0.1430 -0.4796  0.4561
   86SLPC   H3X 8269   0.620   0.401   3.149  0.1899 -0.3765 -0.0268
   86SLPC   H3Y 8270   0.761   0.379   3.242 -0.9017  0.3117  0.6878
   86SLPC   C34 8271   0.694   0.195   3.142  0.1994 -0.2603 -0.2174
   86SLPC   H4X 8272   0.785   0.150   3.097 -0.3165 -1.3683 -0.1834
   86SLPC   H4Y 8273   0.611   0.188   3.068 -0.0389 -1.6039  0.1489
   86SLPC   C35 8274   0.643   0.134   3.274  0.2521 -0.8808 -0.1708
   86SLPC   H5X 8275   0.620   0.030   3.241  1.1542 -0.2079 -3.2224
   86SLPC   H5Y 8276   0.544   0.181   3.292  0.8246  0.0227  0.7755
   86SLPC   C36 8277   0.749   0.121   3.381 -0.5709 -0.2400  0.3565
   86SLPC   H6X 8278   0.750   0.221   3.429 -1.3198  0.0166 -0.1349
   86SLPC   H6Y 8279   0.844   0.098   3.328 -1.3262 -0.8547 -0.7635
   86SLPC   C37 8280   0.714   0.023   3.494  0.6053 -1.1677  0.7530
   86SLPC   H7X 8281   0.700  -0.080   3.455 -2.9887 -0.3994 -0.2749
   86SLPC   H7Y 8282   0.620   0.065   3.534  1.7415  2.5626 -0.1169
   86SLPC   C38 8283   0.812   0.015   3.620  0.5265  0.6665 -0.5932
   86SLPC   H8X 8284   0.802   0.106   3.682  3.3379  1.3112 -0.9238
   86SLPC   H8Y 8285   0.915   0.005   3.579  0.1109 -2.9778 -1.0773
   86SLPC   C39 8286   0.767  -0.095   3.726 -0.4091 -0.1179 -0.1060
   86SLPC   H9X 8287   0.786  -0.182   3.661  1.3742  0.4016 -0.3387
   86SLPC   H9Y 8288   0.658  -0.092   3.750 -0.6652  3.1722 -1.2065
   86SLPC  C310 8289   0.856  -0.111   3.852 -0.1742  0.5468  0.5350
   86SLPC  H10X 8290   0.877  -0.009   3.891 -0.1899  1.0464 -0.7250
   86SLPC  H10Y 8291   0.956  -0.148   3.821 -1.5781 -0.6834 -2.9742
   86SLPC  C311 8292   0.807  -0.211   3.960  0.3465  0.2863  0.8925
   86SLPC  H11X 8293   0.786  -0.313   3.921  0.2836  0.6766 -0.1036
   86SLPC  H11Y 8294   0.705  -0.176   3.989  0.8766  1.1297  1.8313
   86SLPC  C312 8295   0.886  -0.229   4.085  0.3512  0.0643  0.2753
   86SLPC  H12X 8296   0.984  -0.272   4.056 -0.4280 -0.8934 -1.0231
   86SLPC  H12Y 8297   0.832  -0.298   4.153 -0.8325 -0.8513 -1.5287
   86SLPC  C313 8298   0.912  -0.102   4.175 -0.0396  0.3744 -0.1125
   86SLPC  H13X 8299   0.936  -0.017   4.107  2.0367 -0.1169 -0.0707
   86SLPC  H13Y 8300   1.006  -0.131   4.226 -2.0934 -3.5339  1.8376
   86SLPC  C314 8301   0.808  -0.069   4.281  0.4150 -0.1578 -0.1758
   86SLPC  H14X 8302   0.869  -0.007   4.351 -1.2834  0.1772  1.0642
   86SLPC  H14Y 8303   0.788  -0.156   4.346  0.0307  1.1599  1.5548
   86SLPC  C315 8304   0.682   0.008   4.239 -0.4439  0.5572  0.7697
   86SLPC  H15X 8305   0.627  -0.061   4.172  2.1330  0.6895 -1.6342
   86SLPC  H15Y 8306   0.716   0.096   4.181 -1.7424  1.1548  0.8792
   86SLPC  C316 8307   0.597   0.057   4.358 -0.2648 -0.6088 -0.0736
   86SLPC  H16X 8308   0.650   0.089   4.450 -0.8361  0.5487 -0.1348
   86SLPC  H16Y 8309   0.540  -0.035   4.385 -0.1672 -0.5456  0.3505
   86SLPC  C317 8310   0.504   0.166   4.315 -0.6671 -0.4796  0.0890
   86SLPC  H17X 8311   0.433   0.130   4.237 -1.6413  1.7054 -0.0955
   86SLPC  H17Y 8312   0.571   0.241   4.269 -1.7627  1.5491  1.6320
   86SLPC  C318 8313   0.421   0.222   4.430 -0.1665  0.1370 -0.0680
   86SLPC  H18X 8314   0.495   0.277   4.492  1.4519 -0.7054 -1.1609
   86SLPC  H18Y 8315   0.375   0.146   4.496 -1.0718  0.4458 -0.3317
   86SLPC  H18Z 8316   0.346   0.294   4.391 -0.4446  1.1935  2.2372
   87SLPC     N 8317   6.818   2.792   1.875  0.3371  0.5730 -0.0652
   87SLPC   C13 8318   6.790   2.933   1.905  0.1641  0.1781  0.3714
   87SLPC  H13A 8319   6.868   2.974   1.967 -0.3665  2.1830 -0.1993
   87SLPC  H13B 8320   6.800   2.985   1.811 -0.7273  0.8210  0.6077
   87SLPC  H13C 8321   6.691   2.947   1.946 -0.7147 -1.8132 -0.9187
   87SLPC   C14 8322   6.936   2.781   1.792 -0.0233 -0.3222  0.1832
   87SLPC  H14A 8323   6.928   2.816   1.691 -1.7386  0.0867  0.4398
   87SLPC  H14B 8324   7.023   2.827   1.838 -1.2244  0.0748  2.2037
   87SLPC  H14C 8325   6.955   2.674   1.788 -0.7272 -0.4090 -0.9710
   87SLPC   C15 8326   6.705   2.737   1.788 -0.0276  0.0104  0.4678
   87SLPC  H15A 8327   6.611   2.741   1.841 -0.0577  1.2827  0.3416
   87SLPC  H15B 8328   6.699   2.789   1.694  2.3849 -1.4461 -0.5991
   87SLPC  H15C 8329   6.715   2.632   1.763 -0.5409  0.1860 -0.4705
   87SLPC   C12 8330   6.835   2.709   2.002  0.0546 -0.4578  0.7224
   87SLPC  H12A 8331   6.922   2.737   2.059  0.4476 -0.4211  0.1167
   87SLPC  H12B 8332   6.873   2.609   1.986  0.9783 -0.1084  0.6883
   87SLPC   C11 8333   6.718   2.695   2.095 -0.3265  0.1805  0.3053
   87SLPC  H11A 8334   6.738   2.614   2.168  2.3667  0.0847 -0.4282
   87SLPC  H11B 8335   6.628   2.659   2.041 -0.5785  1.0524  0.1176
   87SLPC     P 8336   6.798   2.879   2.258 -0.1352 -0.3096 -0.2539
   87SLPC   O13 8337   6.918   2.796   2.281  0.3703 -0.0905  0.1099
   87SLPC   O14 8338   6.815   3.017   2.207 -0.6025 -0.5471 -0.0573
   87SLPC   O12 8339   6.691   2.807   2.161  0.3573 -0.4021  0.2163
   87SLPC   O11 8340   6.719   2.887   2.401 -0.7226  0.5716 -0.0154
   87SLPC    C1 8341   6.632   2.781   2.443  0.4965  0.0339  0.9457
   87SLPC    HA 8342   6.540   2.831   2.480  1.1006  1.4937  0.5107
   87SLPC    HB 8343   6.604   2.710   2.362  1.4095  2.5118 -1.6740
   87SLPC    C2 8344   6.700   2.703   2.561 -0.3422 -1.2017  0.4583
   87SLPC    HS 8345   6.771   2.630   2.517 -1.8473 -1.3888 -1.8451
   87SLPC   O21 8346   6.588   2.652   2.634  0.1222 -0.0682 -0.2736
   87SLPC   C21 8347   6.587   2.520   2.652  0.4186  0.2697  0.6604
   87SLPC   O22 8348   6.659   2.430   2.608  1.4101  0.1507  0.3545
   87SLPC   C22 8349   6.458   2.487   2.736  0.0121 -1.0043  0.2085
   87SLPC   H2R 8350   6.365   2.499   2.676 -0.7866  3.6200  1.9778
   87SLPC   H2S 8351   6.452   2.383   2.774 -1.3467 -1.3365 -0.8601
   87SLPC    C3 8352   6.775   2.799   2.666 -0.4162 -0.2126 -0.2367
   87SLPC    HX 8353   6.697   2.853   2.724  0.0701 -1.8457  2.0702
   87SLPC    HY 8354   6.833   2.886   2.627 -0.8873  0.5070  0.6486
   87SLPC   O31 8355   6.844   2.720   2.764 -0.9319  0.1010 -0.4356
   87SLPC   C31 8356   6.968   2.685   2.736  0.0200 -0.7110 -0.0676
   87SLPC   O32 8357   7.029   2.701   2.633  0.2452 -0.0915 -0.6974
   87SLPC   C32 8358   7.022   2.613   2.861  0.0133  0.3346 -0.0738
   87SLPC   H2X 8359   7.004   2.504   2.849 -0.5565  0.6156 -1.9707
   87SLPC   H2Y 8360   6.963   2.634   2.954 -1.1228 -0.6583 -0.5423
   87SLPC   C23 8361   6.440   2.585   2.857 -1.2000 -0.3157 -1.0816
   87SLPC   H3R 8362   6.343   2.579   2.911 -0.4762  2.7861  0.8327
   87SLPC   H3S 8363   6.450   2.690   2.820  2.4134  1.7676  4.3592
   87SLPC   C24 8364   6.560   2.572   2.964  0.0608  0.5898 -0.0992
   87SLPC   H4R 8365   6.659   2.591   2.918 -0.4094 -0.3897 -1.5985
   87SLPC   H4S 8366   6.565   2.465   2.993  3.1413  0.7042  0.1010
   87SLPC   C25 8367   6.552   2.664   3.083 -0.0461 -0.5273 -0.2111
   87SLPC   H5R 8368   6.449   2.671   3.125  0.1466 -0.9736  0.3423
   87SLPC   H5S 8369   6.570   2.771   3.060 -1.1073  0.1144  1.6884
   87SLPC   C26 8370   6.639   2.616   3.206  0.4595 -0.3978  0.6853
   87SLPC   H6R 8371   6.743   2.632   3.173 -0.0782  3.0245  0.3258
   87SLPC   H6S 8372   6.627   2.508   3.231 -0.7628 -0.4290  0.0371
   87SLPC   C27 8373   6.614   2.689   3.342  0.1895  0.7769  0.7152
   87SLPC   H7R 8374   6.509   2.726   3.345  0.2585  0.9603  0.8878
   87SLPC   H7S 8375   6.682   2.776   3.331  1.4950 -0.2683  0.1365
   87SLPC   C28 8376   6.627   2.601   3.468 -0.0528  0.8905 -0.8070
   87SLPC   H8R 8377   6.544   2.529   3.479 -0.2403  0.8710 -2.1909
   87SLPC   H8S 8378   6.620   2.671   3.555 -0.0415 -0.4801  0.3274
   87SLPC   C29 8379   6.762   2.537   3.477  0.3752  0.2162  0.2334
   87SLPC   H9R 8380   6.803   2.540   3.375 -2.9728  2.5690 -1.2100
   87SLPC  C210 8381   6.823   2.475   3.579 -0.3861 -0.1762 -0.3066
   87SLPC  H10R 8382   6.921   2.429   3.562  0.9767  2.0949  1.0365
   87SLPC  C211 8383   6.752   2.455   3.712  0.4178 -0.2912  0.7468
   87SLPC  H11R 8384   6.712   2.352   3.714  0.6065 -0.3513  1.9978
   87SLPC  H11S 8385   6.660   2.516   3.726  0.1184 -0.9646  1.8344
   87SLPC  C212 8386   6.836   2.481   3.836  0.4118  0.7506 -0.1392
   87SLPC  H12R 8387   6.944   2.497   3.832  0.9809 -2.5335 -1.1418
   87SLPC  C213 8388   6.785   2.478   3.963  0.5889  0.3980  0.1481
   87SLPC  H13R 8389   6.849   2.499   4.050 -1.8037  2.7781  1.4971
   87SLPC  C214 8390   6.635   2.451   3.993 -0.2483 -0.6291  0.1597
   87SLPC  H14R 8391   6.607   2.372   3.920  1.4834  1.8227 -3.4678
   87SLPC  H14S 8392   6.576   2.544   3.979 -1.4667 -1.2168  1.1901
   87SLPC  C215 8393   6.626   2.387   4.132  0.5087 -0.1012  0.4100
   87SLPC  H15R 8394   6.707   2.311   4.134  1.3683  0.6120 -2.4469
   87SLPC  H15S 8395   6.527   2.338   4.140  0.4256 -0.2152 -1.0957
   87SLPC  C216 8396   6.651   2.493   4.246 -0.7461  0.3014  0.3196
   87SLPC  H16R 8397   6.624   2.596   4.213  2.5720  0.9274 -0.8581
   87SLPC  H16S 8398   6.759   2.502   4.272 -0.6798 -1.5610  0.8223
   87SLPC  C217 8399   6.568   2.462   4.370  0.1340  0.2596 -0.4134
   87SLPC  H17R 8400   6.583   2.539   4.448 -0.7378  1.8608 -1.7611
   87SLPC  H17S 8401   6.609   2.372   4.422  0.0943  0.8620  0.6980
   87SLPC  C218 8402   6.416   2.472   4.350 -0.1884  0.6181 -0.9295
   87SLPC  H18R 8403   6.376   2.476   4.454  0.0674 -0.9352 -0.7585
   87SLPC  H18S 8404   6.391   2.379   4.295  0.3018  0.2556 -0.5539
   87SLPC  H18T 8405   6.394   2.565   4.294 -2.0214  0.5571 -0.3618
   87SLPC   C33 8406   7.169   2.645   2.901  0.4178 -0.2604 -0.2304
   87SLPC   H3X 8407   7.173   2.753   2.927 -1.1306 -0.5248  1.2561
   87SLPC   H3Y 8408   7.234   2.634   2.811  0.0596  3.1977 -1.0460
   87SLPC   C34 8409   7.204   2.566   3.027 -0.5246 -0.0193  0.4830
   87SLPC   H4X 8410   7.315   2.558   3.024 -0.5215  0.1828  0.0749
   87SLPC   H4Y 8411   7.155   2.466   3.028  0.4239 -0.5079  0.2058
   87SLPC   C35 8412   7.163   2.631   3.161 -0.7284 -0.3581  0.0432
   87SLPC   H5X 8413   7.054   2.634   3.182 -0.2092  0.1321  3.1815
   87SLPC   H5Y 8414   7.187   2.739   3.156 -0.1413 -0.2653  3.0217
   87SLPC   C36 8415   7.239   2.574   3.281  0.6002 -0.9798 -0.2349
   87SLPC   H6X 8416   7.345   2.588   3.252  0.2703  1.7549 -0.4593
   87SLPC   H6Y 8417   7.226   2.466   3.303  0.5791 -1.0085 -0.3834
   87SLPC   C37 8418   7.226   2.659   3.409  0.6790 -0.1473  0.2481
   87SLPC   H7X 8419   7.116   2.667   3.424  0.6289 -0.3343 -0.0040
   87SLPC   H7Y 8420   7.271   2.760   3.400  0.2817 -0.1213 -1.9107
   87SLPC   C38 8421   7.286   2.584   3.531 -0.3469 -0.4793 -0.2543
   87SLPC   H8X 8422   7.396   2.599   3.528 -0.3601  2.3604  4.1311
   87SLPC   H8Y 8423   7.270   2.474   3.539 -0.0566 -0.4370  1.2971
   87SLPC   C39 8424   7.242   2.638   3.667  0.3777  0.3147 -0.0784
   87SLPC   H9X 8425   7.131   2.648   3.668  0.3988  1.3099  2.7787
   87SLPC   H9Y 8426   7.282   2.742   3.672 -2.3832  1.4612  0.0055
   87SLPC  C310 8427   7.288   2.561   3.786  0.0478  0.3018 -0.7119
   87SLPC  H10X 8428   7.399   2.561   3.781  0.1508 -2.2914  0.0614
   87SLPC  H10Y 8429   7.256   2.454   3.784 -0.3474  0.3915  0.5157
   87SLPC  C311 8430   7.250   2.627   3.916  0.4728 -0.0917 -0.3969
   87SLPC  H11X 8431   7.145   2.617   3.949  0.7180  1.9279  1.1940
   87SLPC  H11Y 8432   7.280   2.734   3.915  0.9990 -0.2295 -1.4141
   87SLPC  C312 8433   7.339   2.567   4.031  0.0029 -0.2406 -0.0428
   87SLPC  H12X 8434   7.448   2.575   4.013  0.2233 -0.9628  0.8996
   87SLPC  H12Y 8435   7.328   2.457   4.020  0.0118 -0.4793  1.9418
   87SLPC  C313 8436   7.316   2.624   4.171  0.0394 -0.1523 -0.8356
   87SLPC  H13X 8437   7.208   2.614   4.194  0.1463 -0.2439 -0.3632
   87SLPC  H13Y 8438   7.337   2.733   4.172  0.6929 -0.2751 -0.6060
   87SLPC  C314 8439   7.402   2.551   4.276  0.7413 -0.3346 -0.1144
   87SLPC  H14X 8440   7.511   2.563   4.257  0.5705 -0.8894 -1.5414
   87SLPC  H14Y 8441   7.372   2.444   4.275 -1.6890  0.2653  0.9050
   87SLPC  C315 8442   7.382   2.611   4.412 -0.2415  0.4964 -0.1968
   87SLPC  H15X 8443   7.273   2.623   4.431 -0.4428  0.3979 -1.2532
   87SLPC  H15Y 8444   7.429   2.711   4.398  0.5287  0.0715 -0.6717
   87SLPC  C316 8445   7.450   2.540   4.535  0.1371 -0.3166 -0.3750
   87SLPC  H16X 8446   7.551   2.503   4.510 -0.5172 -0.6894 -2.7257
   87SLPC  H16Y 8447   7.383   2.458   4.569  0.2458 -0.1691  0.1975
   87SLPC  C317 8448   7.454   2.648   4.654  0.5133  0.2582  0.2877
   87SLPC  H17X 8449   7.445   2.751   4.613 -2.0371 -0.3788 -0.9599
   87SLPC  H17Y 8450   7.547   2.622   4.708  0.4851  0.8276  0.6185
   87SLPC  C318 8451   7.328   2.638   4.742  0.5757 -0.2238  0.3091
   87SLPC  H18X 8452   7.247   2.626   4.666  0.9944  1.4674 -0.4695
   87SLPC  H18Y 8453   7.320   2.731   4.803  0.6959 -1.5534  2.4612
   87SLPC  H18Z 8454   7.327   2.556   4.816 -1.0053  0.1689  0.7826
   88SLPC     N 8455   1.795   3.104   1.941  0.3267 -0.3897 -0.2555
   88SLPC   C13 8456   1.676   3.195   1.915 -0.0577  0.3397 -0.2105
   88SLPC  H13A 8457   1.649   3.181   1.811  0.0970 -0.4775 -0.1472
   88SLPC  H13B 8458   1.589   3.179   1.978  0.6001  0.5488  0.7653
   88SLPC  H13C 8459   1.695   3.300   1.928 -0.3244  0.3514  0.0996
   88SLPC   C14 8460   1.890   3.133   1.832 -0.3294  0.8824 -0.1064
   88SLPC  H14A 8461   1.935   3.230   1.842  2.1959 -0.2591  0.2846
   88SLPC  H14B 8462   1.975   3.067   1.827  1.3348  3.0263 -1.1834
   88SLPC  H14C 8463   1.843   3.122   1.736 -0.0635 -1.7853 -0.0145
   88SLPC   C15 8464   1.751   2.958   1.934 -1.0010 -0.3291 -0.1489
   88SLPC  H15A 8465   1.834   2.892   1.958 -2.0293 -1.3517  0.6964
   88SLPC  H15B 8466   1.672   2.938   2.004  1.4155 -3.9304  1.9104
   88SLPC  H15C 8467   1.712   2.935   1.836  0.6780  0.8953 -1.1674
   88SLPC   C12 8468   1.852   3.138   2.081 -0.4382  0.1152  0.6007
   88SLPC  H12A 8469   1.897   3.236   2.087  0.8237 -0.0211 -3.5188
   88SLPC  H12B 8470   1.938   3.073   2.092  1.2372  1.7406 -2.0229
   88SLPC   C11 8471   1.752   3.133   2.202 -0.1945 -0.3129  0.3632
   88SLPC  H11A 8472   1.669   3.205   2.183 -2.5050 -2.7980  0.5796
   88SLPC  H11B 8473   1.793   3.163   2.301  0.1522 -0.8283  0.3790
   88SLPC     P 8474   1.767   2.884   2.285 -0.2993 -0.1844  0.1719
   88SLPC   O13 8475   1.732   2.778   2.195 -0.0918 -0.1112  0.0795
   88SLPC   O14 8476   1.909   2.923   2.306  0.2007  0.2214 -0.2056
   88SLPC   O12 8477   1.694   3.009   2.219 -0.4681 -0.0495 -0.2096
   88SLPC   O11 8478   1.696   2.856   2.423  0.2901 -0.2009 -0.5877
   88SLPC    C1 8479   1.571   2.913   2.460 -0.2092 -0.9772  0.4046
   88SLPC    HA 8480   1.522   2.980   2.386 -1.3529  0.3378  2.2754
   88SLPC    HB 8481   1.500   2.830   2.481 -3.6450  2.2446  2.7143
   88SLPC    C2 8482   1.590   2.992   2.590  0.0917  0.4104  0.1051
   88SLPC    HS 8483   1.634   3.091   2.568 -0.3843  0.1544 -2.2722
   88SLPC   O21 8484   1.675   2.925   2.683  0.3018  0.0329 -0.1276
   88SLPC   C21 8485   1.629   2.814   2.737 -0.8143 -0.6828 -0.4033
   88SLPC   O22 8486   1.543   2.741   2.691  0.3203  0.4905 -0.3812
   88SLPC   C22 8487   1.703   2.798   2.868  0.4804  0.2894  0.4498
   88SLPC   H2R 8488   1.797   2.748   2.836 -0.1288  0.2511 -1.3825
   88SLPC   H2S 8489   1.724   2.895   2.917  0.1443  0.0179  1.1461
   88SLPC    C3 8490   1.455   3.027   2.663 -0.5100 -0.8214 -0.4489
   88SLPC    HX 8491   1.394   2.936   2.680 -0.9860 -0.4933 -0.3887
   88SLPC    HY 8492   1.407   3.099   2.593  2.3075  0.4731 -1.2114
   88SLPC   O31 8493   1.503   3.102   2.785  0.2648  0.4245  0.0740
   88SLPC   C31 8494   1.434   3.062   2.888  0.1055  0.4653  0.1294
   88SLPC   O32 8495   1.325   3.000   2.889 -0.4050  0.3459  0.0472
   88SLPC   C32 8496   1.507   3.093   3.018  0.2490  0.5988  0.5258
   88SLPC   H2X 8497   1.574   3.181   3.011  0.7379  0.2089  0.2915
   88SLPC   H2Y 8498   1.559   2.997   3.035 -1.7748 -0.6715 -0.1063
   88SLPC   C23 8499   1.621   2.702   2.962  0.1807 -0.6773  0.7942
   88SLPC   H3R 8500   1.515   2.733   2.953 -0.3924 -2.3282  1.6090
   88SLPC   H3S 8501   1.667   2.719   3.062  1.4113  1.2763 -0.0249
   88SLPC   C24 8502   1.630   2.558   2.919 -0.2909  0.0639 -0.4874
   88SLPC   H4R 8503   1.737   2.529   2.910 -0.8156 -1.9132 -0.8940
   88SLPC   H4S 8504   1.582   2.557   2.820  1.4672 -0.2803 -1.3810
   88SLPC   C25 8505   1.557   2.458   3.015  0.3556 -0.1868 -0.3988
   88SLPC   H5R 8506   1.550   2.360   2.964  0.0513 -1.0220  1.2068
   88SLPC   H5S 8507   1.455   2.499   3.032 -0.6018 -1.5975 -2.4434
   88SLPC   C26 8508   1.622   2.431   3.151 -0.3806  1.4282  0.0157
   88SLPC   H6R 8509   1.611   2.521   3.215 -2.0257  1.0610  0.2884
   88SLPC   H6S 8510   1.732   2.421   3.141 -0.3201  2.5466 -0.7115
   88SLPC   C27 8511   1.579   2.305   3.221 -0.3196 -0.6741 -0.3080
   88SLPC   H7R 8512   1.608   2.216   3.161  4.2904  1.0994 -1.1092
   88SLPC   H7S 8513   1.469   2.314   3.235 -0.1554 -0.7415  1.1910
   88SLPC   C28 8514   1.654   2.305   3.353  0.2959 -1.0677  0.2307
   88SLPC   H8R 8515   1.597   2.382   3.409  2.4940 -0.0356  1.2068
   88SLPC   H8S 8516   1.753   2.356   3.343 -0.7203  0.8728 -0.4599
   88SLPC   C29 8517   1.651   2.175   3.422 -0.6091 -0.8112  0.2391
   88SLPC   H9R 8518   1.572   2.111   3.382  0.0138 -1.6984  0.4064
   88SLPC  C210 8519   1.709   2.140   3.531 -0.0921 -0.3226 -0.6866
   88SLPC  H10R 8520   1.686   2.039   3.568  0.2250  0.3162  1.4050
   88SLPC  C211 8521   1.805   2.215   3.615 -0.2596  0.4389  0.1523
   88SLPC  H11R 8522   1.837   2.314   3.575 -1.3204  0.7519  0.0647
   88SLPC  H11S 8523   1.896   2.153   3.629  1.1536  2.2207 -0.7322
   88SLPC  C212 8524   1.730   2.254   3.740  0.7190  0.2084 -0.5312
   88SLPC  H12R 8525   1.625   2.284   3.724  0.7505 -0.7750 -2.9964
   88SLPC  C213 8526   1.772   2.243   3.868 -0.2540  0.4214 -0.0816
   88SLPC  H13R 8527   1.709   2.261   3.956  0.7071  0.8596  0.5386
   88SLPC  C214 8528   1.911   2.201   3.924 -0.0372 -0.2314  0.2763
   88SLPC  H14R 8529   1.980   2.141   3.862  1.3577  1.6223 -0.0351
   88SLPC  H14S 8530   1.897   2.133   4.011  0.9799 -0.4726  0.2588
   88SLPC  C215 8531   2.002   2.319   3.978 -0.2936  0.0243 -0.5234
   88SLPC  H15R 8532   2.015   2.401   3.903 -0.9031  1.5808  1.0160
   88SLPC  H15S 8533   2.096   2.269   4.009 -1.2640 -1.8258 -0.4412
   88SLPC  C216 8534   1.949   2.395   4.102  0.2690  0.1006  0.7787
   88SLPC  H16R 8535   1.876   2.342   4.167  0.6361 -2.3743 -0.7237
   88SLPC  H16S 8536   1.886   2.478   4.063  1.4325 -0.3826 -2.3427
   88SLPC  C217 8537   2.062   2.449   4.187 -0.8969 -0.0683  0.2792
   88SLPC  H17R 8538   2.117   2.364   4.233  0.6047  0.6344 -0.1421
   88SLPC  H17S 8539   2.025   2.501   4.278  1.1041 -0.8069  1.6075
   88SLPC  C218 8540   2.161   2.538   4.119 -0.2255 -0.2986 -0.2207
   88SLPC  H18R 8541   2.242   2.576   4.185 -1.9145 -3.2270  3.9527
   88SLPC  H18S 8542   2.104   2.626   4.083 -1.5440 -0.8005  0.5721
   88SLPC  H18T 8543   2.206   2.491   4.030  0.0143 -0.2113 -0.1480
   88SLPC   C33 8544   1.398   3.124   3.126  0.1220  0.5006  0.5800
   88SLPC   H3X 8545   1.313   3.053   3.115  0.4699  0.2330 -0.4155
   88SLPC   H3Y 8546   1.362   3.225   3.098 -0.6747 -0.3340 -1.5840
   88SLPC   C34 8547   1.462   3.126   3.267 -0.1083 -0.3618  0.5003
   88SLPC   H4X 8548   1.565   3.168   3.266 -0.0978 -0.3874  0.4706
   88SLPC   H4Y 8549   1.476   3.026   3.313  0.3443 -0.6958 -0.3333
   88SLPC   C35 8550   1.372   3.200   3.364  0.4180  0.2353  0.7802
   88SLPC   H5X 8551   1.272   3.151   3.365  1.0759 -1.2420 -1.0525
   88SLPC   H5Y 8552   1.370   3.307   3.333 -0.3793  0.1118  0.3856
   88SLPC   C36 8553   1.428   3.196   3.500  0.4164  0.0889  0.6423
   88SLPC   H6X 8554   1.528   3.245   3.493  1.1126 -1.4225 -0.5146
   88SLPC   H6Y 8555   1.441   3.091   3.533  1.4099 -0.2060 -0.6008
   88SLPC   C37 8556   1.342   3.277   3.600 -0.2574  0.4045 -0.3975
   88SLPC   H7X 8557   1.239   3.239   3.615 -0.6541  1.8030  0.6710
   88SLPC   H7Y 8558   1.330   3.380   3.559  1.3974  1.2109  0.9731
   88SLPC   C38 8559   1.408   3.294   3.747 -0.2567 -0.3035  0.9298
   88SLPC   H8X 8560   1.495   3.357   3.720 -2.1309  1.0262 -2.7627
   88SLPC   H8Y 8561   1.447   3.197   3.783 -0.5163 -0.7962 -0.0836
   88SLPC   C39 8562   1.324   3.380   3.839  0.1485 -0.3459  0.2911
   88SLPC   H9X 8563   1.237   3.317   3.868  0.1618 -0.2916  0.4517
   88SLPC   H9Y 8564   1.277   3.465   3.785  0.6413 -0.1654  0.1406
   88SLPC  C310 8565   1.407   3.441   3.949  0.2846 -0.1540 -0.4855
   88SLPC  H10X 8566   1.480   3.506   3.897  1.3477 -0.9056  0.0406
   88SLPC  H10Y 8567   1.469   3.373   4.011  0.8029  0.3567 -0.4368
   88SLPC  C311 8568   1.322   3.522   4.048  0.0254 -0.4694 -0.1668
   88SLPC  H11X 8569   1.243   3.463   4.098 -0.8957  0.8526  0.0060
   88SLPC  H11Y 8570   1.255   3.575   3.977 -1.0938  0.0796  1.2527
   88SLPC  C312 8571   1.391   3.628   4.137 -0.4583 -0.3877 -0.0364
   88SLPC  H12X 8572   1.476   3.651   4.068 -0.4443 -0.4797 -0.0495
   88SLPC  H12Y 8573   1.426   3.575   4.228 -0.5144  0.2971  0.3961
   88SLPC  C313 8574   1.299   3.749   4.172 -0.4799 -0.2874 -0.5853
   88SLPC  H13X 8575   1.270   3.789   4.073 -1.6395 -0.2278 -0.2384
   88SLPC  H13Y 8576   1.369   3.821   4.220  0.4118 -1.8147  0.4986
   88SLPC  C314 8577   1.191   3.710   4.270  0.2462  0.7377  0.1190
   88SLPC  H14X 8578   1.228   3.694   4.373 -0.4246 -1.9440  0.0306
   88SLPC  H14Y 8579   1.149   3.611   4.240  1.9244 -0.4028  1.4042
   88SLPC  C315 8580   1.071   3.803   4.282 -0.1501 -0.5629  0.3948
   88SLPC  H15X 8581   0.981   3.749   4.319 -0.5909 -0.6500 -0.7650
   88SLPC  H15Y 8582   1.060   3.843   4.179 -1.5813 -1.1644  0.2859
   88SLPC  C316 8583   1.086   3.919   4.385 -0.3123 -0.6421  0.5105
   88SLPC  H16X 8584   1.169   3.980   4.342 -0.6357 -0.6868 -0.2006
   88SLPC  H16Y 8585   1.113   3.879   4.485 -1.1737 -0.3941  0.8430
   88SLPC  C317 8586   0.962   4.009   4.391  0.4172  0.4553 -0.6993
   88SLPC  H17X 8587   0.886   3.953   4.450  0.3283 -1.3660 -2.4297
   88SLPC  H17Y 8588   0.929   4.023   4.286  1.4126  2.5323 -0.7916
   88SLPC  C318 8589   0.980   4.152   4.452  0.3461  0.5231  0.2901
   88SLPC  H18X 8590   1.077   4.195   4.420  0.4840  0.3465  0.4674
   88SLPC  H18Y 8591   0.990   4.140   4.563  0.6684 -0.0852  0.2000
   88SLPC  H18Z 8592   0.890   4.215   4.435 -0.8152 -0.9541  0.6605
   89SAPE     N 8593   3.881   4.511   6.629  0.2742 -0.0584 -0.0131
   89SAPE   HN1 8594   3.856   4.570   6.712 -1.4037 -0.5890 -0.0957
   89SAPE   HN2 8595   3.885   4.409   6.644  3.7948 -0.0945 -0.3756
   89SAPE   HN3 8596   3.975   4.545   6.598  0.7656 -0.1952  1.2824
   89SAPE   C12 8597   3.773   4.543   6.530 -0.1613  0.5616 -0.4690
   89SAPE  H12A 8598   3.794   4.644   6.489 -0.1462 -1.1159 -5.1348
   89SAPE  H12B 8599   3.680   4.543   6.590 -0.3085  3.2758 -0.5497
   89SAPE   C11 8600   3.757   4.434   6.422 -0.6050 -0.2220  0.1802
   89SAPE  H11A 8601   3.860   4.420   6.385 -0.0664  0.4732  1.3523
   89SAPE  H11B 8602   3.693   4.462   6.335 -0.6010  2.2458  0.9054
   89SAPE     P 8603   3.558   4.255   6.455 -0.1941 -0.2792  0.1689
   89SAPE   O13 8604   3.540   4.134   6.542 -0.4399  0.6333  1.0038
   89SAPE   O14 8605   3.470   4.371   6.473 -0.1148  0.2132  0.0553
   89SAPE   O12 8606   3.708   4.303   6.473  0.1312 -0.0026 -0.4714
   89SAPE   O11 8607   3.544   4.217   6.308  0.2389 -0.3051  0.4081
   89SAPE    C1 8608   3.640   4.133   6.238 -0.4772  0.0783 -0.4228
   89SAPE    HA 8609   3.745   4.151   6.268 -1.0009 -0.0211  1.5986
   89SAPE    HB 8610   3.615   4.029   6.265  0.2004  0.4064  1.6765
   89SAPE    C2 8611   3.635   4.133   6.086 -0.2912  0.0868  0.4075
   89SAPE    HS 8612   3.538   4.085   6.064  0.1387 -0.4127 -0.4226
   89SAPE   O21 8613   3.741   4.047   6.043  0.1345  0.7216  0.2227
   89SAPE   C21 8614   3.709   3.921   6.023 -0.7566 -0.0961  0.3450
   89SAPE   O22 8615   3.599   3.872   6.041  0.1995 -0.6009 -0.3229
   89SAPE   C22 8616   3.839   3.850   5.971 -0.2729 -0.1618  0.2220
   89SAPE   H2R 8617   3.925   3.917   5.951 -0.7812  0.4138 -0.0573
   89SAPE   H2S 8618   3.866   3.777   6.051 -3.1866 -2.2069 -0.4854
   89SAPE    C3 8619   3.647   4.270   6.016  0.7673 -0.4762  0.2584
   89SAPE    HX 8620   3.746   4.308   6.051  1.5999 -2.3775  0.1226
   89SAPE    HY 8621   3.574   4.334   6.069  0.2381  0.0584 -1.0656
   89SAPE   O31 8622   3.647   4.278   5.873  0.9309 -0.1339 -0.3232
   89SAPE   C31 8623   3.532   4.258   5.812  0.1501 -0.3748 -0.0573
   89SAPE   O32 8624   3.429   4.223   5.867 -0.1988 -0.1377 -0.4416
   89SAPE   C32 8625   3.551   4.279   5.661 -0.2227 -0.3352 -0.0975
   89SAPE   H2X 8626   3.501   4.197   5.606  0.4724 -1.0815  0.3691
   89SAPE   H2Y 8627   3.660   4.284   5.642 -0.0920  0.3181  0.7475
   89SAPE   C23 8628   3.810   3.772   5.839  0.5484 -0.5873  0.0456
   89SAPE   H3R 8629   3.744   3.683   5.848  1.2493 -1.5940 -3.3772
   89SAPE   H3S 8630   3.900   3.727   5.791  0.9171 -1.2989  1.3596
   89SAPE   C24 8631   3.734   3.863   5.737  0.1070  0.2580  0.1962
   89SAPE   H4R 8632   3.628   3.875   5.765  0.2080 -1.6307  1.6320
   89SAPE   H4S 8633   3.732   3.794   5.649 -0.6961 -0.2227  0.5822
   89SAPE   C25 8634   3.792   4.002   5.694 -0.3508  0.5699 -0.6402
   89SAPE   H5R 8635   3.760   4.083   5.762 -0.7936  0.1444 -0.3394
   89SAPE   C26 8636   3.861   4.025   5.582  0.5612 -0.6486  0.0300
   89SAPE   H6R 8637   3.883   4.131   5.561  1.1228 -0.9211 -0.8113
   89SAPE   C27 8638   3.913   3.916   5.491 -0.1477 -0.0562  0.7729
   89SAPE   H7R 8639   3.827   3.873   5.436  2.2430 -1.5113 -2.0791
   89SAPE   H7S 8640   3.954   3.837   5.557 -1.3628 -0.3263  1.2284
   89SAPE   C28 8641   4.018   3.964   5.389  0.6038  0.6772 -0.1129
   89SAPE   H8R 8642   4.108   4.001   5.441  1.5452 -1.1368 -0.4025
   89SAPE   C29 8643   4.035   3.942   5.258 -0.2563 -0.0909 -0.2582
   89SAPE   H9R 8644   4.124   3.986   5.212 -0.2490 -2.1225 -2.3714
   89SAPE  C210 8645   3.933   3.877   5.167 -0.3724  0.3306 -0.6749
   89SAPE  H10R 8646   3.880   3.965   5.126 -2.2322  0.5224  1.8906
   89SAPE  H10S 8647   3.873   3.804   5.226 -0.4456  0.6029 -0.4117
   89SAPE  C211 8648   3.996   3.783   5.065  0.2897 -0.2629 -0.8166
   89SAPE  H11R 8649   3.997   3.681   5.104 -0.6777  0.5809  1.5862
   89SAPE  C212 8650   4.028   3.811   4.932  0.0572  0.3270  0.8805
   89SAPE  H12R 8651   4.062   3.729   4.868 -1.7007  0.9584 -0.9836
   89SAPE  C213 8652   4.021   3.949   4.882  0.3032 -0.1044  0.1162
   89SAPE  H13R 8653   4.102   3.962   4.807 -0.1288 -1.7472 -0.6688
   89SAPE  H13S 8654   4.037   4.034   4.951  0.4205  0.8982 -1.0977
   89SAPE  C214 8655   3.881   3.977   4.821 -0.3232  0.0325  0.6273
   89SAPE  H14R 8656   3.796   3.917   4.859  2.3856 -4.6266  0.1422
   89SAPE  C215 8657   3.868   4.055   4.713  0.6173 -0.3338  0.0611
   89SAPE  H15R 8658   3.773   4.067   4.659  1.3890  1.3802 -1.0129
   89SAPE  C216 8659   3.986   4.123   4.640  0.9637 -0.5664 -1.3295
   89SAPE  H16R 8660   4.067   4.161   4.706  0.0948 -1.2691  0.2147
   89SAPE  H16S 8661   3.933   4.208   4.591 -1.8098  0.0861  2.2930
   89SAPE  C217 8662   4.034   4.021   4.537  0.6434  0.1042  0.6190
   89SAPE  H17R 8663   3.945   3.991   4.478 -0.5590  0.8771  1.9781
   89SAPE  H17S 8664   4.077   3.934   4.591  0.6860 -0.7664 -0.7824
   89SAPE  C218 8665   4.129   4.088   4.439  0.0962  0.3290  0.2397
   89SAPE  H18R 8666   4.222   4.138   4.474  0.4767  0.7281 -1.2709
   89SAPE  H18S 8667   4.081   4.171   4.383 -0.7439 -0.3986 -0.1398
   89SAPE  C219 8668   4.181   3.990   4.334 -0.1626  0.8129  0.1331
   89SAPE  H19R 8669   4.101   3.929   4.287  0.0743  0.4791  0.1585
   89SAPE  H19S 8670   4.241   3.913   4.387  2.1596  1.8292 -0.8631
   89SAPE  C220 8671   4.270   4.052   4.228  0.0148  0.1176 -0.0640
   89SAPE  H20R 8672   4.299   3.974   4.154 -0.8475  0.1784 -0.4801
   89SAPE  H20S 8673   4.364   4.097   4.265 -0.5137  0.3679  1.0315
   89SAPE  H20T 8674   4.213   4.136   4.183 -2.8853 -1.6479  0.0291
   89SAPE   C33 8675   3.492   4.415   5.623 -0.2753  0.5998 -0.1101
   89SAPE   H3X 8676   3.531   4.496   5.690 -1.0661 -0.8137  2.1827
   89SAPE   H3Y 8677   3.381   4.409   5.631 -0.4022  1.1680 -1.1843
   89SAPE   C34 8678   3.535   4.448   5.478  1.1549  0.4207  0.0211
   89SAPE   H4X 8679   3.644   4.468   5.474  1.1066  0.5624 -0.6355
   89SAPE   H4Y 8680   3.492   4.546   5.449  1.1115  0.0366 -1.3022
   89SAPE   C35 8681   3.485   4.361   5.359  0.3958  0.7436  0.4349
   89SAPE   H5X 8682   3.486   4.429   5.271 -3.1016  2.4393  1.4944
   89SAPE   H5Y 8683   3.379   4.329   5.370  0.5905 -0.0849 -0.0626
   89SAPE   C36 8684   3.573   4.242   5.317  0.3270  0.8174  0.7892
   89SAPE   H6X 8685   3.630   4.196   5.401  1.1205 -0.2504 -0.2983
   89SAPE   H6Y 8686   3.656   4.279   5.253  0.8347  0.0352  0.9877
   89SAPE   C37 8687   3.489   4.124   5.254  0.3175  0.7000  0.3201
   89SAPE   H7X 8688   3.412   4.110   5.333  1.1980  0.2464  1.1188
   89SAPE   H7Y 8689   3.560   4.039   5.250 -0.8172 -0.2590 -2.9224
   89SAPE   C38 8690   3.438   4.138   5.109  0.5922  0.2276 -0.2248
   89SAPE   H8X 8691   3.366   4.222   5.112  0.9943  0.5835 -0.3316
   89SAPE   H8Y 8692   3.398   4.040   5.078 -0.5877  0.6002  0.0652
   89SAPE   C39 8693   3.547   4.176   5.002  0.1112  0.0431  0.4070
   89SAPE   H9X 8694   3.634   4.107   5.001 -1.3129 -1.8364 -1.1086
   89SAPE   H9Y 8695   3.586   4.274   5.038 -4.6158  2.5156 -0.3883
   89SAPE  C310 8696   3.493   4.191   4.860 -0.2172 -0.0256  0.0795
   89SAPE  H10X 8697   3.583   4.180   4.796 -0.9950 -0.8610 -0.9056
   89SAPE  H10Y 8698   3.456   4.295   4.849  0.5665  0.2288 -0.1751
   89SAPE  C311 8699   3.406   4.078   4.810  0.0272 -0.3918 -0.1982
   89SAPE  H11X 8700   3.321   4.068   4.880 -2.1359  0.0890 -2.6155
   89SAPE  H11Y 8701   3.460   3.981   4.822 -0.9251 -0.9576 -0.4138
   89SAPE  C312 8702   3.373   4.088   4.658 -0.1428 -0.5927  0.0073
   89SAPE  H12X 8703   3.454   4.131   4.596 -1.2821 -0.1279 -1.2091
   89SAPE  H12Y 8704   3.294   4.165   4.657  0.7405  0.3696  1.2303
   89SAPE  C313 8705   3.338   3.948   4.604 -0.2131  0.4520  0.5256
   89SAPE  H13X 8706   3.248   3.904   4.654 -2.2570  1.6094 -1.9105
   89SAPE  H13Y 8707   3.420   3.876   4.623 -0.6976 -0.6727 -1.3854
   89SAPE  C314 8708   3.311   3.950   4.450  0.0526 -0.8419  0.2957
   89SAPE  H14X 8709   3.412   3.956   4.405  0.3589 -0.8195  0.9636
   89SAPE  H14Y 8710   3.257   4.044   4.426 -0.7167 -1.5364 -0.8010
   89SAPE  C315 8711   3.233   3.834   4.396  0.3762  0.0658  0.3870
   89SAPE  H15X 8712   3.141   3.816   4.457 -0.2805  0.1884 -0.5520
   89SAPE  H15Y 8713   3.299   3.745   4.391 -1.8719 -1.8180  1.6610
   89SAPE  C316 8714   3.178   3.853   4.247  0.5278 -0.0685  0.3427
   89SAPE  H16X 8715   3.086   3.913   4.257 -1.7522 -3.1703 -0.4004
   89SAPE  H16Y 8716   3.139   3.758   4.204  1.4007  0.5300 -1.9147
   89SAPE  C317 8717   3.276   3.914   4.144  0.7091 -0.0411  0.2237
   89SAPE  H17X 8718   3.303   4.009   4.195 -1.7294  1.4554 -1.1388
   89SAPE  H17Y 8719   3.221   3.943   4.052  3.1300  0.9098 -1.0322
   89SAPE  C318 8720   3.393   3.818   4.114 -0.1712 -0.0422  0.6757
   89SAPE  H18X 8721   3.468   3.856   4.041 -1.2129 -3.4885 -2.4724
   89SAPE  H18Y 8722   3.370   3.721   4.066  0.5103 -0.7362  1.7113
   89SAPE  H18Z 8723   3.435   3.785   4.212 -1.9660 -0.6782  1.2670
   90SAPE     N 8724   5.823   2.252   6.624 -0.6423 -0.6731 -0.0235
   90SAPE   HN1 8725   5.798   2.234   6.724 -0.5302 -0.4589  0.0434
   90SAPE   HN2 8726   5.835   2.352   6.600  2.1697 -0.4025  1.9390
   90SAPE   HN3 8727   5.740   2.228   6.567 -0.4611  2.3221 -1.7290
   90SAPE   C12 8728   5.941   2.162   6.586  0.3493 -0.5520  0.1937
   90SAPE  H12A 8729   5.986   2.212   6.498  0.2690 -1.1678 -0.2041
   90SAPE  H12B 8730   5.886   2.069   6.560 -1.3541 -0.1013  1.9409
   90SAPE   C11 8731   6.038   2.130   6.697 -0.2154  0.4087  0.2615
   90SAPE  H11A 8732   6.119   2.067   6.654 -0.6167 -0.0433  0.1574
   90SAPE  H11B 8733   5.979   2.079   6.775 -0.6235 -2.0941 -1.5561
   90SAPE     P 8734   6.233   2.289   6.798 -0.4923 -0.3480  0.6689
   90SAPE   O13 8735   6.250   2.387   6.911 -0.3149  0.1638 -0.3887
   90SAPE   O14 8736   6.294   2.157   6.813  0.3764  0.2439  0.2558
   90SAPE   O12 8737   6.082   2.253   6.753  0.2893 -0.4992 -1.2115
   90SAPE   O11 8738   6.293   2.363   6.674  0.1797  0.3513  0.0457
   90SAPE    C1 8739   6.211   2.439   6.578  0.2773 -0.2186  0.4303
   90SAPE    HA 8740   6.104   2.443   6.606  0.7385  1.7900  2.1348
   90SAPE    HB 8741   6.250   2.543   6.578  0.4026 -0.2658  0.5095
   90SAPE    C2 8742   6.230   2.388   6.434  0.3135  0.9895 -1.0851
   90SAPE    HS 8743   6.194   2.284   6.447 -1.3375  1.8835  4.2470
   90SAPE   O21 8744   6.362   2.401   6.401 -0.0171  0.2452 -0.0486
   90SAPE   C21 8745   6.402   2.318   6.309  0.8068 -0.2614  0.7794
   90SAPE   O22 8746   6.346   2.211   6.274 -0.4031  0.4736  0.2605
   90SAPE   C22 8747   6.525   2.375   6.242 -1.2180  0.1421  0.2440
   90SAPE   H2R 8748   6.516   2.485   6.256 -2.0476  0.0648  0.3824
   90SAPE   H2S 8749   6.608   2.339   6.305 -0.9892  0.0546 -0.1030
   90SAPE    C3 8750   6.135   2.465   6.335 -0.1402  0.5306 -0.0415
   90SAPE    HX 8751   6.161   2.572   6.321 -1.8300  0.7065 -2.4011
   90SAPE    HY 8752   6.038   2.453   6.386 -0.7332 -0.7560 -1.4137
   90SAPE   O31 8753   6.141   2.412   6.207  0.3494 -0.0609  0.1046
   90SAPE   C31 8754   6.044   2.323   6.172  0.0283 -0.8521 -0.9703
   90SAPE   O32 8755   5.958   2.287   6.251  0.3366  0.6381  0.0482
   90SAPE   C32 8756   6.063   2.285   6.028 -0.1153  0.0966 -0.0545
   90SAPE   H2X 8757   6.121   2.191   6.037 -0.2194 -0.0300 -0.6908
   90SAPE   H2Y 8758   6.130   2.357   5.977 -0.5858  0.0685 -0.7183
   90SAPE   C23 8759   6.542   2.330   6.099  0.4343  0.4051  0.7082
   90SAPE   H3R 8760   6.539   2.220   6.092  0.8136  0.3867  0.8301
   90SAPE   H3S 8761   6.641   2.356   6.056  0.3269 -1.8927 -1.1469
   90SAPE   C24 8762   6.435   2.385   6.003 -0.6434  0.8067 -0.1941
   90SAPE   H4R 8763   6.336   2.350   6.040  0.2625 -1.7594 -0.0079
   90SAPE   H4S 8764   6.446   2.318   5.915  0.2438  0.7760 -0.0725
   90SAPE   C25 8765   6.443   2.531   5.968  0.2767 -0.0898  0.3364
   90SAPE   H5R 8766   6.433   2.603   6.051  0.5136 -1.3157  1.4816
   90SAPE   C26 8767   6.456   2.571   5.842  0.1247  0.6054 -0.3314
   90SAPE   H6R 8768   6.475   2.679   5.834  1.3230  0.3782 -0.6479
   90SAPE   C27 8769   6.470   2.505   5.708 -0.6074  0.6660 -0.9013
   90SAPE   H7R 8770   6.542   2.421   5.711 -1.3939 -0.0258 -0.8127
   90SAPE   H7S 8771   6.509   2.579   5.635 -0.9921  2.4014  0.5420
   90SAPE   C28 8772   6.331   2.460   5.658  0.0200 -0.5528  0.3139
   90SAPE   H8R 8773   6.247   2.522   5.690 -1.9066 -2.7965 -0.1627
   90SAPE   C29 8774   6.308   2.372   5.558 -0.1717  0.6782  0.4756
   90SAPE   H9R 8775   6.206   2.367   5.520  0.7022  0.3940 -2.0125
   90SAPE  C210 8776   6.397   2.285   5.482  0.6368 -0.1345 -0.4969
   90SAPE  H10R 8777   6.494   2.336   5.467  2.6265 -2.6659  2.4513
   90SAPE  H10S 8778   6.351   2.270   5.382 -1.1278  0.2647  0.2177
   90SAPE  C211 8779   6.430   2.156   5.551  0.3038  0.0852 -0.3079
   90SAPE  H11R 8780   6.469   2.174   5.652  0.6479 -2.3871  0.0682
   90SAPE  C212 8781   6.439   2.033   5.497  0.0458  0.4482 -0.2303
   90SAPE  H12R 8782   6.477   1.959   5.569  2.1234  0.7644 -0.9521
   90SAPE  C213 8783   6.417   1.986   5.355  0.2888  0.2333 -0.5162
   90SAPE  H13R 8784   6.395   2.074   5.290  0.0313  0.2145 -0.4534
   90SAPE  H13S 8785   6.337   1.910   5.362  0.9214 -0.6150 -2.0281
   90SAPE  C214 8786   6.533   1.910   5.301 -0.3061 -0.2271 -0.4014
   90SAPE  H14R 8787   6.630   1.957   5.323 -0.0626 -1.5110  1.5043
   90SAPE  C215 8788   6.531   1.825   5.197 -0.1115  0.2079 -0.0688
   90SAPE  H15R 8789   6.629   1.787   5.165  0.5554  0.7824  1.1786
   90SAPE  C216 8790   6.410   1.753   5.148 -0.0223 -0.0494 -0.6091
   90SAPE  H16R 8791   6.330   1.746   5.226  0.4519 -0.0970 -0.1181
   90SAPE  H16S 8792   6.436   1.645   5.143  1.0533  0.0768  1.1905
   90SAPE  C217 8793   6.363   1.806   5.013 -0.0429 -0.6798 -0.5257
   90SAPE  H17R 8794   6.440   1.796   4.933  0.6274  1.5138 -0.2160
   90SAPE  H17S 8795   6.334   1.913   5.012  0.6688 -0.4813 -1.2089
   90SAPE  C218 8796   6.241   1.731   4.971 -0.2299  0.5100 -0.4877
   90SAPE  H18R 8797   6.160   1.731   5.047  1.0327 -0.8435  0.9194
   90SAPE  H18S 8798   6.268   1.625   4.954  1.3765  0.7383  0.4854
   90SAPE  C219 8799   6.198   1.772   4.827  0.7514 -0.2778 -0.4976
   90SAPE  H19R 8800   6.295   1.779   4.773 -0.1074 -1.5155 -2.3042
   90SAPE  H19S 8801   6.140   1.867   4.835 -0.6382 -1.2479  2.7721
   90SAPE  C220 8802   6.111   1.660   4.760 -1.1931 -0.5205 -0.3762
   90SAPE  H20R 8803   6.172   1.568   4.759 -0.0896  0.1264  1.5433
   90SAPE  H20S 8804   6.087   1.679   4.653  0.3128 -0.4145 -0.7074
   90SAPE  H20T 8805   6.023   1.640   4.826  0.3425 -1.8643  1.4033
   90SAPE   C33 8806   5.934   2.267   5.950 -0.1706  0.4861 -0.3453
   90SAPE   H3X 8807   5.876   2.358   5.979  2.3075  2.2420 -0.5510
   90SAPE   H3Y 8808   5.872   2.183   5.988  0.5180  0.1804  0.1172
   90SAPE   C34 8809   5.949   2.271   5.796 -0.3545  0.5502  0.5137
   90SAPE   H4X 8810   6.011   2.359   5.769  0.2270  0.0653  0.2454
   90SAPE   H4Y 8811   5.851   2.299   5.751  0.2835  1.5636 -0.2893
   90SAPE   C35 8812   6.002   2.139   5.740 -0.3228  0.0076 -0.3680
   90SAPE   H5X 8813   5.974   2.052   5.804  2.1932 -0.6662 -0.0562
   90SAPE   H5Y 8814   6.113   2.140   5.749 -0.4393 -0.1708  1.7573
   90SAPE   C36 8815   5.962   2.108   5.595  0.0062 -0.1906  0.2011
   90SAPE   H6X 8816   5.992   2.188   5.525 -0.6936  0.4985  0.6764
   90SAPE   H6Y 8817   5.852   2.102   5.585  0.0439  0.3959 -0.5965
   90SAPE   C37 8818   6.031   1.979   5.555 -0.3276  0.0156  0.1749
   90SAPE   H7X 8819   5.992   1.896   5.617  0.5055 -1.2889 -1.0122
   90SAPE   H7Y 8820   6.142   1.984   5.567  0.0982 -1.4079 -2.5045
   90SAPE   C38 8821   5.997   1.926   5.419 -0.6591 -0.0428  0.1571
   90SAPE   H8X 8822   6.053   1.833   5.397 -1.3497 -1.0262  2.2762
   90SAPE   H8Y 8823   6.025   1.993   5.335  0.6895 -3.1065 -2.0128
   90SAPE   C39 8824   5.848   1.894   5.401 -0.3265 -0.6942  0.1798
   90SAPE   H9X 8825   5.781   1.983   5.407  0.1770 -0.2070 -0.9480
   90SAPE   H9Y 8826   5.823   1.814   5.473  1.4787  0.5039  2.2791
   90SAPE  C310 8827   5.828   1.836   5.258  0.2758 -0.3988 -0.6907
   90SAPE  H10X 8828   5.897   1.751   5.238  0.3210 -0.3479 -0.7490
   90SAPE  H10Y 8829   5.845   1.914   5.181 -2.2755 -0.9623 -1.9373
   90SAPE  C311 8830   5.686   1.778   5.227  0.7136  0.1589 -0.5927
   90SAPE  H11X 8831   5.615   1.863   5.221  0.9659  0.3719 -0.6398
   90SAPE  H11Y 8832   5.666   1.709   5.311 -0.7756  0.2861 -0.8211
   90SAPE  C312 8833   5.670   1.708   5.098 -0.0239 -0.1582 -0.1170
   90SAPE  H12X 8834   5.742   1.623   5.098 -1.1296 -1.1043 -0.2989
   90SAPE  H12Y 8835   5.702   1.784   5.023  2.4372  0.4818  1.4596
   90SAPE  C313 8836   5.523   1.661   5.084  1.4187  0.5992  0.1862
   90SAPE  H13X 8837   5.453   1.735   5.128  0.4342 -1.5733  2.5444
   90SAPE  H13Y 8838   5.512   1.569   5.145 -1.2147  1.1923  0.6906
   90SAPE  C314 8839   5.483   1.615   4.936 -0.1984  0.1304 -0.4619
   90SAPE  H14X 8840   5.513   1.695   4.866 -0.6458 -0.2016 -1.0465
   90SAPE  H14Y 8841   5.372   1.622   4.941 -0.1109  3.7168 -0.9103
   90SAPE  C315 8842   5.528   1.472   4.893 -0.2798 -1.0117 -0.5150
   90SAPE  H15X 8843   5.436   1.412   4.903 -0.6823  0.0073  3.0848
   90SAPE  H15Y 8844   5.605   1.433   4.963  0.5985 -0.1288 -0.9550
   90SAPE  C316 8845   5.584   1.456   4.748 -0.0247 -0.1625 -0.1584
   90SAPE  H16X 8846   5.617   1.350   4.735 -0.0162 -0.8823  4.2455
   90SAPE  H16Y 8847   5.663   1.534   4.749 -0.4597  0.3059  1.6225
   90SAPE  C317 8848   5.484   1.476   4.639 -0.3304 -0.6033  0.9297
   90SAPE  H17X 8849   5.450   1.581   4.632 -2.1421 -1.2279 -1.5367
   90SAPE  H17Y 8850   5.390   1.417   4.647 -1.4662  1.2251  1.6646
   90SAPE  C318 8851   5.537   1.437   4.499 -0.5025 -0.8126  0.0773
   90SAPE  H18X 8852   5.459   1.436   4.420 -0.7391 -1.8116  0.3153
   90SAPE  H18Y 8853   5.601   1.347   4.488  3.1041  1.7358 -1.9104
   90SAPE  H18Z 8854   5.611   1.517   4.474  0.2816 -1.3239  0.7044
   91SAPE     N 8855   4.789   5.567   6.507  0.3000  0.2329  0.2204
   91SAPE   HN1 8856   4.791   5.464   6.496 -0.4669  0.2911 -0.4933
   91SAPE   HN2 8857   4.699   5.602   6.471  0.2111 -0.2479 -0.0298
   91SAPE   HN3 8858   4.863   5.608   6.446 -1.1656  0.8319 -1.2271
   91SAPE   C12 8859   4.816   5.586   6.656 -0.7955  0.6667 -0.5072
   91SAPE  H12A 8860   4.840   5.693   6.672 -1.6467  0.5037  2.5080
   91SAPE  H12B 8861   4.895   5.512   6.684 -3.0241 -0.8362  2.3733
   91SAPE   C11 8862   4.697   5.533   6.730 -0.5962  0.2668 -0.1352
   91SAPE  H11A 8863   4.738   5.515   6.832 -0.7279  1.3844  0.1276
   91SAPE  H11B 8864   4.651   5.438   6.695 -0.9770  0.4784 -0.2184
   91SAPE     P 8865   4.475   5.643   6.650  0.0470 -0.2069  0.1457
   91SAPE   O13 8866   4.404   5.516   6.658 -0.6027 -0.7231  0.0768
   91SAPE   O14 8867   4.403   5.766   6.687 -0.4364 -0.4845 -0.1246
   91SAPE   O12 8868   4.603   5.633   6.750 -0.3078 -0.2876  0.4419
   91SAPE   O11 8869   4.543   5.655   6.509 -0.4476 -0.8468  0.5849
   91SAPE    C1 8870   4.551   5.784   6.435  0.4636  0.4637 -0.2749
   91SAPE    HA 8871   4.448   5.824   6.437  0.0863 -0.5058  0.8421
   91SAPE    HB 8872   4.626   5.852   6.483  0.9322  0.7572 -1.3833
   91SAPE    C2 8873   4.578   5.768   6.283  0.2234 -0.2787 -0.3389
   91SAPE    HS 8874   4.496   5.703   6.246 -1.3031  0.8249  0.9683
   91SAPE   O21 8875   4.701   5.694   6.263  0.1394 -0.6797  0.5245
   91SAPE   C21 8876   4.703   5.619   6.149  0.2109 -0.3258 -0.4516
   91SAPE   O22 8877   4.613   5.608   6.068 -0.3207  0.5734 -0.0131
   91SAPE   C22 8878   4.831   5.547   6.162 -0.8232 -0.2200 -0.1015
   91SAPE   H2R 8879   4.919   5.615   6.160 -1.1463  0.2020 -1.9144
   91SAPE   H2S 8880   4.828   5.495   6.260  2.9208  0.7455  0.6692
   91SAPE    C3 8881   4.564   5.901   6.210  0.2472 -0.2431  0.2473
   91SAPE    HX 8882   4.640   5.972   6.248 -0.8407  1.8125 -1.2086
   91SAPE    HY 8883   4.466   5.942   6.243  0.4672  0.4639  0.0408
   91SAPE   O31 8884   4.573   5.893   6.066  0.1446 -1.2815 -0.2887
   91SAPE   C31 8885   4.464   5.864   6.007  0.6275  0.0082 -0.1817
   91SAPE   O32 8886   4.358   5.845   6.057  0.3115 -0.4479  0.2101
   91SAPE   C32 8887   4.486   5.866   5.861 -0.2487  0.3821  0.1055
   91SAPE   H2X 8888   4.529   5.766   5.843  1.4588  0.3606  3.4984
   91SAPE   H2Y 8889   4.555   5.950   5.835 -0.2204  0.1911 -0.4387
   91SAPE   C23 8890   4.857   5.433   6.062  0.4804  0.5840 -0.3834
   91SAPE   H3R 8891   4.876   5.474   5.961  0.1977 -3.5417 -2.2959
   91SAPE   H3S 8892   4.766   5.370   6.055  0.5584  0.3612  0.5069
   91SAPE   C24 8893   4.974   5.338   6.110  0.6395  0.4759 -0.0896
   91SAPE   H4R 8894   4.981   5.249   6.043 -2.0117  0.5341 -0.5496
   91SAPE   H4S 8895   4.957   5.311   6.216 -0.2982 -0.7074 -0.5199
   91SAPE   C25 8896   5.105   5.409   6.098  0.4337  0.0555  0.5766
   91SAPE   H5R 8897   5.132   5.446   6.198 -1.9774  0.3838  1.1659
   91SAPE   C26 8898   5.180   5.425   5.993  0.4158 -0.2312  0.2490
   91SAPE   H6R 8899   5.272   5.484   6.008  1.0182 -1.1640  0.3105
   91SAPE   C27 8900   5.145   5.387   5.855  0.5775 -0.1394 -0.5623
   91SAPE   H7R 8901   5.100   5.482   5.819  2.5264  1.4890  1.0616
   91SAPE   H7S 8902   5.072   5.304   5.839  1.8791 -0.8375 -3.4298
   91SAPE   C28 8903   5.276   5.358   5.789 -0.1634 -0.2156 -1.2725
   91SAPE   H8R 8904   5.350   5.324   5.863 -3.1846 -0.5162  1.8647
   91SAPE   C29 8905   5.293   5.368   5.657  0.0156  0.4594  0.4819
   91SAPE   H9R 8906   5.389   5.341   5.609  0.8825  0.5170  2.0993
   91SAPE  C210 8907   5.181   5.401   5.555 -0.4075 -0.4658  0.3171
   91SAPE  H10R 8908   5.085   5.353   5.583 -0.4587 -0.4951  0.0979
   91SAPE  H10S 8909   5.200   5.334   5.469 -1.0332  0.4240 -0.5478
   91SAPE  C211 8910   5.146   5.547   5.526  0.2640 -0.0891  0.4213
   91SAPE  H11R 8911   5.161   5.618   5.609  5.1079 -1.2503  0.8516
   91SAPE  C212 8912   5.121   5.601   5.407  0.4557 -0.8483  0.1491
   91SAPE  H12R 8913   5.086   5.705   5.406 -1.1147 -1.3602 -0.2317
   91SAPE  C213 8914   5.100   5.525   5.276 -0.2995 -0.3817 -0.1889
   91SAPE  H13R 8915   5.067   5.424   5.309 -0.0489  0.0956  1.6432
   91SAPE  H13S 8916   5.190   5.519   5.211 -0.5390 -1.5416 -0.4289
   91SAPE  C214 8917   4.982   5.583   5.202  0.0933  0.0734 -0.2419
   91SAPE  H14R 8918   4.933   5.672   5.243 -0.0808  0.9519 -2.2254
   91SAPE  C215 8919   4.941   5.535   5.085  0.0791  0.3685  0.8341
   91SAPE  H15R 8920   4.851   5.577   5.037 -1.9352 -0.4467  3.6454
   91SAPE  C216 8921   5.001   5.419   5.018 -0.4478 -1.0801 -0.0027
   91SAPE  H16R 8922   4.929   5.355   4.963 -1.3344 -1.6265  1.7144
   91SAPE  H16S 8923   5.028   5.346   5.097 -1.2480  0.0136  1.3191
   91SAPE  C217 8924   5.106   5.465   4.919 -0.2420 -0.3221  0.0385
   91SAPE  H17R 8925   5.201   5.414   4.946 -0.0148 -0.9599 -1.8381
   91SAPE  H17S 8926   5.125   5.575   4.924  0.2423 -0.4549  1.6108
   91SAPE  C218 8927   5.073   5.445   4.769  0.4314  0.3099 -0.3202
   91SAPE  H18R 8928   5.142   5.498   4.699  1.4864 -1.9842 -1.0976
   91SAPE  H18S 8929   4.965   5.468   4.752 -0.1575 -1.5206  0.7115
   91SAPE  C219 8930   5.091   5.298   4.733 -0.6612 -0.2884  0.8810
   91SAPE  H19R 8931   4.999   5.238   4.747  0.8942 -2.8722  0.5892
   91SAPE  H19S 8932   5.179   5.254   4.784 -0.1641 -0.7819 -0.3633
   91SAPE  C220 8933   5.125   5.293   4.584  0.2957 -0.1550  0.2327
   91SAPE  H20R 8934   5.220   5.346   4.566  0.0212  1.0788  2.0845
   91SAPE  H20S 8935   5.046   5.326   4.513 -0.7094 -0.5212  1.1474
   91SAPE  H20T 8936   5.143   5.189   4.549 -2.1362 -0.2587 -0.8973
   91SAPE   C33 8937   4.353   5.880   5.780 -0.4301 -0.6227 -0.8262
   91SAPE   H3X 8938   4.304   5.975   5.807 -0.4778 -1.4683  2.4388
   91SAPE   H3Y 8939   4.292   5.788   5.796  1.1495 -1.1348  3.7678
   91SAPE   C34 8940   4.380   5.897   5.635 -0.2574 -0.3038  0.3986
   91SAPE   H4X 8941   4.419   5.808   5.581 -1.1474  1.1900 -2.9850
   91SAPE   H4Y 8942   4.447   5.984   5.612 -2.0109  0.4740 -2.1721
   91SAPE   C35 8943   4.237   5.908   5.573  0.2041  0.3833  0.3662
   91SAPE   H5X 8944   4.196   6.003   5.613  1.7815  0.3750  2.1229
   91SAPE   H5Y 8945   4.174   5.823   5.608  2.1033 -0.8314  1.0023
   91SAPE   C36 8946   4.258   5.919   5.420 -0.1833 -1.2816  0.1423
   91SAPE   H6X 8947   4.344   5.857   5.384 -0.4628 -1.9845  0.6621
   91SAPE   H6Y 8948   4.297   6.019   5.391 -1.2524 -1.1446 -0.8852
   91SAPE   C37 8949   4.139   5.895   5.328  0.7403 -0.3517 -0.1742
   91SAPE   H7X 8950   4.083   5.988   5.355  2.4755  0.4498  0.8395
   91SAPE   H7Y 8951   4.083   5.807   5.368 -1.1174  0.4997 -0.7873
   91SAPE   C38 8952   4.152   5.865   5.177 -0.4889 -0.4720 -0.3241
   91SAPE   H8X 8953   4.054   5.835   5.134 -2.0221  0.3228  2.3366
   91SAPE   H8Y 8954   4.232   5.788   5.184  1.0296  1.1301  0.8093
   91SAPE   C39 8955   4.187   5.984   5.089 -0.7058 -0.0153 -0.4556
   91SAPE   H9X 8956   4.284   6.027   5.120  1.1815 -2.0772 -3.0360
   91SAPE   H9Y 8957   4.112   6.066   5.092 -0.5271  0.2553 -2.2396
   91SAPE  C310 8958   4.217   5.939   4.949  1.0547 -0.4318  0.4950
   91SAPE  H10X 8959   4.127   5.890   4.905  0.6671  0.4454  0.2688
   91SAPE  H10Y 8960   4.298   5.864   4.956  2.0444  0.6295  0.7988
   91SAPE  C311 8961   4.273   6.053   4.856  0.0996 -0.2803 -0.2396
   91SAPE  H11X 8962   4.380   6.072   4.879  0.6231  0.9429 -3.2178
   91SAPE  H11Y 8963   4.213   6.143   4.885 -2.1460 -1.9304  0.5182
   91SAPE  C312 8964   4.252   6.018   4.710 -0.0107  0.1987  0.2562
   91SAPE  H12X 8965   4.145   6.005   4.682  0.6464 -1.0644 -1.9624
   91SAPE  H12Y 8966   4.300   5.918   4.704  1.3015  0.7460  1.2069
   91SAPE  C313 8967   4.326   6.107   4.607  0.2880 -0.2260 -0.1480
   91SAPE  H13X 8968   4.433   6.115   4.635  0.1176 -0.5563  0.6086
   91SAPE  H13Y 8969   4.283   6.209   4.597  1.2691  0.0819 -1.5737
   91SAPE  C314 8970   4.330   6.038   4.469 -0.3865  0.3772 -0.0462
   91SAPE  H14X 8971   4.225   6.020   4.438 -0.5957 -1.9459  1.7792
   91SAPE  H14Y 8972   4.372   5.935   4.476 -0.1545  0.3349 -1.6584
   91SAPE  C315 8973   4.429   6.115   4.375  0.2002  0.2232  0.0442
   91SAPE  H15X 8974   4.523   6.138   4.429  0.6965  1.0192 -1.1353
   91SAPE  H15Y 8975   4.381   6.211   4.348 -1.3264  0.2701  2.5147
   91SAPE  C316 8976   4.474   6.033   4.252  0.4347 -0.0162 -0.5096
   91SAPE  H16X 8977   4.387   5.978   4.211  0.8154 -0.1471 -1.1414
   91SAPE  H16Y 8978   4.551   5.963   4.290  1.4835  1.3420 -0.0119
   91SAPE  C317 8979   4.529   6.125   4.138  0.2019  0.4958 -0.4388
   91SAPE  H17X 8980   4.603   6.197   4.177 -1.7543  1.1600  2.3020
   91SAPE  H17Y 8981   4.441   6.181   4.101 -0.7877 -0.6885  0.0557
   91SAPE  C318 8982   4.587   6.038   4.025  0.1471  0.7722 -0.4783
   91SAPE  H18X 8983   4.618   6.103   3.940  0.4480 -0.8695 -1.6683
   91SAPE  H18Y 8984   4.507   5.975   3.980 -0.2389  1.1874 -0.3870
   91SAPE  H18Z 8985   4.668   5.969   4.057 -1.1447 -0.1432  0.9761
   92SAPE     N 8986   4.760   4.254   6.545  0.2153  0.1008 -0.3889
   92SAPE   HN1 8987   4.802   4.346   6.568 -3.4009  1.4760  1.4513
   92SAPE   HN2 8988   4.687   4.234   6.616  0.3155 -0.7579 -0.5204
   92SAPE   HN3 8989   4.831   4.179   6.553 -0.4241 -0.4988 -0.2431
   92SAPE   C12 8990   4.696   4.248   6.415  0.2653 -0.2172  0.1637
   92SAPE  H12A 8991   4.788   4.266   6.355  1.3846 -0.4116  1.7567
   92SAPE  H12B 8992   4.616   4.324   6.418 -1.5807 -1.9748 -1.4517
   92SAPE   C11 8993   4.641   4.114   6.375  0.2994  0.4796 -0.5913
   92SAPE  H11A 8994   4.725   4.042   6.372 -0.6693 -0.7044 -3.3073
   92SAPE  H11B 8995   4.613   4.106   6.267 -1.4554 -1.8472 -0.0305
   92SAPE     P 8996   4.397   4.114   6.488  0.2234 -0.3653  0.2777
   92SAPE   O13 8997   4.318   4.028   6.579 -0.1106  0.5270  0.4427
   92SAPE   O14 8998   4.387   4.257   6.515  0.3523 -0.0873  0.1842
   92SAPE   O12 8999   4.544   4.066   6.469 -0.1393  0.1271 -0.3137
   92SAPE   O11 9000   4.351   4.085   6.342 -0.1447  0.0273  0.5228
   92SAPE    C1 9001   4.340   3.952   6.297  0.2862 -0.3971  0.7251
   92SAPE    HA 9002   4.436   3.897   6.307  0.0320 -0.9549  0.1409
   92SAPE    HB 9003   4.262   3.904   6.360  1.1735 -0.8083  1.5426
   92SAPE    C2 9004   4.283   3.944   6.150 -0.2444 -0.2713  0.4954
   92SAPE    HS 9005   4.370   3.919   6.085 -0.8910 -3.5051  0.7220
   92SAPE   O21 9006   4.216   4.068   6.108 -0.0424 -0.1871  0.2999
   92SAPE   C21 9007   4.217   4.099   5.979  0.4446  0.5568  0.3071
   92SAPE   O22 9008   4.284   4.047   5.893  0.7046  0.1696  0.4012
   92SAPE   C22 9009   4.115   4.221   5.961  0.3477  0.7059 -0.4761
   92SAPE   H2R 9010   4.018   4.211   6.014  0.9207  0.8785  0.6271
   92SAPE   H2S 9011   4.173   4.306   6.002  0.8425  1.0380 -1.7851
   92SAPE    C3 9012   4.181   3.821   6.139 -0.3591  0.3819  0.1261
   92SAPE    HX 9013   4.089   3.853   6.192 -0.2669 -0.3000  0.7183
   92SAPE    HY 9014   4.218   3.730   6.192  1.3288  0.2479 -1.1890
   92SAPE   O31 9015   4.157   3.802   6.001  0.3291  0.2029 -0.5046
   92SAPE   C31 9016   4.250   3.735   5.933 -0.1211 -0.7203 -0.5022
   92SAPE   O32 9017   4.350   3.688   5.984 -0.1246 -0.2893 -0.6806
   92SAPE   C32 9018   4.198   3.719   5.795  0.2691 -0.5901 -0.3556
   92SAPE   H2X 9019   4.149   3.811   5.756  1.4488 -0.3770 -1.4010
   92SAPE   H2Y 9020   4.124   3.636   5.795  0.1890 -0.5167  0.0149
   92SAPE   C23 9021   4.104   4.244   5.805  0.2055  0.0425  0.3384
   92SAPE   H3R 9022   4.066   4.153   5.753 -0.3683  1.2398 -1.4448
   92SAPE   H3S 9023   4.202   4.265   5.757  0.8203  0.1508  1.5951
   92SAPE   C24 9024   4.013   4.367   5.766  0.5528  0.4881  0.3582
   92SAPE   H4R 9025   3.913   4.341   5.807 -0.0050 -0.3307 -1.4170
   92SAPE   H4S 9026   4.012   4.374   5.655  1.3039 -0.6596  0.2654
   92SAPE   C25 9027   4.039   4.505   5.820  0.2891 -0.4156 -0.1644
   92SAPE   H5R 9028   4.021   4.509   5.929  0.7179  0.6383 -0.1211
   92SAPE   C26 9029   4.100   4.601   5.749  0.2504  0.4043  0.2850
   92SAPE   H6R 9030   4.102   4.703   5.792 -2.8231  0.9023 -0.5215
   92SAPE   C27 9031   4.131   4.589   5.601  0.4347 -0.0968 -0.2180
   92SAPE   H7R 9032   4.174   4.489   5.579 -0.6753 -1.8237  4.3267
   92SAPE   H7S 9033   4.208   4.664   5.576 -0.9831  0.9826 -1.5625
   92SAPE   C28 9034   4.013   4.618   5.516  0.2135 -0.3186 -0.9254
   92SAPE   H8R 9035   3.949   4.698   5.557  0.7338 -0.6517  0.6391
   92SAPE   C29 9036   3.994   4.574   5.390 -0.4344 -0.7758  0.5882
   92SAPE   H9R 9037   3.896   4.602   5.348 -1.0805 -2.3266  1.0140
   92SAPE  C210 9038   4.072   4.479   5.305  0.5458 -0.1449 -0.4114
   92SAPE  H10R 9039   4.176   4.458   5.338  0.9260  0.0553 -1.4170
   92SAPE  H10S 9040   4.098   4.533   5.211  3.2612 -1.6638 -0.6454
   92SAPE  C211 9041   4.017   4.342   5.268  0.3830 -0.1895  0.1273
   92SAPE  H11R 9042   4.047   4.260   5.334  0.2552  0.0284  0.4603
   92SAPE  C212 9043   3.932   4.308   5.171  0.1822  0.3500  0.0404
   92SAPE  H12R 9044   3.907   4.201   5.171  1.2229  0.0815 -1.3186
   92SAPE  C213 9045   3.861   4.399   5.075  0.1939  0.5974 -0.3068
   92SAPE  H13R 9046   3.890   4.504   5.095 -1.1101  1.0739 -0.8150
   92SAPE  H13S 9047   3.753   4.390   5.102  0.7371 -0.1413  1.8958
   92SAPE  C214 9048   3.886   4.362   4.935  0.0563 -0.8033 -0.5626
   92SAPE  H14R 9049   3.926   4.261   4.924 -1.6081 -1.4119 -1.3520
   92SAPE  C215 9050   3.844   4.430   4.826  0.1263 -0.6162  0.1306
   92SAPE  H15R 9051   3.870   4.393   4.726  1.6170 -0.6906  0.5187
   92SAPE  C216 9052   3.774   4.565   4.830  0.6177 -0.5755 -0.4528
   92SAPE  H16R 9053   3.834   4.638   4.772  0.8771  1.0768  1.7498
   92SAPE  H16S 9054   3.760   4.608   4.932  0.3121 -0.3628 -0.5803
   92SAPE  C217 9055   3.640   4.569   4.751  0.2474  0.4871  0.7018
   92SAPE  H17R 9056   3.609   4.673   4.726 -0.2590  0.4706  1.2428
   92SAPE  H17S 9057   3.559   4.524   4.812  0.8485 -3.0023 -0.8877
   92SAPE  C218 9058   3.646   4.497   4.611  0.2657 -0.1742 -0.1439
   92SAPE  H18R 9059   3.678   4.391   4.621 -1.6316 -0.9575 -1.7104
   92SAPE  H18S 9060   3.721   4.562   4.561  1.3290  1.0499  2.8173
   92SAPE  C219 9061   3.506   4.496   4.545 -0.3953 -0.0422 -1.2922
   92SAPE  H19R 9062   3.474   4.602   4.550 -1.5919 -0.4639  1.3325
   92SAPE  H19S 9063   3.440   4.432   4.607 -1.1995  1.4971 -0.4850
   92SAPE  C220 9064   3.493   4.447   4.403  0.0379  0.3985  0.0845
   92SAPE  H20R 9065   3.579   4.379   4.386  0.1575  1.1498 -2.9040
   92SAPE  H20S 9066   3.508   4.533   4.335  0.4171  0.6878  0.5199
   92SAPE  H20T 9067   3.396   4.397   4.387  0.6355 -0.7673  0.0164
   92SAPE   C33 9068   4.307   3.681   5.691 -0.3136 -0.9166  0.6809
   92SAPE   H3X 9069   4.364   3.590   5.719  2.0150  0.3748  0.4451
   92SAPE   H3Y 9070   4.387   3.758   5.685 -0.9769 -0.2343  0.3592
   92SAPE   C34 9071   4.242   3.660   5.554 -0.0575  0.0506  0.4557
   92SAPE   H4X 9072   4.203   3.758   5.519  1.2391  0.3142 -0.3315
   92SAPE   H4Y 9073   4.157   3.592   5.577 -1.3252  1.4906  0.2169
   92SAPE   C35 9074   4.358   3.604   5.448  0.2630 -0.5836 -0.7662
   92SAPE   H5X 9075   4.416   3.518   5.487 -0.0556 -0.4749 -0.0448
   92SAPE   H5Y 9076   4.440   3.678   5.449  3.9381 -4.1913  2.3903
   92SAPE   C36 9077   4.291   3.571   5.311 -0.6406  0.2797 -0.2936
   92SAPE   H6X 9078   4.233   3.661   5.279  0.7942  0.6929 -1.8934
   92SAPE   H6Y 9079   4.216   3.490   5.323  2.1550 -2.2687  1.8511
   92SAPE   C37 9080   4.387   3.541   5.194  1.0143  1.1772  0.9474
   92SAPE   H7X 9081   4.442   3.444   5.193 -1.1867 -0.1432 -0.3822
   92SAPE   H7Y 9082   4.463   3.620   5.212 -0.2786  2.3995  1.1363
   92SAPE   C38 9083   4.325   3.545   5.058 -0.1562 -0.2472  0.1593
   92SAPE   H8X 9084   4.297   3.651   5.038 -1.5886 -0.9988 -2.2724
   92SAPE   H8Y 9085   4.237   3.478   5.062  0.8054 -1.5102  0.9237
   92SAPE   C39 9086   4.404   3.501   4.938 -0.1389 -0.1712  0.4545
   92SAPE   H9X 9087   4.447   3.402   4.964 -2.3807 -1.4502 -0.4294
   92SAPE   H9Y 9088   4.488   3.573   4.929 -0.7561  0.9063  2.6097
   92SAPE  C310 9089   4.335   3.505   4.801  0.1015 -0.4735 -0.2225
   92SAPE  H10X 9090   4.233   3.469   4.826  0.9150 -1.7355  1.4339
   92SAPE  H10Y 9091   4.399   3.434   4.744  1.7421 -0.2343  1.2336
   92SAPE  C311 9092   4.342   3.649   4.742 -0.8998 -0.0965 -0.0787
   92SAPE  H11X 9093   4.447   3.682   4.731 -1.5054  1.4135 -1.7805
   92SAPE  H11Y 9094   4.287   3.716   4.812 -1.3880  0.0680 -0.6144
   92SAPE  C312 9095   4.291   3.668   4.604 -0.0712  0.0527 -0.1400
   92SAPE  H12X 9096   4.304   3.770   4.562 -0.6705  0.3132  0.2997
   92SAPE  H12Y 9097   4.183   3.641   4.594 -0.0735  0.4299 -1.2530
   92SAPE  C313 9098   4.366   3.580   4.496 -0.2780 -0.5463  0.2450
   92SAPE  H13X 9099   4.328   3.601   4.394 -2.0998 -0.9402  0.8075
   92SAPE  H13Y 9100   4.354   3.471   4.517 -0.5150 -0.1934  2.0685
   92SAPE  C314 9101   4.517   3.621   4.489  0.7855  0.2740  0.2819
   92SAPE  H14X 9102   4.570   3.598   4.584  0.3724 -0.9408  0.2336
   92SAPE  H14Y 9103   4.524   3.732   4.483  1.6800  0.2828  1.1718
   92SAPE  C315 9104   4.596   3.553   4.371 -0.2378  0.2135  0.2122
   92SAPE  H15X 9105   4.521   3.547   4.289 -0.1238  0.1870  0.1094
   92SAPE  H15Y 9106   4.606   3.447   4.405 -2.7204 -0.1177  0.0653
   92SAPE  C316 9107   4.722   3.625   4.317 -0.1594  0.3007  0.4078
   92SAPE  H16X 9108   4.705   3.732   4.293 -0.5166 -0.3571 -2.7770
   92SAPE  H16Y 9109   4.744   3.579   4.218 -2.0235 -0.8737  0.4851
   92SAPE  C317 9110   4.836   3.623   4.414 -0.9716  0.2955 -0.6703
   92SAPE  H17X 9111   4.853   3.520   4.452  3.4757  0.3769 -1.9506
   92SAPE  H17Y 9112   4.805   3.678   4.505  2.0462  1.3764 -0.2118
   92SAPE  C318 9113   4.958   3.695   4.363  0.8390  0.1456 -0.6512
   92SAPE  H18X 9114   4.928   3.794   4.324 -0.1225  0.0377 -0.2094
   92SAPE  H18Y 9115   4.993   3.640   4.273  3.3795  2.6392 -1.3233
   92SAPE  H18Z 9116   5.039   3.704   4.439  0.4484  0.3698 -0.2571
   93SAPE     N 9117   0.543   1.457   6.590 -0.3561 -0.0101  0.4475
   93SAPE   HN1 9118   0.611   1.382   6.615  0.3890  0.8185  0.9975
   93SAPE   HN2 9119   0.445   1.425   6.583  0.2883 -2.1201  0.4041
   93SAPE   HN3 9120   0.572   1.498   6.499 -1.7392 -1.2780 -0.6098
   93SAPE   C12 9121   0.552   1.572   6.681 -0.9898  0.0326 -0.4123
   93SAPE  H12A 9122   0.658   1.604   6.689 -0.8836 -0.6814  1.7459
   93SAPE  H12B 9123   0.519   1.531   6.779 -0.9965  0.0953 -0.3886
   93SAPE   C11 9124   0.465   1.686   6.627 -0.0916 -0.9412 -0.3958
   93SAPE  H11A 9125   0.481   1.766   6.702  1.2989  0.9606 -2.5701
   93SAPE  H11B 9126   0.359   1.653   6.627 -0.6361  0.7301 -1.1227
   93SAPE     P 9127   0.398   1.844   6.433  0.0106 -0.4569  0.2822
   93SAPE   O13 9128   0.335   1.933   6.535 -0.2348 -0.4771  0.0930
   93SAPE   O14 9129   0.468   1.912   6.319  0.2700  0.4778  0.1785
   93SAPE   O12 9130   0.507   1.744   6.503 -0.3621 -0.2531  0.3356
   93SAPE   O11 9131   0.294   1.748   6.373  0.4594  0.0631 -0.6905
   93SAPE    C1 9132   0.326   1.639   6.284 -0.2739 -0.1840 -0.0213
   93SAPE    HA 9133   0.434   1.614   6.289  0.4966  2.9599  2.7066
   93SAPE    HB 9134   0.273   1.546   6.313  2.9915 -2.2860 -0.3178
   93SAPE    C2 9135   0.279   1.668   6.138 -0.3791  0.3950  0.0526
   93SAPE    HS 9136   0.315   1.767   6.102 -0.6676  0.8283  0.9405
   93SAPE   O21 9137   0.134   1.662   6.120  0.4084 -0.1477  0.2018
   93SAPE   C21 9138   0.069   1.779   6.096 -0.7275 -0.3982  1.1964
   93SAPE   O22 9139   0.123   1.886   6.090 -0.6857 -0.2523 -1.0776
   93SAPE   C22 9140  -0.083   1.759   6.071  0.4422  1.2257 -0.2750
   93SAPE   H2R 9141  -0.092   1.700   5.978 -0.5986 -0.8408  1.0534
   93SAPE   H2S 9142  -0.124   1.693   6.151 -1.2773  0.7968 -1.4641
   93SAPE    C3 9143   0.337   1.561   6.036 -0.1859  0.1293  0.1267
   93SAPE    HX 9144   0.274   1.471   6.052 -0.7801  0.7459  1.3316
   93SAPE    HY 9145   0.442   1.538   6.065  0.2601 -0.5713 -1.8242
   93SAPE   O31 9146   0.332   1.605   5.896 -0.0889 -0.4711 -0.0592
   93SAPE   C31 9147   0.427   1.688   5.864 -0.1298 -0.1648  0.1365
   93SAPE   O32 9148   0.514   1.731   5.939 -0.0803 -0.6744  0.4248
   93SAPE   C32 9149   0.412   1.722   5.713  0.2775  0.1015  0.4788
   93SAPE   H2X 9150   0.307   1.750   5.693  0.6824  1.8157  0.6011
   93SAPE   H2Y 9151   0.429   1.626   5.660 -2.7319 -1.5178  2.1932
   93SAPE   C23 9152  -0.161   1.895   6.059  0.5704 -0.3588 -0.6506
   93SAPE   H3R 9153  -0.126   1.953   6.147 -1.5319 -0.4438  0.3043
   93SAPE   H3S 9154  -0.268   1.872   6.075  0.6826  0.0351  0.8179
   93SAPE   C24 9155  -0.147   1.961   5.920 -0.0685  0.3388 -0.4054
   93SAPE   H4R 9156  -0.041   1.987   5.898  1.1897 -1.2158  3.0518
   93SAPE   H4S 9157  -0.197   2.060   5.929 -0.0459  0.5007 -1.8660
   93SAPE   C25 9158  -0.203   1.881   5.807 -0.7448  0.2767  0.1958
   93SAPE   H5R 9159  -0.312   1.886   5.799 -0.6727  3.7747 -0.5428
   93SAPE   C26 9160  -0.135   1.817   5.709  0.4073 -0.5185  0.6964
   93SAPE   H6R 9161  -0.191   1.755   5.639  1.8191  1.5504 -2.5132
   93SAPE   C27 9162   0.012   1.824   5.679 -0.2502 -0.3631 -0.7486
   93SAPE   H7R 9163   0.068   1.887   5.751  0.7696 -1.7615 -0.2685
   93SAPE   H7S 9164   0.043   1.876   5.586  1.7625  2.1989  1.2118
   93SAPE   C28 9165   0.070   1.689   5.697  0.3689  0.1542 -0.2115
   93SAPE   H8R 9166   0.100   1.670   5.801 -1.1355 -0.3024  0.1720
   93SAPE   C29 9167   0.095   1.597   5.601 -0.3405 -0.1092 -0.5088
   93SAPE   H9R 9168   0.140   1.503   5.634  1.6555 -0.1658 -3.0885
   93SAPE  C210 9169   0.084   1.618   5.448  0.0361 -0.6375 -0.4478
   93SAPE  H10R 9170   0.166   1.560   5.402  0.5983 -1.0511  1.0127
   93SAPE  H10S 9171   0.113   1.723   5.428 -1.1091 -0.3411 -0.6057
   93SAPE  C211 9172  -0.043   1.582   5.379 -1.0632  0.1671  0.4664
   93SAPE  H11R 9173  -0.125   1.542   5.440 -1.6364  1.4750  0.5839
   93SAPE  C212 9174  -0.076   1.613   5.255 -0.4540  0.2795  0.7244
   93SAPE  H12R 9175  -0.179   1.596   5.220 -1.1150  0.4766  2.4493
   93SAPE  C213 9176   0.023   1.659   5.149  0.4210 -0.2374  0.2162
   93SAPE  H13R 9177   0.123   1.615   5.167  0.5602  0.4912  1.3060
   93SAPE  H13S 9178   0.034   1.769   5.162 -1.1185  0.0665 -0.8096
   93SAPE  C214 9179  -0.018   1.631   5.007 -0.2081  0.5760  0.3185
   93SAPE  H14R 9180  -0.020   1.521   4.994  0.9776  0.6226 -0.3483
   93SAPE  C215 9181  -0.056   1.712   4.908 -0.8201  0.5301 -0.2787
   93SAPE  H15R 9182  -0.045   1.670   4.807  0.9881 -1.9563  0.8563
   93SAPE  C216 9183  -0.075   1.854   4.900 -0.1493  0.0358  0.6185
   93SAPE  H16R 9184   0.013   1.917   4.877 -0.8829  1.2535  1.0482
   93SAPE  H16S 9185  -0.112   1.894   4.997 -0.2284 -0.0522  0.6254
   93SAPE  C217 9186  -0.182   1.899   4.797  0.5100  0.4734  0.1202
   93SAPE  H17R 9187  -0.261   1.821   4.798 -0.2113  1.1934  1.1657
   93SAPE  H17S 9188  -0.140   1.900   4.694  0.7855 -3.0498  0.1029
   93SAPE  C218 9189  -0.251   2.039   4.832  0.0803  0.4290 -0.0453
   93SAPE  H18R 9190  -0.178   2.121   4.817 -0.1856  0.3578 -1.8745
   93SAPE  H18S 9191  -0.280   2.029   4.939 -0.4368  1.1790 -0.1044
   93SAPE  C219 9192  -0.372   2.061   4.749 -0.3277  0.3120  0.6711
   93SAPE  H19R 9193  -0.422   2.151   4.790 -1.6662  0.0768 -0.3527
   93SAPE  H19S 9194  -0.445   1.977   4.750 -1.9642  1.5520 -2.0318
   93SAPE  C220 9195  -0.338   2.081   4.599 -0.0447 -0.3516 -0.5709
   93SAPE  H20R 9196  -0.434   2.101   4.546 -0.6877 -3.5533 -0.7940
   93SAPE  H20S 9197  -0.292   1.991   4.553  0.4741  1.0239 -2.9106
   93SAPE  H20T 9198  -0.273   2.172   4.596 -1.0009  0.4678  1.3967
   93SAPE   C33 9199   0.512   1.829   5.672  0.6957  0.4896  0.5326
   93SAPE   H3X 9200   0.618   1.796   5.669  1.0659  1.5485  1.3653
   93SAPE   H3Y 9201   0.500   1.911   5.745 -1.6553  1.5162 -0.8886
   93SAPE   C34 9202   0.475   1.883   5.529  0.8851  0.0641  0.0901
   93SAPE   H4X 9203   0.556   1.951   5.495 -0.5082  0.4562 -2.6464
   93SAPE   H4Y 9204   0.379   1.933   5.552  0.6822 -0.1878 -0.2066
   93SAPE   C35 9205   0.447   1.780   5.420 -0.3251 -0.0959  0.1014
   93SAPE   H5X 9206   0.383   1.829   5.344  0.1893 -0.7839 -0.7932
   93SAPE   H5Y 9207   0.384   1.699   5.462  2.6223 -0.6594  3.9998
   93SAPE   C36 9208   0.577   1.723   5.353 -0.4142  0.4298  0.1565
   93SAPE   H6X 9209   0.650   1.710   5.436 -0.1302  1.5942  0.1051
   93SAPE   H6Y 9210   0.621   1.780   5.269 -1.7335  1.1628 -0.0644
   93SAPE   C37 9211   0.550   1.590   5.288 -0.2986 -0.4198  0.1989
   93SAPE   H7X 9212   0.472   1.547   5.355  1.8070 -1.3602  2.1870
   93SAPE   H7Y 9213   0.633   1.517   5.277  0.2227  0.0524  0.9326
   93SAPE   C38 9214   0.480   1.615   5.154  0.1453 -0.1625 -0.1884
   93SAPE   H8X 9215   0.552   1.653   5.079 -0.3133 -1.3773 -1.2720
   93SAPE   H8Y 9216   0.398   1.690   5.156  1.7902  1.7540 -0.3422
   93SAPE   C39 9217   0.428   1.483   5.097 -0.1555 -0.2888 -0.0436
   93SAPE   H9X 9218   0.348   1.428   5.150  0.3606 -1.4245 -0.3882
   93SAPE   H9Y 9219   0.515   1.413   5.094 -0.7382 -1.0034 -0.5092
   93SAPE  C310 9220   0.369   1.502   4.952  0.0888  0.3183  0.1338
   93SAPE  H10X 9221   0.429   1.574   4.893  1.0252 -1.3402 -1.0228
   93SAPE  H10Y 9222   0.272   1.551   4.974 -0.0966  1.0266 -2.0337
   93SAPE  C311 9223   0.363   1.367   4.879  0.4884 -0.3681  0.2751
   93SAPE  H11X 9224   0.322   1.286   4.943  0.3363 -0.9602 -0.5532
   93SAPE  H11Y 9225   0.469   1.343   4.854  0.2392 -0.4274 -0.7866
   93SAPE  C312 9226   0.280   1.362   4.740  0.0997 -0.2370 -0.1487
   93SAPE  H12X 9227   0.301   1.259   4.704  0.9766 -0.1157 -0.0125
   93SAPE  H12Y 9228   0.333   1.433   4.673 -0.6070  0.2043 -0.2438
   93SAPE  C313 9229   0.132   1.404   4.746 -0.0705 -0.0304  0.2626
   93SAPE  H13X 9230   0.125   1.509   4.782  0.3866  0.3818 -0.8314
   93SAPE  H13Y 9231   0.078   1.331   4.810 -0.6359  0.1241 -0.0327
   93SAPE  C314 9232   0.061   1.388   4.608 -0.7892 -0.9905 -0.3649
   93SAPE  H14X 9233  -0.047   1.367   4.627 -0.9266  0.1314  0.1590
   93SAPE  H14Y 9234   0.108   1.303   4.554 -3.7505 -5.2200  3.0096
   93SAPE  C315 9235   0.053   1.521   4.527 -0.3097  0.0767 -0.1788
   93SAPE  H15X 9236   0.154   1.538   4.485 -1.2411  0.3359 -2.4476
   93SAPE  H15Y 9237   0.049   1.605   4.600 -2.5252  1.0883 -1.3590
   93SAPE  C316 9238  -0.058   1.539   4.417 -0.7509  0.5939 -0.0756
   93SAPE  H16X 9239  -0.154   1.564   4.467 -2.1207 -0.1685 -2.1603
   93SAPE  H16Y 9240  -0.065   1.437   4.373  0.1955 -0.3665  1.8905
   93SAPE  C317 9241  -0.034   1.643   4.304 -0.1385  0.4183 -0.6385
   93SAPE  H17X 9242   0.065   1.622   4.257 -0.7574 -2.0930 -0.9671
   93SAPE  H17Y 9243  -0.028   1.748   4.340  0.6389  0.4067 -0.7188
   93SAPE  C318 9244  -0.139   1.637   4.195 -0.2078  0.1844 -0.6933
   93SAPE  H18X 9245  -0.133   1.721   4.123 -2.5114  0.9836 -0.0444
   93SAPE  H18Y 9246  -0.241   1.623   4.238 -0.2383 -0.8945 -1.0811
   93SAPE  H18Z 9247  -0.112   1.546   4.138  1.6863 -0.7390  1.5189
   94SAPE     N 9248   0.365   5.664   6.648 -0.5552  0.0368  0.1209
   94SAPE   HN1 9249   0.372   5.673   6.545  0.9471 -0.2604  0.1692
   94SAPE   HN2 9250   0.312   5.578   6.672  0.2566  0.1049  2.4562
   94SAPE   HN3 9251   0.314   5.743   6.692  0.7501  2.0539 -1.7939
   94SAPE   C12 9252   0.501   5.654   6.704 -0.6485  0.0717  0.4459
   94SAPE  H12A 9253   0.548   5.755   6.704  1.0974 -0.6916  1.2884
   94SAPE  H12B 9254   0.562   5.586   6.641  0.5394  2.7283 -1.4271
   94SAPE   C11 9255   0.498   5.597   6.845 -0.2922  0.1620 -0.2775
   94SAPE  H11A 9256   0.433   5.662   6.907 -0.2745 -1.9575  2.1476
   94SAPE  H11B 9257   0.603   5.597   6.881 -0.9310 -1.7664  1.7883
   94SAPE     P 9258   0.542   5.343   6.855 -0.5904 -0.2082 -0.1220
   94SAPE   O13 9259   0.649   5.381   6.759 -0.2413 -0.1865 -0.8294
   94SAPE   O14 9260   0.588   5.311   6.989  0.5796  0.4081 -0.1720
   94SAPE   O12 9261   0.448   5.466   6.862  0.3368 -0.2346 -0.5636
   94SAPE   O11 9262   0.459   5.231   6.804 -0.1549 -0.0939 -0.0938
   94SAPE    C1 9263   0.329   5.233   6.747  0.2730  0.2492  0.5242
   94SAPE    HA 9264   0.287   5.131   6.761 -0.9272  0.9214  2.1504
   94SAPE    HB 9265   0.256   5.304   6.791  0.0560 -0.2984  1.0725
   94SAPE    C2 9266   0.340   5.258   6.592 -0.3674 -0.2354 -0.0598
   94SAPE    HS 9267   0.400   5.347   6.562 -1.7394  0.6288 -0.3315
   94SAPE   O21 9268   0.212   5.268   6.520 -0.6498 -0.7288 -0.1444
   94SAPE   C21 9269   0.141   5.379   6.548  0.0595  0.0627  0.4767
   94SAPE   O22 9270   0.175   5.457   6.634 -0.1823 -0.5314  0.7362
   94SAPE   C22 9271   0.018   5.391   6.456  0.5606 -0.4627  0.9842
   94SAPE   H2R 9272   0.042   5.468   6.379 -1.0402 -1.0833 -0.2035
   94SAPE   H2S 9273   0.006   5.294   6.404  0.5578  0.2648 -0.4395
   94SAPE    C3 9274   0.425   5.138   6.533 -0.3067 -0.7063  0.5999
   94SAPE    HX 9275   0.384   5.041   6.568  0.0198 -0.8964  0.4642
   94SAPE    HY 9276   0.525   5.156   6.579  0.3512  1.4112 -1.4962
   94SAPE   O31 9277   0.447   5.143   6.397  0.4051 -0.3011  0.2547
   94SAPE   C31 9278   0.374   5.067   6.315  0.5333  0.2109 -0.3815
   94SAPE   O32 9279   0.274   5.008   6.348  0.4367 -0.2841  0.2428
   94SAPE   C32 9280   0.436   5.081   6.175 -0.0101  0.4538  0.5072
   94SAPE   H2X 9281   0.520   5.009   6.169 -1.0028 -0.7269  0.0869
   94SAPE   H2Y 9282   0.477   5.183   6.160  0.7014  0.0379 -0.4921
   94SAPE   C23 9283  -0.113   5.432   6.519  0.0414  0.0363 -0.5518
   94SAPE   H3R 9284  -0.098   5.533   6.562  0.1676  0.2264 -1.0303
   94SAPE   H3S 9285  -0.141   5.367   6.605  2.0453 -0.3353 -0.1366
   94SAPE   C24 9286  -0.241   5.456   6.429  0.2696  0.1661  0.2284
   94SAPE   H4R 9287  -0.221   5.542   6.362  1.6986 -0.2034  0.1522
   94SAPE   H4S 9288  -0.329   5.481   6.493 -0.6428 -0.5661 -0.7164
   94SAPE   C25 9289  -0.274   5.329   6.361 -0.8162 -0.3434 -0.0790
   94SAPE   H5R 9290  -0.283   5.241   6.425 -2.7466 -0.4372 -0.4078
   94SAPE   C26 9291  -0.326   5.306   6.239 -0.1116  0.3770  0.5172
   94SAPE   H6R 9292  -0.344   5.203   6.207  2.1191 -0.1699  0.8628
   94SAPE   C27 9293  -0.345   5.419   6.140 -0.1526 -0.2477  0.1103
   94SAPE   H7R 9294  -0.331   5.521   6.184  1.4946 -0.1682 -0.5176
   94SAPE   H7S 9295  -0.453   5.439   6.126 -0.4067  0.5669  2.5933
   94SAPE   C28 9296  -0.267   5.397   6.013 -0.3030  0.0495  0.2552
   94SAPE   H8R 9297  -0.158   5.389   6.023 -0.1948 -0.6869 -1.2965
   94SAPE   C29 9298  -0.315   5.392   5.888  0.3823  0.4525 -0.0795
   94SAPE   H9R 9299  -0.247   5.379   5.803  0.8061  0.2572  0.2807
   94SAPE  C210 9300  -0.457   5.377   5.851  0.3391 -0.2762  0.3497
   94SAPE  H10R 9301  -0.532   5.382   5.933  1.3220 -0.6873  1.2821
   94SAPE  H10S 9302  -0.469   5.279   5.799  0.0133  0.6373 -1.3825
   94SAPE  C211 9303  -0.478   5.498   5.758  0.2620  0.3077 -0.9841
   94SAPE  H11R 9304  -0.433   5.594   5.787  1.2939 -0.0981 -1.2130
   94SAPE  C212 9305  -0.541   5.502   5.646 -0.5997  0.1037 -0.0860
   94SAPE  H12R 9306  -0.526   5.592   5.585  0.2777  0.3249  0.4412
   94SAPE  C213 9307  -0.621   5.397   5.566 -0.5301  1.0691  0.2551
   94SAPE  H13R 9308  -0.724   5.430   5.539 -0.4410  0.3314 -1.0910
   94SAPE  H13S 9309  -0.639   5.316   5.639  0.3265 -0.0516 -0.7388
   94SAPE  C214 9310  -0.541   5.327   5.457  0.5844 -0.5359  0.2806
   94SAPE  H14R 9311  -0.433   5.329   5.477  0.5492  0.9334  0.4654
   94SAPE  C215 9312  -0.585   5.280   5.337  0.5943 -0.1366  0.0594
   94SAPE  H15R 9313  -0.507   5.234   5.275  1.0179  1.9245 -1.0226
   94SAPE  C216 9314  -0.727   5.248   5.302  0.7155  0.1783  0.1468
   94SAPE  H16R 9315  -0.799   5.278   5.380 -0.7669 -1.3039 -0.5814
   94SAPE  H16S 9316  -0.751   5.140   5.289  0.3204  0.4650 -1.8539
   94SAPE  C217 9317  -0.762   5.306   5.163 -0.0255 -0.5915 -0.0510
   94SAPE  H17R 9318  -0.690   5.284   5.081  0.1436  4.1389 -1.4644
   94SAPE  H17S 9319  -0.741   5.413   5.188  1.1845 -0.3411 -1.9346
   94SAPE  C218 9320  -0.905   5.282   5.121 -0.1159  0.1631  0.6228
   94SAPE  H18R 9321  -0.929   5.343   5.031  0.4908 -2.5158 -1.4930
   94SAPE  H18S 9322  -0.969   5.304   5.208  0.3886  3.3433  0.2962
   94SAPE  C219 9323  -0.934   5.141   5.066  0.2734 -0.0895  0.3962
   94SAPE  H19R 9324  -1.033   5.142   5.015  0.0320  0.5761  0.8536
   94SAPE  H19S 9325  -0.937   5.066   5.148  1.4766 -0.3677  0.2055
   94SAPE  C220 9326  -0.831   5.083   4.971  0.0419  0.2097  0.0537
   94SAPE  H20R 9327  -0.866   4.985   4.932  1.5391  0.5219 -2.2707
   94SAPE  H20S 9328  -0.733   5.077   5.022 -0.4652 -0.2985  0.9819
   94SAPE  H20T 9329  -0.820   5.146   4.880 -0.3046  1.5426  0.9081
   94SAPE   C33 9330   0.344   5.059   6.051  0.7797  0.1664  0.7328
   94SAPE   H3X 9331   0.262   5.134   6.054 -0.4915 -1.1568  0.1482
   94SAPE   H3Y 9332   0.299   4.958   6.058 -0.4310  0.8015  3.8736
   94SAPE   C34 9333   0.415   5.090   5.920 -0.6864 -0.0579 -0.1872
   94SAPE   H4X 9334   0.512   5.037   5.933 -0.6140  0.4338  1.4295
   94SAPE   H4Y 9335   0.445   5.196   5.915 -0.8751  0.0512  0.8101
   94SAPE   C35 9336   0.354   5.036   5.791 -0.5531  0.5989  0.0331
   94SAPE   H5X 9337   0.253   5.082   5.782 -0.1904  1.1208 -1.6059
   94SAPE   H5Y 9338   0.342   4.928   5.817  4.0942 -0.1919 -0.2717
   94SAPE   C36 9339   0.455   5.051   5.670  0.4599  0.1388  0.0527
   94SAPE   H6X 9340   0.495   4.949   5.652  0.6113  0.7273 -3.5633
   94SAPE   H6Y 9341   0.534   5.124   5.697 -1.1155  1.8319  0.2757
   94SAPE   C37 9342   0.380   5.102   5.543 -0.0266 -0.2796  0.0204
   94SAPE   H7X 9343   0.317   5.187   5.580 -0.1822 -0.9336  1.3080
   94SAPE   H7Y 9344   0.315   5.014   5.522  0.5728 -1.3758  2.4793
   94SAPE   C38 9345   0.467   5.151   5.430  0.5484 -0.0265 -0.7353
   94SAPE   H8X 9346   0.538   5.072   5.397  4.5240  2.8129  0.2644
   94SAPE   H8Y 9347   0.515   5.249   5.455 -1.2482  0.4339  1.1058
   94SAPE   C39 9348   0.381   5.175   5.309 -0.5881  0.4457  0.1634
   94SAPE   H9X 9349   0.312   5.259   5.333 -0.9632  0.3491 -0.5506
   94SAPE   H9Y 9350   0.335   5.077   5.285  2.0566 -0.3440 -2.2441
   94SAPE  C310 9351   0.468   5.224   5.188  0.2487 -0.4385 -0.0180
   94SAPE  H10X 9352   0.418   5.204   5.090  2.1802 -1.9883 -0.7388
   94SAPE  H10Y 9353   0.568   5.178   5.177  1.3617  1.9975 -0.8252
   94SAPE  C311 9354   0.482   5.377   5.192 -0.4289  0.1648 -0.4429
   94SAPE  H11X 9355   0.522   5.407   5.291 -1.3343 -0.7292  0.2135
   94SAPE  H11Y 9356   0.386   5.430   5.175  0.4436  1.1979 -2.5027
   94SAPE  C312 9357   0.583   5.438   5.090  0.2950  0.7592  0.1728
   94SAPE  H12X 9358   0.689   5.414   5.115  0.0030 -1.1598 -0.2902
   94SAPE  H12Y 9359   0.578   5.549   5.083  1.3467  0.7775 -0.3933
   94SAPE  C313 9360   0.563   5.386   4.943 -0.1246  0.3660  0.4434
   94SAPE  H13X 9361   0.461   5.387   4.899  0.4551 -0.3284 -0.9720
   94SAPE  H13Y 9362   0.602   5.281   4.940 -3.1166 -0.9197  2.0369
   94SAPE  C314 9363   0.645   5.485   4.855 -0.5138 -0.0843  0.2472
   94SAPE  H14X 9364   0.742   5.503   4.906 -0.3024  0.9000 -0.4671
   94SAPE  H14Y 9365   0.589   5.579   4.839 -0.3079 -0.0819 -0.5243
   94SAPE  C315 9366   0.669   5.427   4.711  0.2112  1.0669  0.0032
   94SAPE  H15X 9367   0.676   5.512   4.640  0.4275  2.1798  1.3093
   94SAPE  H15Y 9368   0.589   5.359   4.673  0.6955  0.9616 -0.8490
   94SAPE  C316 9369   0.802   5.345   4.699  0.1586 -0.3920 -0.2113
   94SAPE  H16X 9370   0.782   5.243   4.740 -1.1836 -0.0559  0.0310
   94SAPE  H16Y 9371   0.880   5.390   4.765  0.3714 -0.2508 -0.5613
   94SAPE  C317 9372   0.855   5.338   4.555 -0.3267 -0.3528  0.0655
   94SAPE  H17X 9373   0.870   5.444   4.524 -0.5494 -0.5191 -0.6107
   94SAPE  H17Y 9374   0.775   5.300   4.489 -0.4386  0.2671 -0.1624
   94SAPE  C318 9375   0.988   5.264   4.555  0.3944 -0.2017 -0.4037
   94SAPE  H18X 9376   1.061   5.331   4.605 -0.7739 -0.3782  1.6517
   94SAPE  H18Y 9377   1.031   5.250   4.453  0.2765  0.0508 -0.4893
   94SAPE  H18Z 9378   0.981   5.165   4.606 -1.4240  0.6088  1.0248
   95SAPE     N 9379   2.898   6.261   6.669 -0.8731  0.2251 -0.4232
   95SAPE   HN1 9380   2.957   6.221   6.592  1.6892  0.7045  1.1597
   95SAPE   HN2 9381   2.837   6.340   6.640  0.2576  0.9544 -0.9407
   95SAPE   HN3 9382   2.979   6.291   6.728 -1.3273  0.4648  0.0845
   95SAPE   C12 9383   2.836   6.129   6.716  0.5250 -0.0569  0.5228
   95SAPE  H12A 9384   2.736   6.108   6.672  0.3095  0.2759  0.8470
   95SAPE  H12B 9385   2.818   6.127   6.826  1.8230 -1.8093  0.7488
   95SAPE   C11 9386   2.922   6.006   6.674  0.1490  0.1936  0.4472
   95SAPE  H11A 9387   2.930   6.005   6.563  1.1021 -1.1328  0.5025
   95SAPE  H11B 9388   2.871   5.912   6.704  2.2782 -0.5159  2.1048
   95SAPE     P 9389   3.135   5.880   6.713 -0.0613 -0.1377 -0.2885
   95SAPE   O13 9390   3.282   5.918   6.698  0.2836  0.0238  0.3304
   95SAPE   O14 9391   3.118   5.795   6.833  0.7271 -0.4570  0.0651
   95SAPE   O12 9392   3.049   6.009   6.727 -0.1511  0.3551  0.0561
   95SAPE   O11 9393   3.085   5.805   6.585 -0.6850 -0.2931 -0.0307
   95SAPE    C1 9394   3.192   5.747   6.505  0.4597 -0.6048  0.1969
   95SAPE    HA 9395   3.274   5.703   6.566  1.4121 -0.2046 -0.7632
   95SAPE    HB 9396   3.149   5.660   6.451 -2.7931 -0.5020  2.3159
   95SAPE    C2 9397   3.246   5.845   6.398  0.0818 -0.7878 -0.0241
   95SAPE    HS 9398   3.286   5.929   6.458  0.9344 -1.3949  0.2801
   95SAPE   O21 9399   3.137   5.883   6.320  0.3312 -0.3603 -0.1112
   95SAPE   C21 9400   3.158   5.989   6.242  0.1691 -1.0744  0.4990
   95SAPE   O22 9401   3.254   6.062   6.240  0.6169 -0.0592 -0.0225
   95SAPE   C22 9402   3.033   6.004   6.155  0.1354 -0.9551  0.1420
   95SAPE   H2R 9403   3.077   6.068   6.075  0.0627  1.5830  2.0012
   95SAPE   H2S 9404   3.007   5.902   6.121 -3.8491 -0.2776  0.6663
   95SAPE    C3 9405   3.362   5.785   6.326 -0.2852 -0.0014  0.1851
   95SAPE    HX 9406   3.314   5.710   6.259 -0.5832 -0.7266  1.1803
   95SAPE    HY 9407   3.433   5.737   6.396  4.0700  2.8126 -1.9058
   95SAPE   O31 9408   3.438   5.879   6.244 -0.0224 -0.7293 -0.5784
   95SAPE   C31 9409   3.566   5.856   6.227 -1.0664  0.0101  0.7134
   95SAPE   O32 9410   3.621   5.754   6.273 -0.6220 -0.1222  1.3776
   95SAPE   C32 9411   3.634   5.960   6.137  0.5418  0.0421 -0.3781
   95SAPE   H2X 9412   3.743   5.943   6.147  0.6171 -0.0077 -1.2114
   95SAPE   H2Y 9413   3.626   6.060   6.185  0.7746 -0.7600  1.4203
   95SAPE   C23 9414   2.913   6.070   6.219 -0.0298  0.3876 -0.0691
   95SAPE   H3R 9415   2.954   6.157   6.274  1.5864 -1.3364  1.6363
   95SAPE   H3S 9416   2.874   5.995   6.292  2.4371 -3.9427 -2.7291
   95SAPE   C24 9417   2.809   6.110   6.118  0.3346 -0.0940  0.6993
   95SAPE   H4R 9418   2.714   6.134   6.171  0.1573  0.2426  0.2364
   95SAPE   H4S 9419   2.789   6.024   6.051 -0.6933  1.7192 -1.4872
   95SAPE   C25 9420   2.858   6.237   6.055  0.6035 -0.0318  0.3867
   95SAPE   H5R 9421   2.869   6.323   6.122 -0.1809  1.5828 -1.4588
   95SAPE   C26 9422   2.895   6.276   5.935 -0.0120  0.5087  0.2425
   95SAPE   H6R 9423   2.925   6.380   5.919  0.3575  0.1052 -2.0251
   95SAPE   C27 9424   2.915   6.180   5.819 -0.7803 -0.4261 -0.0641
   95SAPE   H7R 9425   2.930   6.073   5.846  0.2845  0.0921  1.5490
   95SAPE   H7S 9426   3.000   6.218   5.758 -0.7236  0.9887  0.8554
   95SAPE   C28 9427   2.786   6.189   5.744  0.9415 -0.4551 -0.7015
   95SAPE   H8R 9428   2.697   6.196   5.808  2.1629  0.2970  0.9770
   95SAPE   C29 9429   2.764   6.208   5.617 -0.1521 -0.2469 -0.5206
   95SAPE   H9R 9430   2.659   6.190   5.590  0.0098 -2.3542  0.0794
   95SAPE  C210 9431   2.873   6.192   5.515 -1.2603  0.3336  0.7216
   95SAPE  H10R 9432   2.955   6.122   5.542 -0.4110 -0.6498 -3.6717
   95SAPE  H10S 9433   2.932   6.285   5.502  0.9833 -1.1076 -0.0218
   95SAPE  C211 9434   2.814   6.154   5.383 -0.1429  0.2644 -0.8677
   95SAPE  H11R 9435   2.794   6.047   5.374 -1.5453  0.4518 -0.2710
   95SAPE  C212 9436   2.782   6.234   5.279 -0.5928  0.2435 -0.1096
   95SAPE  H12R 9437   2.739   6.204   5.183 -0.6164 -2.5227  0.6870
   95SAPE  C213 9438   2.835   6.379   5.273  0.1823  0.3704  0.1656
   95SAPE  H13R 9439   2.945   6.363   5.268  0.1253 -0.1709  0.5422
   95SAPE  H13S 9440   2.840   6.431   5.372  1.8771  0.1583  0.2233
   95SAPE  C214 9441   2.796   6.468   5.159  0.2112 -0.0122 -0.0594
   95SAPE  H14R 9442   2.694   6.509   5.167  0.1528 -0.4204  1.4632
   95SAPE  C215 9443   2.857   6.492   5.042 -0.5204 -0.6959  0.3127
   95SAPE  H15R 9444   2.809   6.565   4.976 -0.7344 -0.2410  0.9584
   95SAPE  C216 9445   2.988   6.445   4.988  0.0804  0.5515  0.5771
   95SAPE  H16R 9446   3.021   6.345   5.024  1.7408  0.4238 -1.1545
   95SAPE  H16S 9447   3.074   6.509   5.017 -0.0032  0.8228  0.2384
   95SAPE  C217 9448   2.983   6.425   4.834 -0.4654 -0.4784  0.5862
   95SAPE  H17R 9449   3.081   6.397   4.790 -0.4121 -0.5322  0.7384
   95SAPE  H17S 9450   2.962   6.521   4.782  0.7489 -0.2839  0.4214
   95SAPE  C218 9451   2.887   6.319   4.773  0.2012  0.9402 -0.3275
   95SAPE  H18R 9452   2.785   6.338   4.814 -0.1503  1.3335 -1.3431
   95SAPE  H18S 9453   2.915   6.215   4.799 -0.3044  0.0827 -2.9217
   95SAPE  C219 9454   2.880   6.325   4.617 -0.1209 -1.0531  0.9342
   95SAPE  H19R 9455   2.975   6.312   4.561 -0.9686 -2.9084 -0.1688
   95SAPE  H19S 9456   2.836   6.425   4.594  0.3478 -1.0627 -0.0430
   95SAPE  C220 9457   2.785   6.232   4.557  0.2060  0.0014  0.4618
   95SAPE  H20R 9458   2.775   6.260   4.450  2.3924  0.3561  0.2908
   95SAPE  H20S 9459   2.691   6.230   4.616 -0.1516 -0.0403 -0.1055
   95SAPE  H20T 9460   2.828   6.130   4.559  0.9517  0.3193  1.0096
   95SAPE   C33 9461   3.587   5.951   5.990  0.2250 -0.3156  0.1468
   95SAPE   H3X 9462   3.568   5.847   5.957 -1.8426 -0.8500  2.7373
   95SAPE   H3Y 9463   3.672   5.986   5.926  0.6457 -2.1882 -0.3860
   95SAPE   C34 9464   3.461   6.031   5.962  0.3199  0.0861  0.5448
   95SAPE   H4X 9465   3.470   6.134   6.004 -0.4606  0.1742  0.5188
   95SAPE   H4Y 9466   3.368   5.979   5.994 -0.6591 -0.0550 -2.2404
   95SAPE   C35 9467   3.441   6.056   5.809 -0.1034 -0.2094  0.3597
   95SAPE   H5X 9468   3.497   5.980   5.751  2.4008  1.2885  0.6513
   95SAPE   H5Y 9469   3.478   6.155   5.776 -0.3710  0.0704  0.8834
   95SAPE   C36 9470   3.291   6.046   5.757 -0.0586  0.1052  0.6522
   95SAPE   H6X 9471   3.220   6.078   5.835 -0.3007 -1.1611  0.9850
   95SAPE   H6Y 9472   3.262   5.942   5.731 -0.5920  0.0284  1.5404
   95SAPE   C37 9473   3.269   6.138   5.638 -0.3472  0.4841  0.2551
   95SAPE   H7X 9474   3.295   6.242   5.667  1.7289  0.6851 -1.9935
   95SAPE   H7Y 9475   3.162   6.130   5.608  0.1874 -1.4579 -1.3544
   95SAPE   C38 9476   3.349   6.083   5.511 -0.0111  0.5252  0.5342
   95SAPE   H8X 9477   3.335   5.974   5.495 -0.4793  0.7763 -0.9642
   95SAPE   H8Y 9478   3.456   6.089   5.541  0.3001  0.3429 -0.4964
   95SAPE   C39 9479   3.322   6.167   5.392 -0.5173 -0.2990  0.5015
   95SAPE   H9X 9480   3.350   6.274   5.400  1.0571 -0.5078 -1.4525
   95SAPE   H9Y 9481   3.211   6.171   5.384 -0.6284 -0.2906  1.8576
   95SAPE  C310 9482   3.382   6.119   5.259 -0.0291 -0.1276  0.5546
   95SAPE  H10X 9483   3.346   6.020   5.222 -1.6358  0.6177  0.0704
   95SAPE  H10Y 9484   3.491   6.105   5.274  0.2324  0.4570 -0.6913
   95SAPE  C311 9485   3.359   6.218   5.145 -0.1902 -0.0865  0.0530
   95SAPE  H11X 9486   3.384   6.320   5.180 -4.2859  0.2145  2.8809
   95SAPE  H11Y 9487   3.248   6.217   5.130 -0.6096  0.0488  2.6957
   95SAPE  C312 9488   3.437   6.182   5.017  1.0105 -0.5388  0.6312
   95SAPE  H12X 9489   3.444   6.073   4.998  3.8335 -0.0689 -1.8236
   95SAPE  H12Y 9490   3.545   6.207   5.031  1.1627 -0.5824 -0.3873
   95SAPE  C313 9491   3.380   6.253   4.895 -0.1333  0.3096 -0.3568
   95SAPE  H13X 9492   3.269   6.246   4.889 -0.2242 -0.6716  1.6674
   95SAPE  H13Y 9493   3.425   6.205   4.805 -0.5649 -0.1682 -0.3227
   95SAPE  C314 9494   3.424   6.399   4.896 -0.3783  0.2531 -0.5144
   95SAPE  H14X 9495   3.533   6.409   4.914  0.0903 -1.0744 -2.2772
   95SAPE  H14Y 9496   3.363   6.468   4.959  0.2210  0.1729  0.1630
   95SAPE  C315 9497   3.391   6.464   4.759  0.1241  0.2510  0.1178
   95SAPE  H15X 9498   3.329   6.555   4.775 -0.3105  0.1420 -0.9152
   95SAPE  H15Y 9499   3.333   6.393   4.696  2.2442  0.2118 -1.9244
   95SAPE  C316 9500   3.516   6.513   4.682 -0.2325 -0.5459  0.4845
   95SAPE  H16X 9501   3.593   6.435   4.699  0.1820  0.1060  1.8018
   95SAPE  H16Y 9502   3.564   6.602   4.730  0.0954 -0.3861 -0.1343
   95SAPE  C317 9503   3.482   6.545   4.538 -0.5941  0.7484 -0.4469
   95SAPE  H17X 9504   3.418   6.635   4.528  0.5200  1.5320 -0.7576
   95SAPE  H17Y 9505   3.425   6.454   4.510  2.2905 -1.5020  0.4721
   95SAPE  C318 9506   3.604   6.550   4.446  0.2874 -0.4259 -0.0303
   95SAPE  H18X 9507   3.670   6.632   4.485 -1.8569  1.2887  0.1715
   95SAPE  H18Y 9508   3.571   6.571   4.342  2.0731  0.0476 -0.5572
   95SAPE  H18Z 9509   3.666   6.458   4.441  1.5325  0.4222 -4.1376
   96SAPE     N 9510   4.269   5.293   6.589 -0.6525 -0.0417  0.1633
   96SAPE   HN1 9511   4.216   5.295   6.499 -0.6015 -1.3039  0.0915
   96SAPE   HN2 9512   4.207   5.316   6.669  0.8368  0.7858  1.1309
   96SAPE   HN3 9513   4.340   5.369   6.589  0.9800 -1.4892 -0.6492
   96SAPE   C12 9514   4.322   5.151   6.590  0.3768 -0.1363 -0.6934
   96SAPE  H12A 9515   4.236   5.081   6.600  0.3417  0.0998  0.9841
   96SAPE  H12B 9516   4.387   5.143   6.679 -0.6983 -0.3993  0.0933
   96SAPE   C11 9517   4.398   5.117   6.458  0.3330  0.4325 -0.2810
   96SAPE  H11A 9518   4.321   5.123   6.379 -1.8589  0.4066  1.7572
   96SAPE  H11B 9519   4.443   5.015   6.455  0.5280  0.5300 -1.5744
   96SAPE     P 9520   4.647   5.201   6.471  0.6665  0.1219 -0.5265
   96SAPE   O13 9521   4.727   5.319   6.429  0.3286 -0.4800 -0.1370
   96SAPE   O14 9522   4.652   5.147   6.611 -0.3014  0.3491  0.0850
   96SAPE   O12 9523   4.494   5.218   6.432  0.2731  0.1412 -0.2721
   96SAPE   O11 9524   4.690   5.082   6.375 -0.0190  0.0447  0.1752
   96SAPE    C1 9525   4.659   5.097   6.232 -0.0577 -0.7030 -0.2848
   96SAPE    HA 9526   4.566   5.156   6.214  1.8852  3.8926  2.7830
   96SAPE    HB 9527   4.738   5.161   6.187 -0.3373  0.0112  0.2236
   96SAPE    C2 9528   4.675   4.966   6.151 -0.0222  0.5723 -0.5951
   96SAPE    HS 9529   4.621   4.893   6.215  2.1871  0.8809  1.7701
   96SAPE   O21 9530   4.817   4.931   6.148  0.4019 -0.3720 -0.6734
   96SAPE   C21 9531   4.848   4.811   6.122 -0.7748 -0.1485 -0.0103
   96SAPE   O22 9532   4.776   4.726   6.081 -0.2934  0.5471  0.1618
   96SAPE   C22 9533   4.994   4.791   6.155 -0.6795 -0.4503 -0.2936
   96SAPE   H2R 9534   5.019   4.848   6.247  1.5626 -2.0118  0.1501
   96SAPE   H2S 9535   5.024   4.686   6.173  0.9618 -0.3960 -2.3676
   96SAPE    C3 9536   4.611   4.977   6.013 -0.4549 -0.2340 -0.7458
   96SAPE    HX 9537   4.502   4.993   6.023 -0.2863  0.0385  0.9801
   96SAPE    HY 9538   4.624   4.879   5.962 -1.6957 -1.5695  1.3730
   96SAPE   O31 9539   4.674   5.088   5.945  0.0347  0.2269  0.4429
   96SAPE   C31 9540   4.654   5.088   5.814  0.3101  0.0325 -0.0255
   96SAPE   O32 9541   4.581   5.012   5.756  0.0860 -0.1075 -0.0521
   96SAPE   C32 9542   4.731   5.207   5.752  0.1726 -0.5893 -0.1475
   96SAPE   H2X 9543   4.807   5.158   5.689 -0.2789  1.1541 -2.1610
   96SAPE   H2Y 9544   4.765   5.272   5.836 -0.1417  0.3408 -0.7186
   96SAPE   C23 9545   5.087   4.847   6.042  0.1218  0.2203 -0.7149
   96SAPE   H3R 9546   5.192   4.848   6.077  0.0423 -0.4933 -0.4358
   96SAPE   H3S 9547   5.072   4.952   6.011 -0.8493  0.6813  1.1728
   96SAPE   C24 9548   5.089   4.751   5.922 -0.4689  0.5149 -0.6220
   96SAPE   H4R 9549   5.104   4.651   5.969  1.0797  1.5116  1.1657
   96SAPE   H4S 9550   5.186   4.780   5.876 -0.2330 -1.6697 -1.6580
   96SAPE   C25 9551   4.975   4.762   5.825 -0.1625  0.3028  0.7035
   96SAPE   H5R 9552   4.885   4.704   5.849 -1.4948  1.3666 -1.4562
   96SAPE   C26 9553   4.976   4.849   5.720  0.9644  0.0324  0.4203
   96SAPE   H6R 9554   4.892   4.841   5.649  1.7377  0.4998 -0.5672
   96SAPE   C27 9555   5.090   4.935   5.669  0.3303 -0.0161 -0.2188
   96SAPE   H7R 9556   5.156   4.977   5.748  0.4380 -0.7970  0.1181
   96SAPE   H7S 9557   5.035   5.026   5.636 -0.1460  0.3664  1.5070
   96SAPE   C28 9558   5.160   4.874   5.547 -0.4154 -0.1417 -0.4995
   96SAPE   H8R 9559   5.185   4.767   5.558  1.9015  0.4760  0.9256
   96SAPE   C29 9560   5.206   4.928   5.435  0.0148 -0.1416 -0.0463
   96SAPE   H9R 9561   5.243   4.865   5.353  0.5858 -0.5705  0.5368
   96SAPE  C210 9562   5.188   5.080   5.410  0.0579 -0.4143  1.0198
   96SAPE  H10R 9563   5.271   5.129   5.355 -0.3735  0.6130  1.2622
   96SAPE  H10S 9564   5.197   5.134   5.507  0.8927  3.9908 -1.2616
   96SAPE  C211 9565   5.055   5.126   5.351  0.5796  0.4057 -0.7698
   96SAPE  H11R 9566   4.991   5.174   5.427  1.1342 -0.1495  0.0688
   96SAPE  C212 9567   5.000   5.096   5.236  0.8512 -0.2362  0.2340
   96SAPE  H12R 9568   4.907   5.149   5.209  1.4665  0.7819  0.0503
   96SAPE  C213 9569   5.052   5.028   5.117 -0.7673 -0.5730  0.1104
   96SAPE  H13R 9570   5.163   5.033   5.117 -0.6950  0.6789 -3.6321
   96SAPE  H13S 9571   5.033   5.091   5.028  2.2135 -1.6020 -1.3725
   96SAPE  C214 9572   5.029   4.882   5.100  0.4341  0.2814 -0.0482
   96SAPE  H14R 9573   5.004   4.834   5.196 -0.1185 -0.6515 -0.6407
   96SAPE  C215 9574   4.994   4.820   4.988  0.0712  0.1025 -0.0566
   96SAPE  H15R 9575   4.979   4.711   4.985  0.3214 -0.0857  3.0225
   96SAPE  C216 9576   5.013   4.878   4.852  0.2163  0.4015  1.2581
   96SAPE  H16R 9577   5.079   4.967   4.849  0.3044  0.3682 -2.6504
   96SAPE  H16S 9578   4.908   4.898   4.820  0.4450 -1.0005 -0.5304
   96SAPE  C217 9579   5.068   4.785   4.746 -0.1193 -0.5140 -0.2190
   96SAPE  H17R 9580   5.167   4.745   4.776  0.0272  0.1398  0.1873
   96SAPE  H17S 9581   5.089   4.822   4.644  2.1232 -2.5911 -0.6061
   96SAPE  C218 9582   4.970   4.674   4.720 -0.1145 -0.1098  0.2365
   96SAPE  H18R 9583   4.886   4.735   4.679 -0.6432 -1.7126 -1.1752
   96SAPE  H18S 9584   4.945   4.610   4.808  0.0713 -1.0494 -0.3846
   96SAPE  C219 9585   5.014   4.575   4.607  0.3230  0.1873 -0.2449
   96SAPE  H19R 9586   5.114   4.535   4.632 -0.2865 -2.0989 -1.2244
   96SAPE  H19S 9587   5.015   4.620   4.505 -2.4660 -0.0227 -0.4307
   96SAPE  C220 9588   4.920   4.457   4.608 -0.5940 -0.2224  0.6183
   96SAPE  H20R 9589   4.934   4.389   4.695  0.0465  0.1071  0.7773
   96SAPE  H20S 9590   4.947   4.403   4.515  2.2225 -0.7387  1.6325
   96SAPE  H20T 9591   4.815   4.489   4.594 -0.8501 -1.2597  0.0982
   96SAPE   C33 9592   4.628   5.289   5.676 -0.2467 -0.2270 -0.2437
   96SAPE   H3X 9593   4.543   5.324   5.738  0.6533 -0.0089  0.9168
   96SAPE   H3Y 9594   4.601   5.221   5.593  0.5564 -1.8689  0.7847
   96SAPE   C34 9595   4.695   5.417   5.609  1.1127  0.4670 -0.5771
   96SAPE   H4X 9596   4.804   5.394   5.604  1.1987  0.8647 -0.5786
   96SAPE   H4Y 9597   4.676   5.497   5.683  1.2748 -1.1252  1.2633
   96SAPE   C35 9598   4.646   5.449   5.465  0.5752  0.2149  0.0926
   96SAPE   H5X 9599   4.695   5.366   5.410  1.0016 -0.1580  1.0061
   96SAPE   H5Y 9600   4.687   5.543   5.422 -0.0422 -0.0454 -1.1089
   96SAPE   C36 9601   4.487   5.456   5.456  0.0681 -0.0359 -0.1468
   96SAPE   H6X 9602   4.457   5.563   5.457 -1.6575 -0.5077  0.2860
   96SAPE   H6Y 9603   4.454   5.401   5.546  1.3644 -1.4537 -0.4925
   96SAPE   C37 9604   4.437   5.374   5.337 -0.3158  0.1306  0.0473
   96SAPE   H7X 9605   4.327   5.377   5.348 -0.3808 -0.7291 -0.2937
   96SAPE   H7Y 9606   4.475   5.271   5.356  3.1728  0.8472 -2.0347
   96SAPE   C38 9607   4.472   5.434   5.201 -1.0658 -0.5102  0.1213
   96SAPE   H8X 9608   4.580   5.456   5.205 -0.6552 -2.4721  0.4443
   96SAPE   H8Y 9609   4.416   5.530   5.193  0.7591  0.8150  2.3447
   96SAPE   C39 9610   4.432   5.338   5.080  0.4897 -0.2205  0.0537
   96SAPE   H9X 9611   4.323   5.316   5.076  0.4895 -0.3693  0.7979
   96SAPE   H9Y 9612   4.480   5.240   5.098 -1.0582 -1.3293 -1.5351
   96SAPE  C310 9613   4.465   5.396   4.946 -0.5630 -0.1564  0.2590
   96SAPE  H10X 9614   4.406   5.490   4.939  2.1945  1.6612 -0.1916
   96SAPE  H10Y 9615   4.433   5.338   4.858  1.4523  0.4774 -0.9599
   96SAPE  C311 9616   4.620   5.425   4.931 -0.3074 -0.5096 -0.5597
   96SAPE  H11X 9617   4.672   5.330   4.955 -0.7430 -0.7874 -0.6913
   96SAPE  H11Y 9618   4.657   5.497   5.006 -0.6123  1.9214 -2.6098
   96SAPE  C312 9619   4.657   5.477   4.791 -0.2021  0.0287 -0.6676
   96SAPE  H12X 9620   4.752   5.534   4.781 -0.0816  0.0761  0.5535
   96SAPE  H12Y 9621   4.573   5.539   4.755  0.2592  0.6983 -0.6103
   96SAPE  C313 9622   4.667   5.365   4.684  0.5280 -0.0838  0.2256
   96SAPE  H13X 9623   4.568   5.316   4.673  0.3780  0.2935 -0.1413
   96SAPE  H13Y 9624   4.733   5.292   4.736  2.2060 -0.2608 -1.9952
   96SAPE  C314 9625   4.731   5.403   4.551 -1.0597  0.1248 -0.3698
   96SAPE  H14X 9626   4.764   5.312   4.495 -0.2830 -1.0454  1.8668
   96SAPE  H14Y 9627   4.819   5.468   4.568 -2.0491  1.6330 -0.8440
   96SAPE  C315 9628   4.639   5.496   4.460 -0.6980 -0.0424  0.2588
   96SAPE  H15X 9629   4.600   5.573   4.529  0.7859  0.2905  0.7608
   96SAPE  H15Y 9630   4.548   5.444   4.422 -2.2417  2.0918  0.8814
   96SAPE  C316 9631   4.726   5.561   4.345 -0.3839  0.4893 -0.9374
   96SAPE  H16X 9632   4.800   5.620   4.403 -1.4321 -0.3439  1.3679
   96SAPE  H16Y 9633   4.671   5.632   4.281  0.4863  2.1895  0.1257
   96SAPE  C317 9634   4.811   5.463   4.265 -0.3753 -0.1644  0.0990
   96SAPE  H17X 9635   4.749   5.372   4.249  1.1772 -0.7567 -3.8965
   96SAPE  H17Y 9636   4.895   5.428   4.328 -2.1359 -0.0591  2.6315
   96SAPE  C318 9637   4.846   5.516   4.128 -0.1400  0.0323  0.6535
   96SAPE  H18X 9638   4.753   5.543   4.073  0.9561 -0.9838 -1.8975
   96SAPE  H18Y 9639   4.905   5.445   4.065 -1.2808  0.1960 -0.6479
   96SAPE  H18Z 9640   4.901   5.612   4.142 -0.4283  0.2273  0.4573
   97SAPE     N 9641   2.942   4.898   6.471 -0.1956  0.5969 -0.1866
   97SAPE   HN1 9642   2.949   4.898   6.367 -0.4767 -2.1995 -0.2710
   97SAPE   HN2 9643   2.982   4.987   6.507  0.1323  0.0177  0.9007
   97SAPE   HN3 9644   3.006   4.819   6.492 -0.6455  0.0950 -0.6814
   97SAPE   C12 9645   2.807   4.855   6.525  0.8285  0.1310 -0.0039
   97SAPE  H12A 9646   2.802   4.858   6.636 -2.9110  0.7122 -0.0492
   97SAPE  H12B 9647   2.788   4.749   6.495  1.3943 -0.3953  1.3975
   97SAPE   C11 9648   2.691   4.940   6.475  0.5858  0.3668  0.0881
   97SAPE  H11A 9649   2.599   4.889   6.511  0.9059  0.1149  0.5642
   97SAPE  H11B 9650   2.705   4.949   6.365  2.6604  0.6168  0.3214
   97SAPE     P 9651   2.597   5.149   6.616  0.3445  0.2192 -0.0624
   97SAPE   O13 9652   2.536   5.054   6.714  0.1391 -0.0526  0.0138
   97SAPE   O14 9653   2.649   5.278   6.668 -0.6027  0.4414  0.0489
   97SAPE   O12 9654   2.701   5.067   6.535 -0.3278  0.2586 -0.1322
   97SAPE   O11 9655   2.487   5.177   6.507  0.1597 -0.1178  0.6906
   97SAPE    C1 9656   2.426   5.299   6.487  0.7842  0.0846  0.2798
   97SAPE    HA 9657   2.331   5.298   6.545  0.3804 -2.6531 -0.3102
   97SAPE    HB 9658   2.478   5.391   6.523 -3.1837  2.3958  0.6313
   97SAPE    C2 9659   2.398   5.333   6.335 -1.1414 -0.8608 -0.1911
   97SAPE    HS 9660   2.349   5.432   6.337 -0.3758 -0.4805  0.9877
   97SAPE   O21 9661   2.317   5.231   6.273 -0.0511  0.0095 -0.3611
   97SAPE   C21 9662   2.191   5.259   6.261  0.9135 -0.8132  0.4326
   97SAPE   O22 9663   2.143   5.361   6.311 -0.0913  0.1682  0.1631
   97SAPE   C22 9664   2.108   5.159   6.173  0.1175  0.2415 -0.6396
   97SAPE   H2R 9665   2.105   5.221   6.081  1.4438  1.0034 -0.2007
   97SAPE   H2S 9666   2.168   5.067   6.154  0.0001 -0.2789  1.2505
   97SAPE    C3 9667   2.526   5.347   6.245  0.3582  0.0692 -0.2523
   97SAPE    HX 9668   2.580   5.249   6.243  2.0161  0.9065  1.1725
   97SAPE    HY 9669   2.606   5.411   6.288  0.8907 -0.7972  0.0907
   97SAPE   O31 9670   2.494   5.387   6.109  0.0024  0.0947 -0.0017
   97SAPE   C31 9671   2.485   5.521   6.097  0.2348 -0.1654  0.2295
   97SAPE   O32 9672   2.506   5.605   6.182 -0.2394  0.3860  0.0525
   97SAPE   C32 9673   2.450   5.558   5.956  0.0846  0.2418  0.6354
   97SAPE   H2X 9674   2.523   5.637   5.927  1.7718 -1.9551 -1.5858
   97SAPE   H2Y 9675   2.348   5.600   5.962 -0.4050 -1.1073  2.0464
   97SAPE   C23 9676   1.966   5.147   6.227 -0.3519 -0.1173 -0.2675
   97SAPE   H3R 9677   1.925   5.243   6.267 -2.3271 -0.6827 -0.8351
   97SAPE   H3S 9678   1.972   5.086   6.320  1.1842  1.2570  0.6103
   97SAPE   C24 9679   1.875   5.077   6.125  0.5500  0.1878  0.5106
   97SAPE   H4R 9680   1.905   4.974   6.095  0.2254  0.0507  0.6535
   97SAPE   H4S 9681   1.886   5.143   6.036 -0.6832 -0.9000 -0.4913
   97SAPE   C25 9682   1.731   5.084   6.172 -0.2318  0.4561  0.3092
   97SAPE   H5R 9683   1.686   4.988   6.200 -0.9277  0.9562  0.9186
   97SAPE   C26 9684   1.648   5.192   6.180  0.5169 -0.1631  0.1753
   97SAPE   H6R 9685   1.547   5.169   6.218  0.6441  0.7720  1.1050
   97SAPE   C27 9686   1.678   5.331   6.128 -0.7822 -0.9282  0.0563
   97SAPE   H7R 9687   1.632   5.356   6.030 -0.8151 -0.1012  0.2822
   97SAPE   H7S 9688   1.786   5.337   6.106 -0.9459 -0.7340 -0.7173
   97SAPE   C28 9689   1.651   5.427   6.244 -0.7566 -0.3872  0.6548
   97SAPE   H8R 9690   1.708   5.401   6.335 -0.7022 -1.1647  0.4059
   97SAPE   C29 9691   1.563   5.529   6.245  0.8937 -0.0619 -0.6083
   97SAPE   H9R 9692   1.560   5.588   6.338  0.7879  0.2080 -0.7849
   97SAPE  C210 9693   1.472   5.590   6.138 -0.3951 -0.0794 -0.1651
   97SAPE  H10R 9694   1.468   5.695   6.174 -1.0601  0.2580 -1.1851
   97SAPE  H10S 9695   1.374   5.541   6.151 -0.3967 -0.0790 -0.1757
   97SAPE  C211 9696   1.524   5.593   5.994 -0.4933 -0.5098 -0.8125
   97SAPE  H11R 9697   1.609   5.657   5.967 -1.5185  1.0424 -0.5169
   97SAPE  C212 9698   1.473   5.522   5.895 -0.2399 -0.0574 -0.3397
   97SAPE  H12R 9699   1.521   5.524   5.796 -3.5125 -0.5762 -2.1117
   97SAPE  C213 9700   1.352   5.428   5.906  0.2596 -0.5702 -0.5309
   97SAPE  H13R 9701   1.264   5.477   5.953  1.0996  0.8380 -0.3510
   97SAPE  H13S 9702   1.372   5.332   5.957  0.4923 -0.4279 -0.3505
   97SAPE  C214 9703   1.300   5.388   5.770 -0.1437 -0.4516  0.0352
   97SAPE  H14R 9704   1.215   5.445   5.729 -0.6633 -1.5127 -0.4054
   97SAPE  C215 9705   1.354   5.288   5.692 -0.3788  1.1011 -0.0102
   97SAPE  H15R 9706   1.299   5.268   5.598  0.1076  1.1349 -0.3061
   97SAPE  C216 9707   1.462   5.191   5.726 -0.3436  0.3924 -0.2118
   97SAPE  H16R 9708   1.527   5.250   5.794  0.2645 -1.5219  0.9422
   97SAPE  H16S 9709   1.527   5.159   5.641  1.5507 -0.3369  1.4198
   97SAPE  C217 9710   1.392   5.072   5.797 -0.7463 -0.2379 -0.5932
   97SAPE  H17R 9711   1.337   5.021   5.715 -1.7599  0.8303 -0.5946
   97SAPE  H17S 9712   1.323   5.107   5.877 -1.3795 -0.8728 -0.8428
   97SAPE  C218 9713   1.502   4.990   5.860  0.5310 -0.2776  0.0155
   97SAPE  H18R 9714   1.534   5.059   5.941 -0.8526 -0.4728  0.7635
   97SAPE  H18S 9715   1.594   4.978   5.800  0.2101 -2.6357 -0.0942
   97SAPE  C219 9716   1.472   4.848   5.918 -0.6271 -0.2509 -0.5745
   97SAPE  H19R 9717   1.404   4.855   6.005  0.1702  1.6678 -0.0649
   97SAPE  H19S 9718   1.574   4.818   5.953 -0.1452  0.9731 -0.8883
   97SAPE  C220 9719   1.424   4.758   5.813  0.3359  0.2462 -1.0045
   97SAPE  H20R 9720   1.468   4.788   5.715 -1.2293 -0.1297 -1.8581
   97SAPE  H20S 9721   1.316   4.776   5.796  0.2227 -0.9681 -1.6155
   97SAPE  H20T 9722   1.443   4.652   5.839 -2.5607 -0.2451 -0.5438
   97SAPE   C33 9723   2.459   5.440   5.857  0.0722  0.2450  0.1160
   97SAPE   H3X 9724   2.389   5.361   5.891 -0.9552  0.6332 -1.0205
   97SAPE   H3Y 9725   2.560   5.394   5.853  1.5162  3.1352  0.7396
   97SAPE   C34 9726   2.425   5.490   5.716  0.2697  0.2148 -0.4334
   97SAPE   H4X 9727   2.515   5.552   5.692  0.1584  0.9334  0.8737
   97SAPE   H4Y 9728   2.325   5.538   5.712 -1.9749 -3.9992 -0.1910
   97SAPE   C35 9729   2.430   5.390   5.596 -0.2500  0.3539 -0.3775
   97SAPE   H5X 9730   2.364   5.305   5.624  0.0852  0.0853 -0.3964
   97SAPE   H5Y 9731   2.535   5.358   5.581  0.3576  1.9912  0.1059
   97SAPE   C36 9732   2.382   5.441   5.465 -0.1462 -1.3099 -0.2327
   97SAPE   H6X 9733   2.449   5.526   5.439  0.3852 -1.4545  0.6016
   97SAPE   H6Y 9734   2.279   5.481   5.473 -0.3119 -1.3951 -1.6344
   97SAPE   C37 9735   2.384   5.337   5.356  0.3955  0.4586  0.2554
   97SAPE   H7X 9736   2.317   5.251   5.376 -0.5884  0.7021 -1.7537
   97SAPE   H7Y 9737   2.488   5.304   5.333  0.2547  1.4611 -2.1093
   97SAPE   C38 9738   2.333   5.390   5.227  0.0086 -0.2624  0.0159
   97SAPE   H8X 9739   2.344   5.313   5.148  1.5962  1.2786 -1.3364
   97SAPE   H8Y 9740   2.390   5.478   5.192 -0.9132  0.8155  1.1280
   97SAPE   C39 9741   2.186   5.435   5.234 -0.0878  0.5502 -0.0823
   97SAPE   H9X 9742   2.188   5.532   5.289  0.2904  2.1046 -2.6666
   97SAPE   H9Y 9743   2.111   5.371   5.285 -0.1692  0.1545 -0.7003
   97SAPE  C310 9744   2.133   5.469   5.090  0.3106  0.8833 -0.7756
   97SAPE  H10X 9745   2.126   5.381   5.023  1.0872  0.3697 -0.2058
   97SAPE  H10Y 9746   2.201   5.530   5.026  2.3924 -0.3198  0.1762
   97SAPE  C311 9747   1.994   5.538   5.096  0.1230  0.2339  0.1136
   97SAPE  H11X 9748   1.923   5.477   5.156  1.2857 -2.9108 -1.4622
   97SAPE  H11Y 9749   1.956   5.536   4.991  1.1901 -2.9283 -0.3051
   97SAPE  C312 9750   1.998   5.683   5.156 -0.1083  0.1261  0.2097
   97SAPE  H12X 9751   2.037   5.749   5.076 -1.9620  1.5044  0.3559
   97SAPE  H12Y 9752   2.056   5.701   5.249  0.0669  0.5876  0.0124
   97SAPE  C313 9753   1.856   5.724   5.185 -0.2620  0.6167  0.8182
   97SAPE  H13X 9754   1.817   5.655   5.263 -0.0545 -1.8276 -1.1341
   97SAPE  H13Y 9755   1.790   5.698   5.100 -1.5725  0.4224  1.8591
   97SAPE  C314 9756   1.826   5.868   5.222  0.3719 -0.8811 -0.4635
   97SAPE  H14X 9757   1.927   5.909   5.243 -0.0106 -0.3520  0.3991
   97SAPE  H14Y 9758   1.759   5.883   5.310 -1.3833 -2.2662 -1.4919
   97SAPE  C315 9759   1.771   5.940   5.103  0.4703  0.3502  0.1112
   97SAPE  H15X 9760   1.662   5.920   5.100  0.6378 -0.8291  1.0308
   97SAPE  H15Y 9761   1.811   5.891   5.011  0.7525  0.1160  0.3580
   97SAPE  C316 9762   1.796   6.089   5.085  0.0163  0.3331 -0.2591
   97SAPE  H16X 9763   1.729   6.145   5.153  0.9949  1.3351 -0.0865
   97SAPE  H16Y 9764   1.756   6.119   4.986 -0.9609 -1.3488 -0.4007
   97SAPE  C317 9765   1.948   6.131   5.095  0.0472 -0.7532  0.0662
   97SAPE  H17X 9766   1.977   6.132   5.202  0.2015  0.3430  0.0262
   97SAPE  H17Y 9767   1.965   6.239   5.073 -2.0045  0.4207  3.4752
   97SAPE  C318 9768   2.049   6.056   5.011 -0.0208  0.0341 -0.8879
   97SAPE  H18X 9769   2.055   5.953   5.052 -2.7026 -0.2181 -0.9375
   97SAPE  H18Y 9770   2.152   6.097   5.019  0.4323 -1.4098  2.0215
   97SAPE  H18Z 9771   2.024   6.044   4.903 -1.2681 -0.9991 -0.5163
   98SAPE     N 9772   4.172   0.017   6.742  0.4025 -0.2809 -0.1996
   98SAPE   HN1 9773   4.201   0.117   6.730  0.4411 -0.1636  0.7773
   98SAPE   HN2 9774   4.207  -0.034   6.658  0.5562  0.3985 -0.5615
   98SAPE   HN3 9775   4.070  -0.001   6.733  0.7065 -1.7712 -0.9443
   98SAPE   C12 9776   4.240  -0.037   6.861  0.2322 -0.1863 -0.4755
   98SAPE  H12A 9777   4.182  -0.120   6.906  0.1103  0.3775  0.4253
   98SAPE  H12B 9778   4.249   0.037   6.943  0.3656 -1.5856  0.8038
   98SAPE   C11 9779   4.382  -0.078   6.822  0.3469 -0.2981 -0.4616
   98SAPE  H11A 9780   4.370  -0.164   6.753  0.8232 -1.0630  0.3914
   98SAPE  H11B 9781   4.431  -0.112   6.915 -0.2359 -0.7073 -0.2948
   98SAPE     P 9782   4.589   0.005   6.696 -0.0519 -0.0853  0.3874
   98SAPE   O13 9783   4.688   0.095   6.764 -0.0133  0.3286 -0.2369
   98SAPE   O14 9784   4.612  -0.139   6.695  0.2038  0.1016  0.1213
   98SAPE   O12 9785   4.455   0.029   6.764  0.4414 -0.3802 -0.9082
   98SAPE   O11 9786   4.567   0.060   6.550  0.1776  0.1559 -0.5593
   98SAPE    C1 9787   4.615   0.003   6.431  0.5219 -1.0168  0.1633
   98SAPE    HA 9788   4.603  -0.107   6.438 -2.4616 -0.7282  0.9249
   98SAPE    HB 9789   4.553   0.043   6.348 -0.7474 -0.9313  1.1218
   98SAPE    C2 9790   4.767   0.024   6.426 -0.5365 -0.3198  0.6434
   98SAPE    HS 9791   4.813  -0.028   6.512  1.1447  1.1057  0.6587
   98SAPE   O21 9792   4.797   0.167   6.423  0.0470 -0.2601  0.0019
   98SAPE   C21 9793   4.914   0.204   6.473  0.5059 -0.3502 -0.3188
   98SAPE   O22 9794   4.995   0.132   6.531  0.3276 -0.1467  0.6655
   98SAPE   C22 9795   4.932   0.359   6.448 -0.1474  0.1539 -0.1303
   98SAPE   H2R 9796   4.842   0.420   6.424 -1.4997 -0.9515  1.7766
   98SAPE   H2S 9797   4.961   0.403   6.545  2.0792  0.8161 -1.0380
   98SAPE    C3 9798   4.813  -0.035   6.287  0.3253 -0.3808 -0.0556
   98SAPE    HX 9799   4.802  -0.146   6.291 -0.2055 -0.4643 -2.1935
   98SAPE    HY 9800   4.921  -0.012   6.277  0.1006 -0.1107 -2.4032
   98SAPE   O31 9801   4.743   0.022   6.173  0.3498  0.6329 -0.2866
   98SAPE   C31 9802   4.689  -0.053   6.081  0.4507  0.3320  0.1505
   98SAPE   O32 9803   4.672  -0.175   6.092 -0.2660 -0.2164  0.8734
   98SAPE   C32 9804   4.668   0.020   5.942 -0.3034 -0.0376 -0.4547
   98SAPE   H2X 9805   4.723   0.116   5.940 -1.0363  0.3840 -0.3131
   98SAPE   H2Y 9806   4.561   0.047   5.935 -0.4550 -0.8404 -1.5250
   98SAPE   C23 9807   5.037   0.369   6.336 -0.0329  0.4492  0.4249
   98SAPE   H3R 9808   5.134   0.337   6.380 -0.3366  1.9327  2.2792
   98SAPE   H3S 9809   5.039   0.479   6.318 -2.4679  0.3217 -1.0773
   98SAPE   C24 9810   5.014   0.318   6.189 -0.2219 -0.7096  0.3959
   98SAPE   H4R 9811   5.015   0.207   6.191 -0.9238 -0.7741 -1.3125
   98SAPE   H4S 9812   5.104   0.361   6.141  0.2125 -1.1007  0.8554
   98SAPE   C25 9813   4.884   0.361   6.124 -0.1374 -0.7181 -0.1546
   98SAPE   H5R 9814   4.809   0.420   6.180 -0.6840  0.9026 -2.4355
   98SAPE   C26 9815   4.867   0.354   5.991  0.7750  0.9752 -0.0712
   98SAPE   H6R 9816   4.776   0.392   5.943  0.9704  1.5643  0.0097
   98SAPE   C27 9817   4.959   0.279   5.898 -0.0124  0.0662 -0.5113
   98SAPE   H7R 9818   4.903   0.247   5.807 -0.9021  0.5663 -0.1494
   98SAPE   H7S 9819   5.012   0.191   5.939  0.8424  1.8693  2.5483
   98SAPE   C28 9820   5.069   0.380   5.853  1.1561 -0.0353  0.2327
   98SAPE   H8R 9821   5.109   0.437   5.939 -0.2195  2.5230 -0.7308
   98SAPE   C29 9822   5.114   0.407   5.726  0.2455  0.3128 -0.0118
   98SAPE   H9R 9823   5.198   0.478   5.732  1.2783 -0.9200  0.7088
   98SAPE  C210 9824   5.074   0.345   5.596 -0.0358 -0.2929 -0.8355
   98SAPE  H10R 9825   5.018   0.253   5.622 -0.1262 -0.7071 -2.4319
   98SAPE  H10S 9826   5.159   0.319   5.530  1.8402  0.9058  0.9902
   98SAPE  C211 9827   4.977   0.444   5.532  0.0655  0.0126  0.7447
   98SAPE  H11R 9828   4.907   0.492   5.602  0.5920  0.6565  0.8464
   98SAPE  C212 9829   4.977   0.475   5.403 -0.6463 -0.8176  0.0893
   98SAPE  H12R 9830   4.918   0.563   5.373  1.9511  0.0366 -2.9991
   98SAPE  C213 9831   5.069   0.417   5.299 -0.4317 -0.7460  0.5321
   98SAPE  H13R 9832   5.138   0.339   5.337 -0.3887 -0.4578  1.0472
   98SAPE  H13S 9833   5.130   0.506   5.270 -0.2787 -1.1696 -0.5203
   98SAPE  C214 9834   4.992   0.374   5.176 -0.0548  0.8499  0.1406
   98SAPE  H14R 9835   4.883   0.361   5.174  0.1286 -1.0573  0.5594
   98SAPE  C215 9836   5.057   0.341   5.062  0.6654 -0.2874  0.2334
   98SAPE  H15R 9837   4.996   0.317   4.973  0.0569  0.2585  0.4950
   98SAPE  C216 9838   5.202   0.349   5.028  0.9223 -0.0720  0.3152
   98SAPE  H16R 9839   5.253   0.250   5.035 -1.4036 -1.3637  0.2795
   98SAPE  H16S 9840   5.252   0.424   5.093  0.9393  0.2661 -0.0874
   98SAPE  C217 9841   5.217   0.394   4.888  0.1317 -0.5335  0.2484
   98SAPE  H17R 9842   5.152   0.481   4.863  2.2504  1.3729  0.9829
   98SAPE  H17S 9843   5.184   0.309   4.825  0.6098 -0.4293 -0.1511
   98SAPE  C218 9844   5.365   0.432   4.865  0.1935  0.3272 -1.0058
   98SAPE  H18R 9845   5.427   0.342   4.884 -0.6064  0.1538  0.9469
   98SAPE  H18S 9846   5.402   0.503   4.942 -0.4797  1.1649 -1.4412
   98SAPE  C219 9847   5.392   0.496   4.727  0.3433 -0.0309  0.2425
   98SAPE  H19R 9848   5.472   0.567   4.757  0.8894 -0.7987  0.6257
   98SAPE  H19S 9849   5.308   0.556   4.687  1.8014  1.8286 -0.1777
   98SAPE  C220 9850   5.434   0.405   4.616  0.3297  0.8682 -0.2001
   98SAPE  H20R 9851   5.353   0.339   4.579  1.6654 -0.5977 -0.5793
   98SAPE  H20S 9852   5.498   0.326   4.660 -1.9760 -0.9171  0.1418
   98SAPE  H20T 9853   5.486   0.454   4.531 -0.0005  0.3826 -0.6883
   98SAPE   C33 9854   4.730  -0.053   5.818  0.5246  0.1404 -0.5856
   98SAPE   H3X 9855   4.690  -0.155   5.799  0.5554  0.2210 -1.0706
   98SAPE   H3Y 9856   4.840  -0.061   5.824  0.4499 -0.0664  1.0271
   98SAPE   C34 9857   4.695   0.015   5.691 -0.6313  0.5782  0.3494
   98SAPE   H4X 9858   4.741   0.116   5.680  0.8002 -0.1569 -0.7389
   98SAPE   H4Y 9859   4.584   0.008   5.691 -0.5588 -1.4716 -1.2598
   98SAPE   C35 9860   4.733  -0.069   5.573  0.4591 -0.0982  0.2472
   98SAPE   H5X 9861   4.680  -0.165   5.560 -1.3112  1.0821 -1.7865
   98SAPE   H5Y 9862   4.841  -0.092   5.586  0.3921 -0.0760  0.9136
   98SAPE   C36 9863   4.709  -0.007   5.436  0.0870 -0.0347 -0.0981
   98SAPE   H6X 9864   4.780   0.078   5.429  0.4945 -0.2740  0.8855
   98SAPE   H6Y 9865   4.606   0.031   5.424 -0.7491 -2.4711 -1.5095
   98SAPE   C37 9866   4.745  -0.089   5.304 -0.2892 -0.2538 -0.3897
   98SAPE   H7X 9867   4.659  -0.154   5.276 -0.0026  0.5847 -3.7177
   98SAPE   H7Y 9868   4.829  -0.153   5.339 -1.1021  0.3727  3.0277
   98SAPE   C38 9869   4.768  -0.004   5.177 -0.1236 -0.2014  0.2889
   98SAPE   H8X 9870   4.869   0.037   5.202  0.2660 -1.5545  1.0268
   98SAPE   H8Y 9871   4.692   0.077   5.171 -0.4719 -0.5499  0.0087
   98SAPE   C39 9872   4.758  -0.086   5.043  0.5020  0.7116  0.3364
   98SAPE   H9X 9873   4.654  -0.122   5.032  0.3525  0.6638  1.7702
   98SAPE   H9Y 9874   4.824  -0.175   5.050  0.0914  0.1655 -1.9923
   98SAPE  C310 9875   4.809  -0.015   4.918 -0.6106 -0.5549 -0.5389
   98SAPE  H10X 9876   4.836  -0.089   4.840 -2.3831 -1.4792 -0.3169
   98SAPE  H10Y 9877   4.900   0.043   4.944  0.2761 -0.8364 -2.7454
   98SAPE  C311 9878   4.700   0.085   4.860 -0.4110  0.2385 -0.0174
   98SAPE  H11X 9879   4.653   0.167   4.919 -0.0556  1.5425 -1.4755
   98SAPE  H11Y 9880   4.608   0.022   4.857  0.4157 -1.0119  0.1146
   98SAPE  C312 9881   4.732   0.153   4.725  0.6113  0.3675 -0.0673
   98SAPE  H12X 9882   4.661   0.235   4.700  2.8219  1.8223 -2.0484
   98SAPE  H12Y 9883   4.720   0.072   4.650  0.3483  2.1170 -2.0168
   98SAPE  C313 9884   4.871   0.216   4.702 -0.4027  0.1912  0.4106
   98SAPE  H13X 9885   4.949   0.138   4.707  0.0609  0.6164 -0.0738
   98SAPE  H13Y 9886   4.883   0.296   4.779 -1.7512  0.2745  0.5603
   98SAPE  C314 9887   4.885   0.296   4.578 -0.3274 -0.4604  1.0656
   98SAPE  H14X 9888   4.800   0.269   4.511  2.0138 -1.7353 -1.6365
   98SAPE  H14Y 9889   4.977   0.272   4.520 -2.3309 -1.5199 -1.9349
   98SAPE  C315 9890   4.877   0.449   4.601  0.1510  0.2602 -0.1405
   98SAPE  H15X 9891   4.963   0.484   4.663  1.6384 -0.2246 -1.8212
   98SAPE  H15Y 9892   4.782   0.481   4.648  1.0607  1.8804  0.6821
   98SAPE  C316 9893   4.875   0.532   4.472  1.0087 -0.0919 -0.1380
   98SAPE  H16X 9894   4.784   0.596   4.479  0.2041 -1.0444 -1.3145
   98SAPE  H16Y 9895   4.861   0.466   4.383 -1.6036  1.1672 -0.7652
   98SAPE  C317 9896   4.988   0.628   4.469 -0.6862  0.7357  0.8959
   98SAPE  H17X 9897   4.987   0.677   4.568  0.3585  0.0754  1.2546
   98SAPE  H17Y 9898   4.974   0.712   4.398 -0.0278  0.3505  0.2832
   98SAPE  C318 9899   5.118   0.567   4.430 -0.1067  0.5446  0.7799
   98SAPE  H18X 9900   5.198   0.643   4.440 -1.2268  1.8318  0.2552
   98SAPE  H18Y 9901   5.119   0.531   4.325  0.6083  4.7644 -0.8556
   98SAPE  H18Z 9902   5.142   0.485   4.502  0.0323  1.0131  1.2732
   99SAPE     N 9903   1.407   4.071   6.684 -0.1707 -0.2167 -0.1761
   99SAPE   HN1 9904   1.452   4.116   6.766 -0.3963  1.5593 -0.9863
   99SAPE   HN2 9905   1.361   3.987   6.725  0.5494 -1.3641 -1.6123
   99SAPE   HN3 9906   1.473   4.031   6.614 -1.0279 -0.2704 -0.9814
   99SAPE   C12 9907   1.305   4.170   6.623  0.7144 -0.0202 -0.8795
   99SAPE  H12A 9908   1.256   4.221   6.709  0.3311  0.3189 -1.2982
   99SAPE  H12B 9909   1.234   4.101   6.573  0.3572 -0.6013  0.3738
   99SAPE   C11 9910   1.371   4.282   6.549 -0.0450  0.3585 -0.1763
   99SAPE  H11A 9911   1.291   4.356   6.530 -1.9973 -1.8635 -1.1293
   99SAPE  H11B 9912   1.415   4.246   6.453 -1.3391 -0.0165 -0.6513
   99SAPE     P 9913   1.555   4.476   6.615  0.1714  0.2752  0.0707
   99SAPE   O13 9914   1.543   4.552   6.742  0.9424 -0.3793 -0.0346
   99SAPE   O14 9915   1.682   4.435   6.552 -0.4207 -0.5081 -0.5166
   99SAPE   O12 9916   1.476   4.340   6.641 -0.1776  0.4465 -0.0062
   99SAPE   O11 9917   1.458   4.551   6.513 -0.2105  0.2402  0.5001
   99SAPE    C1 9918   1.509   4.660   6.435 -0.6620  0.3360 -0.4830
   99SAPE    HA 9919   1.445   4.751   6.439  1.4809  1.8944  1.8015
   99SAPE    HB 9920   1.610   4.702   6.455 -1.5440  2.6888 -0.5895
   99SAPE    C2 9921   1.512   4.616   6.285 -0.1776  0.5571  0.5054
   99SAPE    HS 9922   1.526   4.706   6.221  1.2549  0.7457  1.0429
   99SAPE   O21 9923   1.394   4.548   6.250  0.1835  0.4059 -0.1511
   99SAPE   C21 9924   1.284   4.621   6.256 -0.1609  0.1744 -0.4336
   99SAPE   O22 9925   1.271   4.743   6.247 -0.2449 -0.2940  0.0178
   99SAPE   C22 9926   1.164   4.528   6.263  0.0776 -0.8783 -0.2545
   99SAPE   H2R 9927   1.175   4.429   6.215  0.8351 -1.3674  0.8941
   99SAPE   H2S 9928   1.147   4.509   6.371 -0.1826  1.2947  0.1347
   99SAPE    C3 9929   1.626   4.515   6.254 -0.0855 -0.0703  0.0042
   99SAPE    HX 9930   1.598   4.416   6.296  0.6908 -2.1119 -3.7783
   99SAPE    HY 9931   1.713   4.559   6.308  0.2737 -0.0800 -0.5562
   99SAPE   O31 9932   1.650   4.492   6.112  0.2146  0.0281  0.0147
   99SAPE   C31 9933   1.722   4.585   6.050 -0.3272  0.0716 -0.4154
   99SAPE   O32 9934   1.758   4.693   6.098  0.2900 -0.1151  0.2449
   99SAPE   C32 9935   1.767   4.536   5.912  0.4320  0.2655 -0.7473
   99SAPE   H2X 9936   1.688   4.473   5.867  0.1910 -0.3409  0.4926
   99SAPE   H2Y 9937   1.857   4.472   5.922 -1.0474 -2.0286 -1.4526
   99SAPE   C23 9938   1.038   4.594   6.193  0.3946 -0.0016 -0.7188
   99SAPE   H3R 9939   1.013   4.695   6.232 -0.9223 -0.1135 -1.2259
   99SAPE   H3S 9940   0.948   4.536   6.225  0.5305 -0.1483 -0.6016
   99SAPE   C24 9941   1.047   4.606   6.040  0.1488  0.2354  0.8215
   99SAPE   H4R 9942   1.124   4.684   6.027  0.1914  0.4435  2.1835
   99SAPE   H4S 9943   0.951   4.645   5.999 -0.4880 -1.6846  0.3714
   99SAPE   C25 9944   1.088   4.481   5.965  0.5893  0.9529 -0.0662
   99SAPE   H5R 9945   1.167   4.419   6.009  0.5279  0.7556 -0.2320
   99SAPE   C26 9946   1.031   4.431   5.852 -0.5301  0.0175  0.0528
   99SAPE   H6R 9947   1.072   4.333   5.822  0.0883  0.5522 -0.8905
   99SAPE   C27 9948   0.925   4.478   5.752 -0.8578 -0.3751 -0.1154
   99SAPE   H7R 9949   0.826   4.502   5.797 -0.5762 -0.1865  0.4097
   99SAPE   H7S 9950   0.916   4.389   5.687  1.5910 -1.9732  1.5754
   99SAPE   C28 9951   0.968   4.605   5.680 -0.1108  0.1061 -0.5964
   99SAPE   H8R 9952   1.044   4.660   5.738 -0.1835 -1.8670  1.5231
   99SAPE   C29 9953   0.899   4.661   5.577 -0.3664  0.1156 -0.0443
   99SAPE   H9R 9954   0.946   4.751   5.534 -1.5634  0.2618 -1.0895
   99SAPE  C210 9955   0.779   4.610   5.495 -0.4011  0.3674 -0.5266
   99SAPE  H10R 9956   0.735   4.527   5.554  0.0650  1.4543  1.4526
   99SAPE  H10S 9957   0.807   4.570   5.395 -1.1951  1.2186 -1.1004
   99SAPE  C211 9958   0.664   4.705   5.489  0.3723  0.2322  0.3833
   99SAPE  H11R 9959   0.603   4.703   5.581  0.3257  1.2370  0.3804
   99SAPE  C212 9960   0.622   4.779   5.385 -0.5488 -0.0636 -0.2825
   99SAPE  H12R 9961   0.524   4.829   5.393 -1.0748 -0.9596 -1.0012
   99SAPE  C213 9962   0.678   4.781   5.248 -0.3917 -0.1916  0.6964
   99SAPE  H13R 9963   0.776   4.730   5.237 -0.5365 -0.3063 -0.1930
   99SAPE  H13S 9964   0.691   4.887   5.218 -2.7121  0.9692  3.3132
   99SAPE  C214 9965   0.581   4.711   5.160  0.8146 -0.0036  0.4267
   99SAPE  H14R 9966   0.540   4.622   5.210  0.6018 -0.0791  0.1156
   99SAPE  C215 9967   0.532   4.733   5.037 -0.3458 -0.6458 -0.5324
   99SAPE  H15R 9968   0.454   4.660   5.011 -1.3244 -0.0564  0.6174
   99SAPE  C216 9969   0.558   4.856   4.952  0.4518 -0.1500  0.4200
   99SAPE  H16R 9970   0.612   4.937   5.005  2.3119 -1.7859  1.1665
   99SAPE  H16S 9971   0.458   4.893   4.920  0.6193  0.4468  0.5872
   99SAPE  C217 9972   0.650   4.816   4.833  0.0685 -0.3184 -0.3431
   99SAPE  H17R 9973   0.613   4.724   4.783  2.1186 -1.7260  0.5929
   99SAPE  H17S 9974   0.754   4.795   4.866  0.2850 -0.3026 -1.0009
   99SAPE  C218 9975   0.677   4.939   4.743 -0.5127  0.6229  0.4751
   99SAPE  H18R 9976   0.774   4.939   4.689  0.2640  0.1156  1.8332
   99SAPE  H18S 9977   0.668   5.033   4.801 -1.0101  0.4939  0.6117
   99SAPE  C219 9978   0.563   4.960   4.642  0.2663 -0.7716  0.4303
   99SAPE  H19R 9979   0.463   4.966   4.691  0.5011  1.1016  0.7602
   99SAPE  H19S 9980   0.565   4.868   4.579  0.8198 -0.4825  0.0136
   99SAPE  C220 9981   0.585   5.085   4.548 -0.7924  0.5355  0.0583
   99SAPE  H20R 9982   0.693   5.085   4.520 -1.1228  0.0560 -1.2880
   99SAPE  H20S 9983   0.561   5.180   4.601  1.6907  0.6850  1.0791
   99SAPE  H20T 9984   0.525   5.087   4.455  0.6846 -1.0604 -0.9990
   99SAPE   C33 9985   1.801   4.651   5.809  0.3170  0.6506  0.6104
   99SAPE   H3X 9986   1.885   4.700   5.862 -0.9290 -1.0016  4.5535
   99SAPE   H3Y 9987   1.725   4.732   5.805 -1.9339 -1.3377  0.3673
   99SAPE   C34 9988   1.828   4.592   5.670 -0.5990  0.4106 -0.2638
   99SAPE   H4X 9989   1.748   4.522   5.636 -0.0100 -1.2238  1.5371
   99SAPE   H4Y 9990   1.916   4.527   5.684 -0.7373  0.3172  0.1811
   99SAPE   C35 9991   1.839   4.699   5.563  0.0702 -0.5542 -0.0495
   99SAPE   H5X 9992   1.925   4.765   5.589  0.6861 -0.4583 -2.1168
   99SAPE   H5Y 9993   1.751   4.764   5.545  0.3025 -0.0578  0.5878
   99SAPE   C36 9994   1.883   4.649   5.424 -0.2453 -0.1373 -0.4213
   99SAPE   H6X 9995   1.797   4.591   5.384  1.2069 -2.5205 -0.3066
   99SAPE   H6Y 9996   1.966   4.577   5.441 -1.0224 -1.0886 -0.5552
   99SAPE   C37 9997   1.954   4.747   5.328 -0.5643  0.4620  0.0300
   99SAPE   H7X 9998   2.031   4.813   5.373 -0.2752  0.2445 -0.1409
   99SAPE   H7Y 9999   1.883   4.830   5.307  0.0664  0.4095 -2.6021
   99SAPE   C3810000   1.994   4.670   5.207  0.9677  0.2855 -0.1810
   99SAPE   H8X10001   2.031   4.567   5.227 -1.3331 -1.1649 -2.6894
   99SAPE   H8Y10002   2.079   4.716   5.151  1.6824  0.1356  0.7533
   99SAPE   C3910003   1.873   4.648   5.100 -0.7649 -0.5599 -0.0094
   99SAPE   H9X10004   1.821   4.744   5.076 -1.4087 -1.1687 -1.1633
   99SAPE   H9Y10005   1.796   4.589   5.153 -1.9551  0.0188 -1.0261
   99SAPE  C31010006   1.912   4.565   4.986 -0.6880 -0.9261 -0.4966
   99SAPE  H10X10007   1.966   4.474   5.017  0.8688  0.0982 -0.0943
   99SAPE  H10Y10008   1.987   4.629   4.934  2.1788 -2.4254  1.5449
   99SAPE  C31110009   1.795   4.534   4.889 -0.0124  0.4546  0.0091
   99SAPE  H11X10010   1.731   4.621   4.863  1.4019  1.7729  0.7689
   99SAPE  H11Y10011   1.729   4.459   4.939  1.8815 -0.9682  0.5125
   99SAPE  C31210012   1.844   4.453   4.770  0.6341 -0.2422 -0.4800
   99SAPE  H12X10013   1.907   4.374   4.816  0.6586  0.1960  0.2397
   99SAPE  H12Y10014   1.907   4.513   4.700  1.8261 -0.6833  0.1762
   99SAPE  C31310015   1.733   4.383   4.694 -0.1100 -0.3107 -0.3460
   99SAPE  H13X10016   1.650   4.456   4.692  1.2325  1.3257  0.9188
   99SAPE  H13Y10017   1.702   4.284   4.734 -0.5459  0.2626  0.7837
   99SAPE  C31410018   1.784   4.360   4.553  0.7392 -0.5993  0.5536
   99SAPE  H14X10019   1.886   4.316   4.542  0.8561 -0.9865  2.8416
   99SAPE  H14Y10020   1.785   4.458   4.501 -0.0737 -0.9490 -0.1431
   99SAPE  C31510021   1.681   4.265   4.467 -0.0733 -0.4183 -0.4656
   99SAPE  H15X10022   1.631   4.192   4.534 -1.0631  2.2810  1.9303
   99SAPE  H15Y10023   1.752   4.210   4.402 -0.2516 -0.6688 -0.4461
   99SAPE  C31610024   1.583   4.347   4.380  0.0225 -0.2499 -0.8341
   99SAPE  H16X10025   1.616   4.446   4.344  0.5896  1.0520  2.8084
   99SAPE  H16Y10026   1.505   4.378   4.452  0.0010  1.2410 -1.4716
   99SAPE  C31710027   1.526   4.264   4.268 -0.7096  0.5629 -0.2997
   99SAPE  H17X10028   1.519   4.155   4.282 -3.1768  0.6663 -0.2345
   99SAPE  H17Y10029   1.577   4.289   4.172  0.0435 -0.3235 -0.1325
   99SAPE  C31810030   1.379   4.307   4.259  0.3940 -0.0274  0.2576
   99SAPE  H18X10031   1.320   4.241   4.191  0.2846  1.3715 -1.0682
   99SAPE  H18Y10032   1.357   4.408   4.220 -0.8550  0.1055  1.2301
   99SAPE  H18Z10033   1.328   4.294   4.357  0.9213 -0.8943  0.4283
  100SAPE     N10034   2.785   2.928   6.687 -0.4365 -0.2595  0.0257
  100SAPE   HN110035   2.754   2.853   6.622  0.8131 -0.2034 -0.6781
  100SAPE   HN210036   2.830   2.892   6.774 -0.0585 -0.5573 -0.2884
  100SAPE   HN310037   2.690   2.964   6.707 -1.2511 -3.3008  2.2820
  100SAPE   C1210038   2.875   3.022   6.624 -0.0079 -0.0990 -0.0459
  100SAPE  H12A10039   2.963   2.966   6.586  0.8750  2.0070 -1.2101
  100SAPE  H12B10040   2.898   3.093   6.706 -0.7315 -0.5604  0.5767
  100SAPE   C1110041   2.814   3.103   6.507 -0.5632  0.1554 -0.4863
  100SAPE  H11A10042   2.788   3.036   6.422  2.6370 -0.2159 -1.2930
  100SAPE  H11B10043   2.889   3.169   6.459  0.1829 -1.0816 -1.0658
  100SAPE     P10044   2.644   3.297   6.470  0.4257 -0.2842  0.1402
  100SAPE   O1310045   2.502   3.321   6.506  0.1191  0.0842  0.4802
  100SAPE   O1410046   2.734   3.411   6.495 -0.0019  0.4041 -0.3784
  100SAPE   O1210047   2.693   3.175   6.553 -0.2452  0.0200 -0.0473
  100SAPE   O1110048   2.656   3.250   6.322 -0.2958  0.3546 -0.2725
  100SAPE    C110049   2.552   3.182   6.251 -0.2265 -0.7773 -0.3875
  100SAPE    HA10050   2.576   3.078   6.220  1.7775 -0.1886 -0.9205
  100SAPE    HB10051   2.456   3.171   6.307  0.1168 -3.2049 -0.1849
  100SAPE    C210052   2.529   3.257   6.123 -0.8351  0.8988  0.2788
  100SAPE    HS10053   2.458   3.194   6.065  0.8534 -1.2433  0.4223
  100SAPE   O2110054   2.654   3.270   6.050 -0.8107 -0.3588 -0.1154
  100SAPE   C2110055   2.681   3.187   5.956  0.4816  1.0161  0.7304
  100SAPE   O2210056   2.602   3.096   5.924  0.2123  0.4134  0.2125
  100SAPE   C2210057   2.809   3.214   5.892  0.1588  0.2580  0.7204
  100SAPE   H2R10058   2.848   3.318   5.902 -0.5015  0.5918 -0.1371
  100SAPE   H2S10059   2.878   3.150   5.952 -2.6839 -1.6955  2.1210
  100SAPE    C310060   2.467   3.397   6.150  0.7085 -0.0402 -0.1526
  100SAPE    HX10061   2.538   3.459   6.208 -0.0086  0.2009  0.4827
  100SAPE    HY10062   2.382   3.389   6.221  0.1242  0.2382 -0.8141
  100SAPE   O3110063   2.432   3.468   6.033 -0.6905  0.2621  0.2663
  100SAPE   C3110064   2.313   3.418   5.981 -0.5511  0.2855  1.1046
  100SAPE   O3210065   2.234   3.353   6.046 -0.1506 -0.2395 -0.4025
  100SAPE   C3210066   2.297   3.463   5.835 -0.3700  0.4616 -0.0547
  100SAPE   H2X10067   2.307   3.574   5.832 -1.3049  0.5695 -3.0851
  100SAPE   H2Y10068   2.190   3.444   5.812 -0.1922 -0.6945  0.0029
  100SAPE   C2310069   2.836   3.163   5.746  0.2978  0.3382  0.3586
  100SAPE   H3R10070   2.820   3.053   5.748  0.3639  0.3115 -0.4708
  100SAPE   H3S10071   2.943   3.184   5.727  0.6444 -1.5010  0.0134
  100SAPE   C2410072   2.747   3.229   5.634 -0.5949 -0.3721  0.1060
  100SAPE   H4R10073   2.641   3.209   5.658 -0.0573 -1.1327  2.0125
  100SAPE   H4S10074   2.773   3.173   5.541 -0.5793  0.6219 -0.5025
  100SAPE   C2510075   2.776   3.380   5.622  0.2466 -0.1578  0.4419
  100SAPE   H5R10076   2.731   3.437   5.703  0.8807 -1.4341  1.7382
  100SAPE   C2610077   2.871   3.432   5.540 -0.7235 -0.1035 -0.1194
  100SAPE   H6R10078   2.882   3.542   5.543  0.7876 -0.2401  2.3038
  100SAPE   C2710079   2.959   3.355   5.448 -0.2734  0.3445  0.9149
  100SAPE   H7R10080   2.896   3.285   5.390 -2.4072  1.6111  1.5840
  100SAPE   H7S10081   3.023   3.283   5.502  1.9107 -0.3573 -2.3545
  100SAPE   C2810082   3.049   3.439   5.363 -0.1832 -0.1606 -0.5867
  100SAPE   H8R10083   3.113   3.514   5.412  0.5482  0.8003 -2.8943
  100SAPE   C2910084   3.058   3.445   5.231 -0.3073  0.0339  0.3199
  100SAPE   H9R10085   3.129   3.516   5.188  1.1981  0.8440  3.8068
  100SAPE  C21010086   2.984   3.359   5.129 -0.5950 -0.0753  0.2942
  100SAPE  H10R10087   2.902   3.305   5.181  0.3330 -0.6080  1.2524
  100SAPE  H10S10088   3.049   3.281   5.082 -0.4427 -0.3240  0.9112
  100SAPE  C21110089   2.915   3.446   5.030  0.3320  0.1156 -0.3061
  100SAPE  H11R10090   2.812   3.469   5.062  0.0420 -1.3565 -0.1543
  100SAPE  C21210091   2.962   3.495   4.915  0.7955 -0.8913 -0.4899
  100SAPE  H12R10092   2.917   3.583   4.867  0.4934 -0.3031  0.8125
  100SAPE  C21310093   3.103   3.470   4.865  0.6607  0.0307  0.4799
  100SAPE  H13R10094   3.178   3.461   4.947 -0.0148 -0.3938  1.0612
  100SAPE  H13S10095   3.132   3.549   4.792 -0.2519 -1.6491 -1.8125
  100SAPE  C21410096   3.099   3.343   4.790  0.3398  0.0207  0.0561
  100SAPE  H14R10097   3.009   3.283   4.806  0.1985 -0.1801 -1.3828
  100SAPE  C21510098   3.184   3.298   4.698 -0.4850 -0.8233  0.5393
  100SAPE  H15R10099   3.169   3.198   4.655 -0.1889 -1.9668  2.9229
  100SAPE  C21610100   3.303   3.378   4.650 -0.2581 -0.4404  0.4064
  100SAPE  H16R10101   3.387   3.314   4.616 -0.6322  1.0882 -4.1713
  100SAPE  H16S10102   3.333   3.446   4.732  0.3122 -0.3927  0.1609
  100SAPE  C21710103   3.257   3.468   4.529  0.7956  0.1944 -0.0311
  100SAPE  H17R10104   3.339   3.541   4.512 -0.1947  1.2369 -0.5743
  100SAPE  H17S10105   3.168   3.527   4.562 -0.6653 -1.8273 -0.1307
  100SAPE  C21810106   3.234   3.387   4.400 -0.1904 -0.1751  0.2214
  100SAPE  H18R10107   3.151   3.321   4.433  0.0614  0.1525  1.5509
  100SAPE  H18S10108   3.323   3.322   4.388  0.8010  1.3457 -1.0007
  100SAPE  C21910109   3.197   3.472   4.280  0.0615  0.2472  0.5471
  100SAPE  H19R10110   3.278   3.544   4.255 -0.3583  1.4309  2.4373
  100SAPE  H19S10111   3.099   3.523   4.291 -0.4119  0.5084 -3.4375
  100SAPE  C22010112   3.174   3.391   4.148 -0.5042 -0.1469  0.1949
  100SAPE  H20R10113   3.251   3.319   4.113 -0.1732  0.9446 -1.4407
  100SAPE  H20S10114   3.150   3.463   4.066  0.2648 -0.7459 -0.5710
  100SAPE  H20T10115   3.091   3.322   4.177 -0.0953 -0.9384 -0.4850
  100SAPE   C3310116   2.397   3.401   5.736 -0.1730 -0.6109 -0.6015
  100SAPE   H3X10117   2.420   3.296   5.761 -2.4280 -0.9677  0.1891
  100SAPE   H3Y10118   2.491   3.459   5.746 -1.3917  1.2449  1.2653
  100SAPE   C3410119   2.336   3.412   5.591  0.3924  0.5268  0.3209
  100SAPE   H4X10120   2.326   3.521   5.574  2.1329  0.9486  1.6555
  100SAPE   H4Y10121   2.238   3.364   5.572  0.6203  1.1031 -3.0644
  100SAPE   C3510122   2.431   3.353   5.488  0.5216 -0.0996 -0.2607
  100SAPE   H5X10123   2.442   3.244   5.509  1.9752  0.2383  0.8448
  100SAPE   H5Y10124   2.535   3.390   5.488  0.5235 -0.0910  0.5170
  100SAPE   C3610125   2.385   3.352   5.345 -0.4862 -0.3467  0.8086
  100SAPE   H6X10126   2.361   3.453   5.307 -0.5331 -1.5078 -2.6338
  100SAPE   H6Y10127   2.295   3.287   5.330 -0.3691  0.1100 -2.8750
  100SAPE   C3710128   2.497   3.301   5.257  0.3789  0.5789 -0.0459
  100SAPE   H7X10129   2.483   3.192   5.245 -1.2389  0.8495 -0.8713
  100SAPE   H7Y10130   2.600   3.325   5.294 -0.2826  1.3129  1.4383
  100SAPE   C3810131   2.474   3.360   5.113  0.2881  0.2373 -0.0332
  100SAPE   H8X10132   2.499   3.469   5.109  0.1576  0.2676 -0.0328
  100SAPE   H8Y10133   2.367   3.350   5.086 -0.1069  1.7248  0.7994
  100SAPE   C3910134   2.550   3.279   5.014 -0.6223  0.6868  0.2640
  100SAPE   H9X10135   2.535   3.171   5.037 -2.9622  1.4003  2.4941
  100SAPE   H9Y10136   2.657   3.297   5.039 -0.4361 -1.3203  1.1444
  100SAPE  C31010137   2.505   3.320   4.872  0.4321  0.3812 -0.6078
  100SAPE  H10X10138   2.478   3.428   4.873 -2.8293 -0.2705 -2.3770
  100SAPE  H10Y10139   2.402   3.280   4.856  0.2169  0.0959  1.3114
  100SAPE  C31110140   2.595   3.293   4.737  0.1427  0.3540  0.3260
  100SAPE  H11X10141   2.689   3.341   4.772  1.7758 -0.9327 -2.0511
  100SAPE  H11Y10142   2.547   3.347   4.652 -0.9136  0.3468  0.8936
  100SAPE  C31210143   2.615   3.150   4.707  0.1578  0.4397  0.1022
  100SAPE  H12X10144   2.509   3.117   4.701  0.7985 -1.8915  0.5173
  100SAPE  H12Y10145   2.655   3.100   4.798 -0.2553  0.7343  0.4507
  100SAPE  C31310146   2.696   3.107   4.583  0.5119 -0.0286  0.2979
  100SAPE  H13X10147   2.802   3.080   4.602 -0.0097 -1.6973  1.0243
  100SAPE  H13Y10148   2.687   3.193   4.513  0.3395  1.0051  1.5436
  100SAPE  C31410149   2.614   2.987   4.522 -0.2432 -0.4254  0.5269
  100SAPE  H14X10150   2.641   2.972   4.415 -0.7883 -0.3021  0.3688
  100SAPE  H14Y10151   2.506   3.011   4.523  0.3197  2.4357  1.7571
  100SAPE  C31510152   2.641   2.856   4.596 -0.2666  0.4786  0.1012
  100SAPE  H15X10153   2.610   2.860   4.703 -0.3038 -1.4168  0.1967
  100SAPE  H15Y10154   2.752   2.849   4.603 -0.2806  1.6268  2.7139
  100SAPE  C31610155   2.584   2.727   4.538  0.5923  0.1215  0.1826
  100SAPE  H16X10156   2.473   2.721   4.549  0.3891  0.7503 -1.2860
  100SAPE  H16Y10157   2.627   2.641   4.594 -0.8748 -0.2516  0.8012
  100SAPE  C31710158   2.606   2.713   4.386  0.2242  0.2252 -0.1511
  100SAPE  H17X10159   2.715   2.708   4.368  0.1029 -0.9619 -0.6692
  100SAPE  H17Y10160   2.568   2.806   4.338  2.1405  0.2379 -1.7572
  100SAPE  C31810161   2.550   2.590   4.317  0.1253  0.3105  0.8852
  100SAPE  H18X10162   2.616   2.502   4.303 -0.4467 -0.0872  0.6553
  100SAPE  H18Y10163   2.527   2.618   4.212 -0.3305  0.7866  1.1007
  100SAPE  H18Z10164   2.458   2.552   4.366 -0.0980  2.4740  2.3193
  101SAPE     N10165   6.439   6.420   6.475 -0.3322  0.0334 -0.1003
  101SAPE   HN110166   6.478   6.508   6.513 -0.5219  0.1255 -0.1162
  101SAPE   HN210167   6.335   6.419   6.475 -0.3754 -0.7545  1.6314
  101SAPE   HN310168   6.476   6.341   6.533  1.5197 -0.7946 -2.2747
  101SAPE   C1210169   6.496   6.394   6.336  0.4198 -0.5390 -0.2084
  101SAPE  H12A10170   6.462   6.484   6.279  0.3173 -0.8714 -0.6798
  101SAPE  H12B10171   6.450   6.305   6.289  0.8618 -0.2023 -1.3262
  101SAPE   C1110172   6.641   6.390   6.343 -0.0405  0.5396 -0.0348
  101SAPE  H11A10173   6.688   6.473   6.401 -0.7081  1.2399 -0.4846
  101SAPE  H11B10174   6.682   6.409   6.241 -1.6810 -0.3944 -0.9063
  101SAPE     P10175   6.709   6.211   6.522  0.1897 -0.3400 -0.4810
  101SAPE   O1310176   6.807   6.295   6.588 -0.1774 -0.2936  0.7835
  101SAPE   O1410177   6.578   6.205   6.596  0.3781 -0.4282 -0.2101
  101SAPE   O1210178   6.684   6.258   6.379  0.2125 -0.0628  0.4517
  101SAPE   O1110179   6.779   6.064   6.518  0.2814  0.4859 -0.6364
  101SAPE    C110180   6.901   6.068   6.434 -0.1255  0.9419  0.1348
  101SAPE    HA10181   6.946   6.168   6.419 -1.2731  1.6532  1.1815
  101SAPE    HB10182   6.976   6.016   6.497  0.0195 -0.9913 -1.5268
  101SAPE    C210183   6.879   5.989   6.306 -0.0623  0.3965 -0.2427
  101SAPE    HS10184   6.978   5.962   6.266 -0.4239 -2.7738  0.7649
  101SAPE   O2110185   6.803   6.069   6.219 -0.0057 -0.1258  0.4347
  101SAPE   C2110186   6.861   6.165   6.156 -0.7868 -0.7610  0.1931
  101SAPE   O2210187   6.967   6.214   6.179  0.0896 -0.2375 -0.4356
  101SAPE   C2210188   6.767   6.218   6.046  0.2415 -0.7603  0.7078
  101SAPE   H2R10189   6.768   6.151   5.957  1.1907  1.2273 -0.8555
  101SAPE   H2S10190   6.671   6.243   6.095 -0.0947 -0.4675 -0.0859
  101SAPE    C310191   6.809   5.851   6.333 -0.1317  0.3545  0.0708
  101SAPE    HX10192   6.703   5.870   6.360 -1.1165 -1.0332 -2.4501
  101SAPE    HY10193   6.859   5.806   6.422 -2.4653  0.6937  1.6367
  101SAPE   O3110194   6.798   5.757   6.222  0.3771 -0.1984  0.2594
  101SAPE   C3110195   6.910   5.698   6.185  0.4112 -0.5650  0.0541
  101SAPE   O3210196   7.021   5.710   6.236  0.0074  0.3875  0.2097
  101SAPE   C3210197   6.889   5.613   6.056 -0.1837 -0.6071  0.0165
  101SAPE   H2X10198   6.843   5.678   5.978 -1.0288 -1.2926 -0.0786
  101SAPE   H2Y10199   6.821   5.529   6.083 -1.9605  0.5950 -0.5374
  101SAPE   C2310200   6.827   6.360   5.994  0.1049  0.2110 -0.4941
  101SAPE   H3R10201   6.916   6.345   5.928  1.4537  2.9537  0.5441
  101SAPE   H3S10202   6.849   6.429   6.078  0.4336 -0.4337 -0.0422
  101SAPE   C2410203   6.738   6.425   5.891 -0.3409 -0.1465  0.5758
  101SAPE   H4R10204   6.718   6.350   5.811 -0.8806 -0.5001  1.0321
  101SAPE   H4S10205   6.793   6.515   5.856 -1.2110 -0.1474 -0.8742
  101SAPE   C2510206   6.609   6.476   5.949 -0.1835  0.0468 -0.0128
  101SAPE   H5R10207   6.616   6.514   6.052  1.2201  0.9938 -0.4173
  101SAPE   C2610208   6.488   6.490   5.895 -0.1319  0.6236 -0.8282
  101SAPE   H6R10209   6.412   6.536   5.959  0.0049 -1.2581  0.7604
  101SAPE   C2710210   6.452   6.445   5.762  0.6619  0.2914  0.7561
  101SAPE   H7R10211   6.537   6.402   5.705 -0.4403 -2.2949  0.9367
  101SAPE   H7S10212   6.400   6.531   5.714 -1.4121  0.3159  2.8873
  101SAPE   C2810213   6.344   6.334   5.761  0.3130  0.0021  0.7702
  101SAPE   H8R10214   6.295   6.308   5.856 -1.2368 -0.1497 -0.0465
  101SAPE   C2910215   6.297   6.276   5.646 -0.5333  0.5513  0.5921
  101SAPE   H9R10216   6.226   6.192   5.655  0.4035 -0.6844 -2.3892
  101SAPE  C21010217   6.354   6.287   5.503  0.0375 -0.3987  0.6190
  101SAPE  H10R10218   6.433   6.210   5.494 -0.3149 -0.7039  0.0718
  101SAPE  H10S10219   6.385   6.393   5.493 -0.6427 -0.1755  0.7766
  101SAPE  C21110220   6.250   6.270   5.396  0.3357 -0.4425  0.4317
  101SAPE  H11R10221   6.161   6.334   5.407  1.9973  2.0821  0.0841
  101SAPE  C21210222   6.259   6.192   5.287 -0.1764 -0.7852 -0.1443
  101SAPE  H12R10223   6.179   6.180   5.212  1.4942  1.3171 -2.4304
  101SAPE  C21310224   6.379   6.113   5.246  0.3661 -0.2951 -1.1679
  101SAPE  H13R10225   6.401   6.047   5.333  1.8324  0.7393 -0.7123
  101SAPE  H13S10226   6.466   6.180   5.226  0.0812 -0.8677 -5.1548
  101SAPE  C21410227   6.359   6.022   5.123  0.2145 -0.5249  0.4357
  101SAPE  H14R10228   6.377   5.914   5.134 -2.3725 -0.9101  1.4881
  101SAPE  C21510229   6.333   6.072   5.001  0.3834 -0.3001  0.0243
  101SAPE  H15R10230   6.332   6.006   4.912  1.4801 -0.2290 -0.0560
  101SAPE  C21610231   6.331   6.220   4.964 -0.3460 -0.2693 -0.5713
  101SAPE  H16R10232   6.315   6.294   5.045  0.1595  1.4274 -1.9547
  101SAPE  H16S10233   6.244   6.233   4.896 -1.0837 -0.8514  0.2407
  101SAPE  C21710234   6.446   6.297   4.900 -0.2333 -0.2012  0.4028
  101SAPE  H17R10235   6.524   6.297   4.980 -2.8315  1.1156  3.1134
  101SAPE  H17S10236   6.443   6.407   4.888 -1.4129 -0.3953 -1.4184
  101SAPE  C21810237   6.510   6.240   4.769 -0.5541 -0.7543 -0.1722
  101SAPE  H18R10238   6.502   6.129   4.762  2.6397 -1.0640 -0.5605
  101SAPE  H18S10239   6.617   6.270   4.781  0.0596 -2.4117 -1.1175
  101SAPE  C21910240   6.446   6.298   4.639 -0.1530  0.0988 -0.5560
  101SAPE  H19R10241   6.478   6.404   4.630  0.0331 -0.0638 -1.9659
  101SAPE  H19S10242   6.336   6.306   4.654  0.0505  0.0567  1.2596
  101SAPE  C22010243   6.467   6.227   4.512 -0.0898  0.5509 -0.1996
  101SAPE  H20R10244   6.431   6.123   4.526  1.4422 -0.2722 -1.9633
  101SAPE  H20S10245   6.572   6.231   4.476 -0.5442  1.5516 -1.5171
  101SAPE  H20T10246   6.413   6.269   4.424 -0.3885 -1.3485 -0.9897
  101SAPE   C3310247   7.028   5.548   6.012  0.1868  0.1350  0.0856
  101SAPE   H3X10248   7.091   5.514   6.096  0.7484 -0.2646 -0.4886
  101SAPE   H3Y10249   7.078   5.620   5.944  0.5431 -1.0059 -0.9032
  101SAPE   C3410250   7.012   5.422   5.925 -0.0537  0.0922 -0.5463
  101SAPE   H4X10251   6.933   5.355   5.964  0.0607 -0.3684 -1.0832
  101SAPE   H4Y10252   7.105   5.363   5.908 -1.2786 -1.9575 -0.5405
  101SAPE   C3510253   6.960   5.468   5.785 -0.9909  0.2206 -0.2689
  101SAPE   H5X10254   7.049   5.494   5.724  0.1091 -0.0039  1.1705
  101SAPE   H5Y10255   6.895   5.558   5.784  3.1056  3.5001  0.7150
  101SAPE   C3610256   6.885   5.359   5.708  0.7590 -0.0309 -0.1217
  101SAPE   H6X10257   6.810   5.320   5.780  0.6939  1.8679  0.8789
  101SAPE   H6Y10258   6.943   5.265   5.692 -0.5783 -0.9339  0.0913
  101SAPE   C3710259   6.825   5.410   5.577 -0.3747  0.1135 -0.3879
  101SAPE   H7X10260   6.899   5.467   5.518  0.6499 -1.8040 -1.0436
  101SAPE   H7Y10261   6.737   5.474   5.600 -0.6421  0.4772 -2.2751
  101SAPE   C3810262   6.780   5.295   5.496  0.9011  0.4260 -0.0334
  101SAPE   H8X10263   6.711   5.230   5.554  0.2082 -0.7192 -2.0318
  101SAPE   H8Y10264   6.860   5.228   5.457 -0.3458 -1.1873  0.1066
  101SAPE   C3910265   6.704   5.330   5.362 -0.2250  0.2644  0.5266
  101SAPE   H9X10266   6.640   5.419   5.380  1.1934  1.7033 -1.1334
  101SAPE   H9Y10267   6.655   5.237   5.327 -3.3013  2.3836 -1.2125
  101SAPE  C31010268   6.808   5.350   5.251 -0.5897  0.0375 -0.0267
  101SAPE  H10X10269   6.886   5.410   5.302  1.6095 -3.3136  0.8935
  101SAPE  H10Y10270   6.758   5.415   5.177 -2.4666  1.9442  2.7022
  101SAPE  C31110271   6.885   5.220   5.202  0.7041  0.6247  0.6157
  101SAPE  H11X10272   6.804   5.146   5.186  0.6912  0.6023  0.7853
  101SAPE  H11Y10273   6.960   5.191   5.278  0.3157 -2.9615 -0.1966
  101SAPE  C31210274   6.960   5.250   5.069 -0.6616  0.3409  0.1373
  101SAPE  H12X10275   7.035   5.329   5.093 -0.3158 -0.1946  0.8579
  101SAPE  H12Y10276   6.890   5.292   4.994 -0.8041  0.1995  0.1918
  101SAPE  C31310277   7.024   5.127   5.002 -0.9079 -0.8072 -0.2111
  101SAPE  H13X10278   6.950   5.047   4.980 -0.2011 -0.9842 -2.1383
  101SAPE  H13Y10279   7.081   5.070   5.078 -2.3175  2.2839  3.4902
  101SAPE  C31410280   7.112   5.155   4.888 -0.1071 -0.4327  0.7124
  101SAPE  H14X10281   7.144   5.058   4.843 -1.4896  0.2028 -1.8224
  101SAPE  H14Y10282   7.205   5.213   4.905 -0.5249 -0.3327  2.9385
  101SAPE  C31510283   7.038   5.226   4.769 -0.7467 -0.0070 -0.8572
  101SAPE  H15X10284   7.013   5.330   4.797  1.0599  0.3334 -0.3739
  101SAPE  H15Y10285   6.947   5.169   4.742 -0.9498  0.4551 -1.1466
  101SAPE  C31610286   7.133   5.241   4.651  0.4661  0.0984 -1.1077
  101SAPE  H16X10287   7.130   5.136   4.616  1.4285 -0.3694  0.1359
  101SAPE  H16Y10288   7.238   5.271   4.675  0.2992  0.3054 -0.6287
  101SAPE  C31710289   7.070   5.339   4.546  0.2303 -0.2134 -0.1273
  101SAPE  H17X10290   6.962   5.312   4.541  0.4174 -1.0585  0.1475
  101SAPE  H17Y10291   7.109   5.323   4.444 -0.6100 -0.0630 -0.4821
  101SAPE  C31810292   7.076   5.486   4.577  0.4328 -0.0673 -0.1235
  101SAPE  H18X10293   7.028   5.538   4.491  0.1771  0.6189  0.4163
  101SAPE  H18Y10294   7.181   5.518   4.592  1.3951 -2.6215 -0.9812
  101SAPE  H18Z10295   7.019   5.503   4.671  3.0488  2.0811  1.2304
  102SAPE     N10296   3.032   2.235   6.769 -0.7106 -0.5588  0.1524
  102SAPE   HN110297   3.069   2.310   6.831 -1.1314  0.3814 -0.7004
  102SAPE   HN210298   2.928   2.241   6.775 -0.6685  1.6120 -0.5462
  102SAPE   HN310299   3.074   2.147   6.806  1.5248  0.7458  0.9098
  102SAPE   C1210300   3.071   2.285   6.634 -0.6812 -0.2502 -0.8209
  102SAPE  H12A10301   3.159   2.351   6.652  0.5558 -2.0537  0.1281
  102SAPE  H12B10302   2.987   2.342   6.590  0.2938  1.7115 -0.2708
  102SAPE   C1110303   3.099   2.167   6.535 -0.2566 -0.3762 -0.4987
  102SAPE  H11A10304   3.122   2.222   6.441 -1.2903  0.4687 -0.2794
  102SAPE  H11B10305   3.000   2.122   6.514  0.2441 -0.0916 -4.2079
  102SAPE     P10306   3.339   2.071   6.537 -0.3627  0.5751  0.2304
  102SAPE   O1310307   3.397   2.204   6.544 -0.4283 -0.0008 -0.2874
  102SAPE   O1410308   3.416   1.967   6.607  0.4097  0.2092 -0.3201
  102SAPE   O1210309   3.193   2.073   6.592 -0.5330  0.1563 -0.4333
  102SAPE   O1110310   3.335   2.018   6.389  0.3507  0.3235 -0.0260
  102SAPE    C110311   3.215   1.933   6.345 -0.1563  0.0733 -0.4964
  102SAPE    HA10312   3.215   1.829   6.385 -2.5651  1.2979  3.1553
  102SAPE    HB10313   3.113   1.961   6.376 -0.4229  0.5445 -1.7398
  102SAPE    C210314   3.211   1.931   6.187 -0.4496 -0.6099 -0.0837
  102SAPE    HS10315   3.141   1.851   6.154  0.3198 -2.0098  1.4835
  102SAPE   O2110316   3.340   1.898   6.131 -0.3389 -0.7306  0.0816
  102SAPE   C2110317   3.384   1.777   6.161 -1.3455  1.0070  0.1940
  102SAPE   O2210318   3.317   1.684   6.206  0.4444 -0.2082  0.0444
  102SAPE   C2210319   3.540   1.768   6.145  0.6262 -0.6552  0.4230
  102SAPE   H2R10320   3.570   1.826   6.055  0.2012  2.4674  2.1171
  102SAPE   H2S10321   3.573   1.825   6.235 -0.3741  0.1918  0.2729
  102SAPE    C310322   3.166   2.071   6.130  0.0011  0.6025 -0.2260
  102SAPE    HX10323   3.233   2.151   6.166 -0.2922 -0.8710  4.0991
  102SAPE    HY10324   3.065   2.084   6.175 -0.1869  1.6095 -0.9164
  102SAPE   O3110325   3.145   2.049   5.988  0.1390 -0.0624  0.0659
  102SAPE   C3110326   3.257   2.077   5.918 -0.2794  0.5224 -0.2299
  102SAPE   O3210327   3.351   2.140   5.968  0.2241  0.0562 -0.0776
  102SAPE   C3210328   3.254   2.028   5.776  0.2750 -0.4033  0.0563
  102SAPE   H2X10329   3.179   2.095   5.730 -0.0690  1.6269  3.3057
  102SAPE   H2Y10330   3.233   1.919   5.775  4.1770 -1.3221  0.3824
  102SAPE   C2310331   3.587   1.620   6.128  0.0026  0.6796 -0.8871
  102SAPE   H3R10332   3.532   1.550   6.194  2.0383 -0.7536 -0.6133
  102SAPE   H3S10333   3.694   1.617   6.159  0.0006  2.5199 -0.5830
  102SAPE   C2410334   3.558   1.562   5.982  0.5228 -0.8238  0.0089
  102SAPE   H4R10335   3.585   1.644   5.912  0.3931 -1.1094 -0.3772
  102SAPE   H4S10336   3.450   1.547   5.964  0.7492 -0.1880 -2.0987
  102SAPE   C2510337   3.635   1.443   5.939 -0.0446 -0.3191 -0.1822
  102SAPE   H5R10338   3.615   1.355   6.002 -1.4923  2.2836  3.3105
  102SAPE   C2610339   3.719   1.421   5.838  0.0696 -0.4927  0.2876
  102SAPE   H6R10340   3.768   1.324   5.822  1.1216  0.0638  0.0353
  102SAPE   C2710341   3.763   1.534   5.750 -0.1298  0.2061 -0.3583
  102SAPE   H7R10342   3.834   1.592   5.813  1.3509 -1.0104 -0.8446
  102SAPE   H7S10343   3.684   1.596   5.701 -0.7028 -2.1765 -2.7397
  102SAPE   C2810344   3.827   1.469   5.632  0.0412 -0.2747 -0.2461
  102SAPE   H8R10345   3.937   1.475   5.631  0.0300  2.2931  1.7942
  102SAPE   C2910346   3.769   1.394   5.535  0.6880  0.0243 -0.8610
  102SAPE   H9R10347   3.824   1.347   5.453  2.1201 -0.9851  0.6165
  102SAPE  C21010348   3.617   1.371   5.522 -0.6748  0.3183 -0.7134
  102SAPE  H10R10349   3.579   1.329   5.617  0.0383  1.5416  0.1519
  102SAPE  H10S10350   3.607   1.286   5.452  0.3665 -1.1864  0.8807
  102SAPE  C21110351   3.524   1.479   5.479 -0.8537  0.1395 -0.0071
  102SAPE  H11R10352   3.486   1.533   5.567  1.3271 -0.9570  1.7145
  102SAPE  C21210353   3.488   1.496   5.351 -0.7980 -1.0039  0.4623
  102SAPE  H12R10354   3.400   1.560   5.332 -0.1424 -0.3498 -0.4796
  102SAPE  C21310355   3.530   1.416   5.224 -0.0929  0.2794 -0.8053
  102SAPE  H13R10356   3.441   1.381   5.167  0.2044 -1.4545 -0.2555
  102SAPE  H13S10357   3.601   1.337   5.255 -0.0940  0.9321  0.9825
  102SAPE  C21410358   3.611   1.516   5.141 -0.2514  0.7199  0.1852
  102SAPE  H14R10359   3.593   1.623   5.154 -1.3440  0.4830  0.7517
  102SAPE  C21510360   3.697   1.488   5.043  0.1914 -0.2700 -0.0680
  102SAPE  H15R10361   3.743   1.573   4.991 -1.2739  0.2757 -0.5226
  102SAPE  C21610362   3.734   1.350   4.985 -0.8085 -0.1800 -0.1352
  102SAPE  H16R10363   3.714   1.268   5.058  3.8031 -2.0493 -0.6359
  102SAPE  H16S10364   3.844   1.350   4.974 -0.8097 -0.1759 -0.1451
  102SAPE  C21710365   3.669   1.321   4.855  0.3385 -0.4803 -0.5325
  102SAPE  H17R10366   3.731   1.239   4.813  1.2597 -0.2160  0.2573
  102SAPE  H17S10367   3.657   1.406   4.785  0.4660  0.4607  0.5538
  102SAPE  C21810368   3.524   1.255   4.883 -0.0810  1.0122  1.0522
  102SAPE  H18R10369   3.454   1.324   4.933  0.4424  1.2207  1.5066
  102SAPE  H18S10370   3.532   1.162   4.944 -2.8358  2.0000  3.1288
  102SAPE  C21910371   3.459   1.227   4.742 -0.2532  0.1547  0.4627
  102SAPE  H19R10372   3.519   1.152   4.686  0.9434  0.6824  1.0096
  102SAPE  H19S10373   3.463   1.324   4.688 -1.6514  0.2233  0.4402
  102SAPE  C22010374   3.314   1.174   4.738  0.2524 -0.1868 -0.3061
  102SAPE  H20R10375   3.303   1.070   4.774 -2.2358 -0.3551 -1.3900
  102SAPE  H20S10376   3.270   1.169   4.636  1.2648 -0.1344 -0.7603
  102SAPE  H20T10377   3.256   1.245   4.801  0.1574 -0.3042 -0.2605
  102SAPE   C3310378   3.396   2.050   5.697  0.5565  0.1984  0.6000
  102SAPE   H3X10379   3.467   2.000   5.767  1.6644 -1.3964 -1.5113
  102SAPE   H3Y10380   3.427   2.153   5.670  1.1749  0.5136  2.3667
  102SAPE   C3410381   3.394   1.981   5.554 -0.1065 -0.2768 -0.9684
  102SAPE   H4X10382   3.361   1.877   5.576 -2.5101  0.5950 -0.0903
  102SAPE   H4Y10383   3.497   1.983   5.514  0.4858 -0.7671  0.4732
  102SAPE   C3510384   3.282   2.022   5.458 -0.9753 -0.0020  0.1800
  102SAPE   H5X10385   3.299   2.125   5.420  0.8780 -0.1038  0.6731
  102SAPE   H5Y10386   3.184   2.029   5.511 -0.8132 -0.5563  0.5625
  102SAPE   C3610387   3.262   1.932   5.336 -0.4586  0.0789 -1.0677
  102SAPE   H6X10388   3.161   1.948   5.294 -1.2912 -0.1425  0.7715
  102SAPE   H6Y10389   3.253   1.827   5.369  0.4478  0.0576 -0.8628
  102SAPE   C3710390   3.368   1.947   5.226  0.3219 -0.8203 -1.1769
  102SAPE   H7X10391   3.472   1.967   5.260  0.0152  1.3400 -1.3193
  102SAPE   H7Y10392   3.335   2.041   5.177 -3.0428 -0.8832  0.7260
  102SAPE   C3810393   3.362   1.827   5.137  0.1886 -0.1431 -0.1208
  102SAPE   H8X10394   3.258   1.824   5.098 -0.2682 -1.0564  1.0836
  102SAPE   H8Y10395   3.390   1.734   5.191  0.4133 -1.4157 -2.3372
  102SAPE   C3910396   3.445   1.836   5.008  0.0412  0.4763 -0.4881
  102SAPE   H9X10397   3.453   1.728   4.984  0.7940  0.5223 -0.4625
  102SAPE   H9Y10398   3.545   1.874   5.037 -0.8344  0.8910  2.2823
  102SAPE  C31010399   3.374   1.913   4.896 -0.2378  0.3352 -0.4050
  102SAPE  H10X10400   3.438   1.998   4.863 -0.9745  0.6533 -1.0276
  102SAPE  H10Y10401   3.282   1.961   4.935  0.3315  0.0182  1.4264
  102SAPE  C31110402   3.341   1.823   4.774  0.0318  0.2971  0.0200
  102SAPE  H11X10403   3.283   1.889   4.706 -0.3099  1.7007  1.5962
  102SAPE  H11Y10404   3.269   1.747   4.812  1.3500  0.4452  3.1335
  102SAPE  C31210405   3.460   1.748   4.716 -0.0674 -0.2800 -0.5919
  102SAPE  H12X10406   3.500   1.672   4.787  1.1193  2.2715  1.6770
  102SAPE  H12Y10407   3.534   1.831   4.708 -1.0211  0.4533 -2.1601
  102SAPE  C31310408   3.418   1.679   4.581 -0.0986 -0.3089 -1.2820
  102SAPE  H13X10409   3.366   1.757   4.521 -0.7322 -0.6604 -1.2067
  102SAPE  H13Y10410   3.331   1.617   4.611 -0.5144  1.2946  1.0193
  102SAPE  C31410411   3.525   1.608   4.500  0.5629  0.4823  0.9131
  102SAPE  H14X10412   3.605   1.556   4.557 -0.6055 -1.7766  0.5851
  102SAPE  H14Y10413   3.570   1.680   4.428  0.1298 -0.1394  0.0015
  102SAPE  C31510414   3.465   1.500   4.409  0.0549 -0.1842  0.8210
  102SAPE  H15X10415   3.375   1.548   4.365 -0.1867 -0.4051  1.0726
  102SAPE  H15Y10416   3.430   1.406   4.456 -0.7358 -0.4281 -0.2083
  102SAPE  C31610417   3.558   1.447   4.297  0.5581  0.2454  0.1325
  102SAPE  H16X10418   3.581   1.536   4.234  0.2661 -0.2371 -0.6727
  102SAPE  H16Y10419   3.513   1.364   4.239 -3.6846  1.4393  1.3375
  102SAPE  C31710420   3.688   1.391   4.346  0.0472  0.8852 -0.0743
  102SAPE  H17X10421   3.742   1.477   4.391 -1.7169  1.7464  0.4749
  102SAPE  H17Y10422   3.750   1.356   4.260  1.9520  0.3977  1.4376
  102SAPE  C31810423   3.672   1.272   4.452 -0.3500 -0.1143  0.2267
  102SAPE  H18X10424   3.616   1.191   4.401 -0.5414  1.4440 -2.1995
  102SAPE  H18Y10425   3.620   1.308   4.543 -1.2213 -1.1181  0.1461
  102SAPE  H18Z10426   3.771   1.233   4.484 -0.5253 -0.4000  0.4272
  103SAPE     N10427   0.336   0.996   2.322  0.4416 -0.2707 -0.0085
  103SAPE   HN110428   0.439   0.988   2.326  0.4196 -1.8927 -1.6516
  103SAPE   HN210429   0.299   1.089   2.350 -1.3513 -0.3501 -1.8390
  103SAPE   HN310430   0.289   0.928   2.386 -0.4527 -0.1428 -0.5132
  103SAPE   C1210431   0.285   0.973   2.182 -0.3607  0.0269 -0.4742
  103SAPE  H12A10432   0.270   0.863   2.171 -2.2705  0.3139 -1.0388
  103SAPE  H12B10433   0.359   1.005   2.106 -0.7775 -1.8233 -1.7474
  103SAPE   C1110434   0.149   1.041   2.158  0.0206 -0.3367  0.1025
  103SAPE  H11A10435   0.075   0.989   2.222  0.4409  1.6760  2.3834
  103SAPE  H11B10436   0.127   1.007   2.055 -0.4737 -2.1060  0.7533
  103SAPE     P10437   0.057   1.279   2.114  0.3549 -0.2525 -0.0615
  103SAPE   O1310438   0.129   1.408   2.088  0.2840  0.5159 -0.8713
  103SAPE   O1410439  -0.018   1.218   2.005  0.0456 -0.0547 -0.2848
  103SAPE   O1210440   0.164   1.182   2.169  0.2111  0.2996 -0.4952
  103SAPE   O1110441  -0.044   1.310   2.230 -0.0068  0.6511 -0.3736
  103SAPE    C110442   0.003   1.303   2.369 -0.3998 -0.0167 -0.2477
  103SAPE    HA10443  -0.008   1.203   2.416  2.6427 -0.0335  0.6527
  103SAPE    HB10444   0.112   1.327   2.371 -0.6621  1.2472  0.1176
  103SAPE    C210445  -0.070   1.415   2.448  0.4480  0.2961 -0.3713
  103SAPE    HS10446  -0.065   1.509   2.388 -2.7748 -1.0517 -3.1513
  103SAPE   O2110447  -0.033   1.417   2.585  0.0965  0.4531  0.0685
  103SAPE   C2110448   0.074   1.482   2.617 -0.6750 -0.9736  0.2010
  103SAPE   O2210449   0.170   1.519   2.545 -0.2281 -0.4345  0.1294
  103SAPE   C2210450   0.071   1.523   2.767 -0.0094  0.2474  0.8221
  103SAPE   H2R10451   0.079   1.634   2.767  3.0964  0.1278 -0.0606
  103SAPE   H2S10452  -0.026   1.497   2.815  0.5206 -1.9933  0.7833
  103SAPE    C310453  -0.219   1.375   2.432  0.6988  0.0236 -0.1152
  103SAPE    HX10454  -0.240   1.271   2.465 -1.0564  0.7503  1.2229
  103SAPE    HY10455  -0.238   1.377   2.322  1.6556  1.4020 -0.2857
  103SAPE   O3110456  -0.303   1.451   2.525  0.4618 -0.1136  0.3869
  103SAPE   C3110457  -0.321   1.577   2.498  0.1506 -0.4616 -0.5014
  103SAPE   O3210458  -0.255   1.641   2.416 -0.4624  0.1530  0.6395
  103SAPE   C3210459  -0.419   1.643   2.594 -0.1424 -0.9188  0.6437
  103SAPE   H2X10460  -0.519   1.596   2.588 -1.7343  1.9237  2.2184
  103SAPE   H2Y10461  -0.422   1.748   2.557  0.0591 -1.2042 -0.2110
  103SAPE   C2310462   0.184   1.470   2.852 -0.3419 -0.0556  0.1027
  103SAPE   H3R10463   0.185   1.520   2.951  1.1753 -1.3408  0.7781
  103SAPE   H3S10464   0.287   1.479   2.811 -0.8698 -0.5979 -1.4242
  103SAPE   C2410465   0.167   1.313   2.882 -0.6137 -0.4342 -0.3358
  103SAPE   H4R10466   0.267   1.271   2.904 -1.0121 -0.2433  2.1203
  103SAPE   H4S10467   0.144   1.271   2.782 -0.1255 -2.0846  0.2086
  103SAPE   C2510468   0.066   1.283   2.989  0.7812 -0.2800 -0.4544
  103SAPE   H5R10469  -0.037   1.258   2.959  0.3269  0.9383  0.0410
  103SAPE   C2610470   0.082   1.310   3.124 -0.5946  0.1603 -0.0985
  103SAPE   H6R10471  -0.008   1.312   3.187 -1.0990 -0.8769 -0.7805
  103SAPE   C2710472   0.212   1.362   3.187  0.5807  0.7198  0.0745
  103SAPE   H7R10473   0.193   1.468   3.216 -0.8715  0.5352 -0.1472
  103SAPE   H7S10474   0.292   1.377   3.112  2.8000 -2.0128  1.7088
  103SAPE   C2810475   0.272   1.276   3.298 -0.5657  0.0325 -0.5496
  103SAPE   H8R10476   0.346   1.204   3.261 -1.5748 -2.1827  1.4286
  103SAPE   C2910477   0.242   1.278   3.428 -0.2438  0.2441  0.6212
  103SAPE   H9R10478   0.292   1.211   3.499  2.5721  1.2240 -0.2614
  103SAPE  C21010479   0.142   1.376   3.493 -0.7202  1.0939  0.4001
  103SAPE  H10R10480   0.058   1.314   3.530  2.1739 -2.2585  1.8775
  103SAPE  H10S10481   0.106   1.453   3.421  1.9335  2.3111  0.2765
  103SAPE  C21110482   0.191   1.461   3.607 -0.7956  0.8453 -0.7822
  103SAPE  H11R10483   0.238   1.552   3.568  2.0233  0.0964  0.6366
  103SAPE  C21210484   0.197   1.434   3.739 -0.4876 -0.0650  0.4620
  103SAPE  H12R10485   0.228   1.514   3.808  1.1128 -0.8806  0.7336
  103SAPE  C21310486   0.164   1.299   3.789  0.7667  0.5594  0.0108
  103SAPE  H13R10487   0.216   1.214   3.741  0.1274 -0.6986  1.4362
  103SAPE  H13S10488   0.055   1.282   3.772  1.4742 -3.5686 -1.4338
  103SAPE  C21410489   0.200   1.280   3.933  0.5580 -0.3493 -0.8689
  103SAPE  H14R10490   0.304   1.314   3.947  0.2084  1.4302 -2.1733
  103SAPE  C21510491   0.138   1.197   4.023 -0.1697 -0.1792  0.0394
  103SAPE  H15R10492   0.182   1.194   4.123 -1.8296 -0.5425  0.7993
  103SAPE  C21610493   0.004   1.130   3.999 -0.2025 -0.2439  0.2066
  103SAPE  H16R10494   0.022   1.020   4.005  0.7582 -0.0898  0.4061
  103SAPE  H16S10495  -0.033   1.142   3.895  0.1745 -2.3226 -0.2312
  103SAPE  C21710496  -0.110   1.157   4.096 -0.5381  0.3410 -1.2543
  103SAPE  H17R10497  -0.203   1.109   4.058 -0.3957  0.0197 -1.2048
  103SAPE  H17S10498  -0.130   1.266   4.098 -1.6331  0.1449 -0.1128
  103SAPE  C21810499  -0.084   1.090   4.234  0.0261  0.3393 -0.0312
  103SAPE  H18R10500   0.020   1.116   4.265 -0.3030  0.9888  0.5582
  103SAPE  H18S10501  -0.087   0.980   4.219  0.4422  0.1157  1.3659
  103SAPE  C21910502  -0.185   1.124   4.340  0.8587  0.2220 -0.1226
  103SAPE  H19R10503  -0.273   1.065   4.306 -0.6614  2.2731  0.0476
  103SAPE  H19S10504  -0.206   1.232   4.331 -0.4146 -0.1308 -1.8375
  103SAPE  C22010505  -0.156   1.100   4.483  0.7759  0.8390 -0.8443
  103SAPE  H20R10506  -0.149   0.991   4.503  2.1028  1.2342  1.2902
  103SAPE  H20S10507  -0.237   1.136   4.550  0.8250 -0.0660 -0.2808
  103SAPE  H20T10508  -0.059   1.144   4.516  1.0858 -0.0357 -0.5634
  103SAPE   C3310509  -0.369   1.659   2.733 -0.5666 -0.2600 -0.2887
  103SAPE   H3X10510  -0.368   1.558   2.780 -1.9563 -0.3018 -0.3139
  103SAPE   H3Y10511  -0.438   1.705   2.807  1.1942 -0.7377  1.7577
  103SAPE   C3410512  -0.247   1.745   2.754  0.1089 -0.3900 -0.4120
  103SAPE   H4X10513  -0.263   1.854   2.739  0.7199  0.6558  4.7072
  103SAPE   H4Y10514  -0.174   1.717   2.675 -0.4278  4.7447 -3.1325
  103SAPE   C3510515  -0.179   1.732   2.891 -0.3455  0.6074 -0.0726
  103SAPE   H5X10516  -0.085   1.789   2.881  0.4208 -0.8866 -1.8941
  103SAPE   H5Y10517  -0.155   1.630   2.929  1.8812  1.0331 -0.2080
  103SAPE   C3610518  -0.265   1.799   3.001 -0.0760 -0.3964 -0.3452
  103SAPE   H6X10519  -0.352   1.732   3.019 -0.6682  0.7929  1.4251
  103SAPE   H6Y10520  -0.302   1.896   2.964 -1.4892 -1.0233 -0.6377
  103SAPE   C3710521  -0.197   1.817   3.139  0.3091 -0.4238 -0.3635
  103SAPE   H7X10522  -0.265   1.867   3.212 -0.0940 -1.4174 -0.0462
  103SAPE   H7Y10523  -0.108   1.883   3.141  0.0729 -0.1086  0.0069
  103SAPE   C3810524  -0.163   1.679   3.209 -0.0021 -0.8483  0.0555
  103SAPE   H8X10525  -0.102   1.618   3.138  1.4371  1.2111 -0.5656
  103SAPE   H8Y10526  -0.259   1.627   3.229 -0.1833  0.1003  1.7813
  103SAPE   C3910527  -0.082   1.691   3.340 -0.3580 -0.3137  0.0189
  103SAPE   H9X10528   0.023   1.722   3.320 -0.6817 -0.5754 -2.2918
  103SAPE   H9Y10529  -0.072   1.587   3.379 -0.9124 -1.2114 -2.0996
  103SAPE  C31010530  -0.155   1.777   3.445 -0.0378  0.4740 -0.3567
  103SAPE  H10X10531  -0.260   1.744   3.430 -0.0537 -0.6326  1.8221
  103SAPE  H10Y10532  -0.155   1.884   3.412  2.6402  1.1763  1.5342
  103SAPE  C31110533  -0.084   1.758   3.581  0.0455 -0.2331  0.4299
  103SAPE  H11X10534   0.026   1.770   3.572  0.3788 -2.4336  0.7900
  103SAPE  H11Y10535  -0.099   1.653   3.615 -0.8759 -0.4170 -0.4719
  103SAPE  C31210536  -0.135   1.849   3.693 -0.3383  0.0594 -0.0577
  103SAPE  H12X10537  -0.102   1.953   3.672 -0.0348 -0.1267 -0.5056
  103SAPE  H12Y10538  -0.074   1.815   3.779 -1.2832  0.1983  0.6887
  103SAPE  C31310539  -0.290   1.833   3.724  0.2415  0.3321  0.5182
  103SAPE  H13X10540  -0.297   1.723   3.735  2.1284  0.0273 -0.8747
  103SAPE  H13Y10541  -0.356   1.864   3.640 -1.0004 -1.0182  0.9544
  103SAPE  C31410542  -0.327   1.893   3.854  0.1669 -0.3822 -0.5626
  103SAPE  H14X10543  -0.325   2.004   3.841  1.4092 -0.1940  0.9147
  103SAPE  H14Y10544  -0.252   1.866   3.932 -1.5172 -0.5038  1.0759
  103SAPE  C31510545  -0.458   1.842   3.913 -0.2582 -0.5931  0.1092
  103SAPE  H15X10546  -0.459   1.732   3.928 -1.5542 -0.5474  0.4727
  103SAPE  H15Y10547  -0.547   1.864   3.850  1.3671  0.0509 -2.0528
  103SAPE  C31610548  -0.475   1.880   4.056  0.3455  0.6769 -0.2597
  103SAPE  H16X10549  -0.386   1.863   4.121  0.0861  0.7181  0.1065
  103SAPE  H16Y10550  -0.562   1.821   4.091  0.8381  0.2181  0.2177
  103SAPE  C31710551  -0.508   2.031   4.061  0.1827 -0.3188 -0.3163
  103SAPE  H17X10552  -0.568   2.055   3.971  0.3632 -0.5589 -0.5036
  103SAPE  H17Y10553  -0.415   2.091   4.059 -1.1465  1.8143 -0.1688
  103SAPE  C31810554  -0.585   2.063   4.186  0.0968 -0.6035  0.7224
  103SAPE  H18X10555  -0.683   2.011   4.180 -2.1251  3.1251  1.2877
  103SAPE  H18Y10556  -0.602   2.172   4.205  0.5943 -0.5357  0.7825
  103SAPE  H18Z10557  -0.524   2.033   4.273 -0.9370  1.7110  2.3601
  104SAPE     N10558   4.043   4.600   2.081 -0.0938 -0.0838  0.0122
  104SAPE   HN110559   4.034   4.543   2.168  1.4333 -0.8414 -0.2852
  104SAPE   HN210560   3.968   4.575   2.014 -0.6094 -0.4565  0.7209
  104SAPE   HN310561   4.133   4.565   2.042  0.1842  1.5200 -0.8759
  104SAPE   C1210562   4.051   4.751   2.100 -0.1036  0.5410  0.3607
  104SAPE  H12A10563   4.094   4.793   2.007 -0.4280 -1.5046 -0.7691
  104SAPE  H12B10564   4.121   4.770   2.184  0.0948  3.0745 -0.3015
  104SAPE   C1110565   3.916   4.807   2.146  0.9033 -0.4164  0.2773
  104SAPE  H11A10566   3.918   4.915   2.172 -0.4788  0.4599 -2.8289
  104SAPE  H11B10567   3.892   4.758   2.243 -0.4507  0.3724  0.3586
  104SAPE     P10568   3.781   4.899   1.936  0.0949 -0.1669 -0.0679
  104SAPE   O1310569   3.905   4.943   1.875 -0.3044  0.7296  0.7270
  104SAPE   O1410570   3.673   4.845   1.852  0.1790  0.3865 -0.1097
  104SAPE   O1210571   3.815   4.784   2.045  0.2542  0.1965  0.1462
  104SAPE   O1110572   3.724   5.015   2.023 -0.1851 -0.3114 -0.1257
  104SAPE    C110573   3.658   5.008   2.150  0.0965  0.3905  0.1462
  104SAPE    HA10574   3.550   5.017   2.125  0.0793 -0.1108  0.0341
  104SAPE    HB10575   3.681   4.915   2.206 -0.2333  0.0635 -0.2593
  104SAPE    C210576   3.689   5.126   2.245 -0.0535 -0.1970 -0.3501
  104SAPE    HS10577   3.661   5.220   2.193 -1.5943 -1.3178 -1.6768
  104SAPE   O2110578   3.827   5.117   2.287 -0.2305 -0.3564 -0.1821
  104SAPE   C2110579   3.899   5.224   2.317  0.5389 -0.5867 -0.5987
  104SAPE   O2210580   3.858   5.338   2.305 -0.6860  0.0592 -0.6810
  104SAPE   C2210581   4.031   5.173   2.365  0.4322 -0.1280  0.5977
  104SAPE   H2R10582   4.037   5.065   2.339 -1.1000 -0.1765  0.3191
  104SAPE   H2S10583   4.115   5.223   2.313  0.7099  0.3866  1.5260
  104SAPE    C310584   3.598   5.106   2.374 -0.2627  0.6023 -0.0630
  104SAPE    HX10585   3.626   5.016   2.431 -0.3440  0.3862 -0.3589
  104SAPE    HY10586   3.491   5.086   2.351 -0.3397 -0.1668  0.9218
  104SAPE   O3110587   3.611   5.221   2.455  0.1759  0.8098 -0.1740
  104SAPE   C3110588   3.652   5.213   2.586  0.7720 -0.1798 -0.5558
  104SAPE   O3210589   3.684   5.110   2.643 -0.2663 -0.5950  0.0572
  104SAPE   C3210590   3.644   5.343   2.652  0.2462 -0.3705 -0.0127
  104SAPE   H2X10591   3.544   5.387   2.632  0.8586  0.8326 -0.4966
  104SAPE   H2Y10592   3.717   5.412   2.606  0.4111 -0.2829  0.3779
  104SAPE   C2310593   4.051   5.187   2.523  0.0660 -0.1853  0.4114
  104SAPE   H3R10594   4.128   5.109   2.540  0.6846  0.2652 -0.2421
  104SAPE   H3S10595   3.955   5.166   2.575 -0.5818 -1.7895 -1.3347
  104SAPE   C2410596   4.113   5.325   2.556 -0.3689 -0.0910 -0.6380
  104SAPE   H4R10597   4.185   5.354   2.476  2.1640 -0.9684  1.2089
  104SAPE   H4S10598   4.184   5.297   2.637  0.6159  1.3136 -0.9696
  104SAPE   C2510599   4.017   5.435   2.590 -0.0433 -0.2524  1.0399
  104SAPE   H5R10600   3.948   5.460   2.508 -0.8383  0.1555  1.8179
  104SAPE   C2610601   4.015   5.503   2.702  1.0081 -1.0325  0.0225
  104SAPE   H6R10602   3.939   5.580   2.721  0.3541 -1.7475  0.3725
  104SAPE   C2710603   4.117   5.493   2.816 -0.0796  0.5596 -0.1723
  104SAPE   H7R10604   4.139   5.596   2.851  2.9967  0.4046 -1.3792
  104SAPE   H7S10605   4.211   5.451   2.775 -1.4880  0.1134 -3.1764
  104SAPE   C2810606   4.057   5.402   2.924 -0.1890  0.1319 -0.0640
  104SAPE   H8R10607   4.021   5.301   2.899 -1.0555 -0.0221  1.6326
  104SAPE   C2910608   4.032   5.447   3.049  0.4948  0.1247  1.5392
  104SAPE   H9R10609   3.994   5.367   3.114 -1.2146 -1.0262 -0.7135
  104SAPE  C21010610   4.067   5.573   3.115 -0.6857 -0.2586 -0.7046
  104SAPE  H10R10611   3.979   5.630   3.149  0.3114 -0.2567  2.1533
  104SAPE  H10S10612   4.121   5.638   3.043 -1.4271 -0.8585 -1.8294
  104SAPE  C21110613   4.165   5.549   3.229 -0.1109  0.2563  0.3594
  104SAPE  H11R10614   4.268   5.511   3.220 -0.1725 -0.0706  0.9898
  104SAPE  C21210615   4.134   5.580   3.356  0.8085 -0.0484 -0.0756
  104SAPE  H12R10616   4.203   5.548   3.435  0.1364 -2.0773 -0.2577
  104SAPE  C21310617   4.006   5.641   3.413 -0.2971 -0.2138 -0.2236
  104SAPE  H13R10618   3.951   5.701   3.337  0.9804  1.2103 -0.0899
  104SAPE  H13S10619   4.039   5.719   3.486  1.5485 -1.2443  0.1155
  104SAPE  C21410620   3.925   5.541   3.489  0.0716  0.7369 -0.1986
  104SAPE  H14R10621   3.849   5.494   3.425  1.0884  0.1929 -1.0344
  104SAPE  C21510622   3.942   5.486   3.610  1.1485  0.2652  0.0777
  104SAPE  H15R10623   3.877   5.403   3.642  1.8438 -0.0787  0.6579
  104SAPE  C21610624   4.051   5.534   3.705  0.7317  0.5948 -0.1423
  104SAPE  H16R10625   4.090   5.634   3.676 -2.3255  1.5509 -1.3795
  104SAPE  H16S10626   4.134   5.459   3.700  0.0286 -0.2189  0.1123
  104SAPE  C21710627   4.011   5.531   3.858  1.2218 -0.2366  0.9812
  104SAPE  H17R10628   4.101   5.574   3.909 -0.9412  5.0570  1.0011
  104SAPE  H17S10629   4.000   5.428   3.899 -0.4140 -0.5592 -0.1639
  104SAPE  C21810630   3.887   5.619   3.892  0.4092  0.0254 -0.0338
  104SAPE  H18R10631   3.797   5.604   3.829  0.5663 -0.6324 -0.1092
  104SAPE  H18S10632   3.929   5.715   3.854  1.9342 -0.3931  0.5243
  104SAPE  C21910633   3.860   5.614   4.044 -0.0942 -0.0135  0.6466
  104SAPE  H19R10634   3.840   5.507   4.067  2.4032 -0.8474 -0.7002
  104SAPE  H19S10635   3.779   5.688   4.060  1.3775  1.7548  0.2549
  104SAPE  C22010636   3.965   5.661   4.146  0.2906 -0.7928  0.1831
  104SAPE  H20R10637   4.012   5.761   4.128  0.3873 -1.1034 -1.4565
  104SAPE  H20S10638   4.048   5.590   4.124  0.9798  0.0655 -0.0420
  104SAPE  H20T10639   3.929   5.655   4.251  1.3979 -2.7339  0.5097
  104SAPE   C3310640   3.660   5.343   2.808 -0.3188  0.2854  0.5421
  104SAPE   H3X10641   3.755   5.299   2.845 -0.8596 -0.0500  1.5594
  104SAPE   H3Y10642   3.572   5.295   2.856 -1.2434  1.7691  0.3583
  104SAPE   C3410643   3.645   5.486   2.861  0.2136 -0.8908  0.0845
  104SAPE   H4X10644   3.551   5.531   2.822  0.2287 -1.3668 -0.5094
  104SAPE   H4Y10645   3.726   5.553   2.825 -0.7468  0.9528  1.1794
  104SAPE   C3510646   3.642   5.503   3.017 -0.0645 -0.6544  0.4457
  104SAPE   H5X10647   3.738   5.469   3.061 -0.7105 -1.3628  1.3344
  104SAPE   H5Y10648   3.552   5.454   3.061 -1.2283  1.6617  0.8263
  104SAPE   C3610649   3.637   5.653   3.047  0.4783 -0.2096  0.2348
  104SAPE   H6X10650   3.544   5.699   3.009 -1.2759 -3.5979  0.0448
  104SAPE   H6Y10651   3.720   5.712   3.003  1.0433 -0.2048  1.2650
  104SAPE   C3710652   3.639   5.698   3.201  0.7297  0.2150  1.3941
  104SAPE   H7X10653   3.642   5.809   3.202  0.9165  0.2079  1.4832
  104SAPE   H7Y10654   3.721   5.645   3.253  0.0585 -2.3268  0.0594
  104SAPE   C3810655   3.503   5.653   3.262 -0.4085  0.0897 -0.4737
  104SAPE   H8X10656   3.492   5.543   3.253  1.5067 -0.1732 -0.1341
  104SAPE   H8Y10657   3.424   5.698   3.198 -1.4981 -2.4335 -0.9896
  104SAPE   C3910658   3.492   5.679   3.412 -0.9274  0.0843 -0.8486
  104SAPE   H9X10659   3.513   5.785   3.437 -0.4304 -0.0536 -0.6654
  104SAPE   H9Y10660   3.579   5.623   3.453  0.0716  1.5651 -0.8495
  104SAPE  C31010661   3.369   5.625   3.484 -0.3802  0.1348  0.2760
  104SAPE  H10X10662   3.365   5.515   3.470 -1.3689 -0.0701  1.8757
  104SAPE  H10Y10663   3.273   5.656   3.439  0.9468  1.9780 -1.4920
  104SAPE  C31110664   3.381   5.670   3.632  0.3775  0.3901  0.5321
  104SAPE  H11X10665   3.352   5.777   3.624  2.5222  0.8981 -2.0351
  104SAPE  H11Y10666   3.488   5.660   3.660  0.8383  0.6383 -1.0340
  104SAPE  C31210667   3.286   5.593   3.721 -0.5621  0.1539 -0.4393
  104SAPE  H12X10668   3.320   5.487   3.731  2.6600  1.0448 -0.8482
  104SAPE  H12Y10669   3.191   5.591   3.663 -0.6047  0.0501 -0.3660
  104SAPE  C31310670   3.259   5.652   3.860  0.1621  0.7464 -0.3814
  104SAPE  H13X10671   3.205   5.745   3.834  0.4555  0.6896 -1.2281
  104SAPE  H13Y10672   3.350   5.665   3.923 -1.8905  0.5695  2.8076
  104SAPE  C31410673   3.154   5.559   3.933 -0.1459 -0.0544 -0.2964
  104SAPE  H14X10674   3.197   5.457   3.933  1.0393  0.3995 -2.0924
  104SAPE  H14Y10675   3.064   5.555   3.868  0.7511  0.5178 -1.6079
  104SAPE  C31510676   3.152   5.609   4.075 -0.0446  0.6240  0.2111
  104SAPE  H15X10677   3.107   5.711   4.075 -4.4738 -0.8998  4.5299
  104SAPE  H15Y10678   3.254   5.624   4.114 -0.8565 -1.3583  3.4709
  104SAPE  C31610679   3.072   5.528   4.174 -0.7284  0.2817  0.2945
  104SAPE  H16X10680   2.977   5.514   4.117 -0.4996 -0.1281  0.0108
  104SAPE  H16Y10681   3.071   5.577   4.274  2.6254  1.8223 -0.2890
  104SAPE  C31710682   3.136   5.394   4.205  0.8106 -0.2437 -0.6952
  104SAPE  H17X10683   3.168   5.343   4.111 -1.4321 -1.8833 -0.6599
  104SAPE  H17Y10684   3.052   5.329   4.240  0.9463 -0.4348 -0.7220
  104SAPE  C31810685   3.250   5.382   4.312 -0.1801  0.6460  0.3453
  104SAPE  H18X10686   3.295   5.281   4.313 -0.3022  0.5849  0.0099
  104SAPE  H18Y10687   3.207   5.406   4.411 -0.3606 -0.0376  0.4351
  104SAPE  H18Z10688   3.328   5.459   4.294 -1.0036  1.5863  0.7134
  105SAPE     N10689   2.235   0.193   2.195  0.4967  0.2737  0.6397
  105SAPE   HN110690   2.255   0.282   2.145  0.7371  0.1704  0.5490
  105SAPE   HN210691   2.249   0.207   2.297  0.8354 -0.2414  0.6688
  105SAPE   HN310692   2.310   0.124   2.172  0.5321  0.8364 -1.0873
  105SAPE   C1210693   2.104   0.127   2.151 -0.4646 -0.6623  0.0166
  105SAPE  H12A10694   2.102   0.102   2.042  0.2324 -0.4698 -0.0451
  105SAPE  H12B10695   2.031   0.210   2.163 -2.5063 -2.0301 -2.1701
  105SAPE   C1110696   2.060   0.021   2.255 -0.2535 -0.2237  0.1750
  105SAPE  H11A10697   2.047   0.061   2.358 -1.0574  0.7343 -0.2802
  105SAPE  H11B10698   2.145  -0.051   2.256 -1.2958 -1.5763 -1.5523
  105SAPE     P10699   1.896  -0.178   2.251  0.4064  0.2359  0.1207
  105SAPE   O1310700   1.747  -0.196   2.239  0.6272  0.4241  0.0551
  105SAPE   O1410701   1.971  -0.271   2.163  0.4507 -0.1324  0.4948
  105SAPE   O1210702   1.938  -0.033   2.215 -0.0932  0.3341  0.9337
  105SAPE   O1110703   1.933  -0.195   2.405  0.0387 -0.0158 -0.1092
  105SAPE    C110704   1.864  -0.105   2.495 -0.4451  0.2471 -1.0223
  105SAPE    HA10705   1.869  -0.001   2.455  0.5351  1.0050  0.9221
  105SAPE    HB10706   1.760  -0.139   2.509  0.1652 -0.7586  1.9593
  105SAPE    C210707   1.922  -0.090   2.635 -0.1451 -0.3547  1.1011
  105SAPE    HS10708   2.025  -0.059   2.608 -0.4716  0.7470  1.0873
  105SAPE   O2110709   1.921  -0.222   2.697  0.0970 -0.3494  0.0945
  105SAPE   C2110710   1.997  -0.241   2.808  0.0562  0.6550 -0.4068
  105SAPE   O2210711   2.069  -0.158   2.861  0.1625 -0.7560  0.0243
  105SAPE   C2210712   1.958  -0.379   2.858 -0.2350 -0.8193  0.9930
  105SAPE   H2R10713   1.926  -0.438   2.770 -1.5676  1.2824 -0.0023
  105SAPE   H2S10714   2.055  -0.431   2.876  1.1532  0.2496 -2.5002
  105SAPE    C310715   1.856   0.029   2.715 -0.3840 -0.6296  0.1962
  105SAPE    HX10716   1.888   0.124   2.666  0.8454 -0.7105  0.8052
  105SAPE    HY10717   1.898   0.048   2.816 -1.0980  2.3867  0.0063
  105SAPE   O3110718   1.713   0.019   2.724  0.3743  0.2868 -0.0095
  105SAPE   C3110719   1.673  -0.057   2.828  0.2458 -0.5811 -0.2443
  105SAPE   O3210720   1.745  -0.118   2.899  0.1131  0.2534 -0.4597
  105SAPE   C3210721   1.526  -0.053   2.844  0.0072 -0.1391  0.1796
  105SAPE   H2X10722   1.474  -0.087   2.751 -0.3256  1.8588 -0.4077
  105SAPE   H2Y10723   1.500   0.053   2.861  0.9702 -0.0487  1.2289
  105SAPE   C2310724   1.865  -0.390   2.986 -0.2800 -0.0609 -0.6771
  105SAPE   H3R10725   1.858  -0.497   3.015 -0.0278  0.2158  0.4818
  105SAPE   H3S10726   1.767  -0.353   2.950 -0.6295 -0.9637 -0.6860
  105SAPE   C2410727   1.904  -0.312   3.114 -0.3513  1.0937 -0.4633
  105SAPE   H4R10728   1.826  -0.321   3.192 -0.6810  4.5748 -0.2340
  105SAPE   H4S10729   1.917  -0.204   3.089  0.3203  1.9494  3.0239
  105SAPE   C2510730   2.039  -0.369   3.158  0.5642  0.2034 -0.5273
  105SAPE   H5R10731   2.121  -0.345   3.090 -0.3564  0.9273 -1.4164
  105SAPE   C2610732   2.072  -0.422   3.278  0.4659 -0.5737  0.0805
  105SAPE   H6R10733   2.171  -0.469   3.287  0.7183 -1.2028 -4.1603
  105SAPE   C2710734   1.980  -0.442   3.396 -0.3249 -0.3849  0.1026
  105SAPE   H7R10735   2.030  -0.516   3.463  0.1346 -0.4586 -0.3203
  105SAPE   H7S10736   1.884  -0.480   3.355 -0.0941 -1.8630  0.8627
  105SAPE   C2810737   1.943  -0.323   3.473  0.5609 -0.5726  0.3132
  105SAPE   H8R10738   1.970  -0.227   3.426  0.9529 -1.0549 -0.4676
  105SAPE   C2910739   1.884  -0.328   3.596  0.3068  0.1710 -0.3005
  105SAPE   H9R10740   1.850  -0.234   3.643 -0.0635 -0.0219 -0.1743
  105SAPE  C21010741   1.845  -0.454   3.677 -0.7855  0.2233  0.7607
  105SAPE  H10R10742   1.928  -0.468   3.751  0.5816 -0.1111 -0.7762
  105SAPE  H10S10743   1.853  -0.549   3.620  0.2755  0.1311  1.0313
  105SAPE  C21110744   1.717  -0.462   3.752 -0.2271 -0.2119 -0.7043
  105SAPE  H11R10745   1.629  -0.492   3.693 -0.0788  0.1518 -1.1083
  105SAPE  C21210746   1.694  -0.433   3.877  0.3511 -0.3962 -0.7437
  105SAPE  H12R10747   1.596  -0.452   3.923  1.8658 -2.5474  1.9245
  105SAPE  C21310748   1.794  -0.386   3.987 -0.1195 -0.1757  0.3145
  105SAPE  H13R10749   1.893  -0.428   3.960  0.0898  0.4894  0.0302
  105SAPE  H13S10750   1.780  -0.430   4.089 -1.9952  0.3912  0.3361
  105SAPE  C21410751   1.807  -0.238   4.017  0.3055 -1.5668 -1.0259
  105SAPE  H14R10752   1.773  -0.176   3.933 -1.8755 -1.0937  0.1341
  105SAPE  C21510753   1.881  -0.179   4.121  0.1276 -0.7041 -0.0373
  105SAPE  H15R10754   1.894  -0.070   4.114  2.4411 -1.0247 -2.4444
  105SAPE  C21610755   1.945  -0.232   4.241 -0.1222 -0.1398  0.3281
  105SAPE  H16R10756   2.055  -0.228   4.230 -0.0426  0.6648  1.3210
  105SAPE  H16S10757   1.913  -0.335   4.269 -1.1096  0.0309 -0.1516
  105SAPE  C21710758   1.922  -0.150   4.373  0.6359 -0.1571 -0.1396
  105SAPE  H17R10759   1.812  -0.144   4.390  1.0885 -0.5803  3.8977
  105SAPE  H17S10760   1.947  -0.042   4.364  1.4369 -0.3375 -0.1718
  105SAPE  C21810761   2.008  -0.209   4.490  0.2382 -0.3587 -0.0319
  105SAPE  H18R10762   2.109  -0.213   4.444 -0.5831 -3.6414 -1.9077
  105SAPE  H18S10763   1.983  -0.315   4.513 -1.9466  0.1775  0.2813
  105SAPE  C21910764   2.011  -0.116   4.619  0.6433 -0.0174 -0.1785
  105SAPE  H19R10765   1.912  -0.132   4.666 -0.3393 -0.3401 -2.2692
  105SAPE  H19S10766   2.021  -0.013   4.580 -1.6046 -0.0467 -0.9323
  105SAPE  C22010767   2.130  -0.151   4.716 -0.1962 -0.0054  0.3008
  105SAPE  H20R10768   2.138  -0.085   4.805  1.0020  1.2365 -0.6903
  105SAPE  H20S10769   2.221  -0.139   4.655 -0.3089  3.5598  0.6101
  105SAPE  H20T10770   2.131  -0.253   4.760  1.5065 -0.4474 -0.6850
  105SAPE   C3310771   1.478  -0.120   2.973 -0.4238  0.1975 -0.1499
  105SAPE   H3X10772   1.543  -0.089   3.057  0.1303  1.2200 -0.9292
  105SAPE   H3Y10773   1.499  -0.229   2.968  0.6351  0.3892 -0.1908
  105SAPE   C3410774   1.335  -0.089   3.000 -0.3651 -1.0974 -0.1092
  105SAPE   H4X10775   1.289  -0.166   3.066  2.2964  0.0243  3.4227
  105SAPE   H4Y10776   1.279  -0.084   2.905  1.8217  0.1883 -1.4125
  105SAPE   C3510777   1.321   0.031   3.108 -0.6243 -0.0776  0.6715
  105SAPE   H5X10778   1.361   0.121   3.056  0.9317 -0.5080  1.0704
  105SAPE   H5Y10779   1.372   0.017   3.205 -1.7334  2.1050  1.6372
  105SAPE   C3610780   1.174   0.048   3.131  0.3208 -0.1074  0.6302
  105SAPE   H6X10781   1.137  -0.036   3.193 -2.8992  0.3634 -0.4537
  105SAPE   H6Y10782   1.121   0.035   3.034  3.2604 -0.6498 -1.0394
  105SAPE   C3710783   1.135   0.179   3.206  0.5906  0.1944  0.3462
  105SAPE   H7X10784   1.026   0.193   3.193  0.8145  0.6261 -1.2046
  105SAPE   H7Y10785   1.163   0.260   3.136 -2.6955  0.9012 -0.3029
  105SAPE   C3810786   1.188   0.207   3.342 -0.3161 -0.1486 -0.6359
  105SAPE   H8X10787   1.272   0.280   3.345 -1.2453  0.9241  0.3393
  105SAPE   H8Y10788   1.217   0.110   3.387 -2.6159 -0.2422  0.8567
  105SAPE   C3910789   1.082   0.267   3.437 -0.2171  0.3259  0.0683
  105SAPE   H9X10790   0.999   0.195   3.423  0.2676 -0.1225 -0.5459
  105SAPE   H9Y10791   1.049   0.373   3.423 -0.5404  0.4733  1.7185
  105SAPE  C31010792   1.113   0.279   3.582 -0.0206  0.4154 -0.3387
  105SAPE  H10X10793   1.149   0.177   3.607  2.9139  1.3849 -0.2404
  105SAPE  H10Y10794   1.028   0.311   3.646  2.3807  2.3972  2.1275
  105SAPE  C31110795   1.219   0.388   3.615 -0.4393 -0.0711 -0.9549
  105SAPE  H11X10796   1.185   0.489   3.584  0.0484  1.1746  2.2118
  105SAPE  H11Y10797   1.314   0.376   3.559  0.3753  1.8348 -0.0901
  105SAPE  C31210798   1.267   0.391   3.757  0.3582 -0.1969 -0.3190
  105SAPE  H12X10799   1.308   0.292   3.784  1.3848  0.6927  1.6079
  105SAPE  H12Y10800   1.173   0.409   3.813  0.9652  1.5914  0.2189
  105SAPE  C31310801   1.359   0.509   3.803  0.1628 -1.2360 -0.0696
  105SAPE  H13X10802   1.300   0.602   3.803  1.0251 -0.6741 -0.5961
  105SAPE  H13Y10803   1.448   0.528   3.739  0.6289  0.2613  0.9689
  105SAPE  C31410804   1.410   0.479   3.941  0.1748  0.5341  0.2286
  105SAPE  H14X10805   1.442   0.372   3.940 -0.7556  0.2216 -1.8273
  105SAPE  H14Y10806   1.323   0.480   4.010  1.6036 -1.3042  2.1958
  105SAPE  C31510807   1.514   0.574   3.994 -0.8626  0.7300 -0.7989
  105SAPE  H15X10808   1.464   0.669   4.023  0.4422  0.5338  2.5927
  105SAPE  H15Y10809   1.599   0.585   3.924 -1.1104 -3.3446 -1.9987
  105SAPE  C31610810   1.566   0.512   4.129  0.2702  0.2051  0.8844
  105SAPE  H16X10811   1.600   0.411   4.099  0.7877  0.8954 -0.9681
  105SAPE  H16Y10812   1.482   0.492   4.200  0.9109 -0.9821  1.3212
  105SAPE  C31710813   1.677   0.592   4.192 -0.8360 -0.0061 -0.2877
  105SAPE  H17X10814   1.631   0.679   4.245 -0.6314 -0.3833  0.5243
  105SAPE  H17Y10815   1.747   0.632   4.115  0.2535  0.5980  0.9511
  105SAPE  C31810816   1.753   0.519   4.298 -0.1310  0.0893 -0.0839
  105SAPE  H18X10817   1.854   0.564   4.309  0.2869 -1.2494  2.1774
  105SAPE  H18Y10818   1.762   0.412   4.269  0.2763 -0.2542  1.2541
  105SAPE  H18Z10819   1.716   0.523   4.403  0.6564  2.7361  0.1669
  106SAPE     N10820   6.817   5.460   2.599 -0.1722  0.0800 -0.0134
  106SAPE   HN110821   6.762   5.547   2.583  1.5671  1.5923  1.6302
  106SAPE   HN210822   6.885   5.442   2.523  0.5872  0.5147  0.5422
  106SAPE   HN310823   6.751   5.382   2.619  0.1875 -0.0070  0.9262
  106SAPE   C1210824   6.895   5.485   2.727 -0.6893 -0.3157  0.7170
  106SAPE  H12A10825   6.965   5.399   2.739 -0.6545 -0.2379  1.0808
  106SAPE  H12B10826   6.831   5.468   2.816  1.1570 -1.9298  1.8393
  106SAPE   C1110827   6.968   5.618   2.712  0.5266 -0.1010 -0.1837
  106SAPE  H11A10828   7.023   5.650   2.803  0.8740  0.0372 -0.4393
  106SAPE  H11B10829   6.897   5.702   2.702  1.0672  0.3769 -0.0900
  106SAPE     P10830   7.207   5.671   2.613 -0.3423 -0.0735 -0.4322
  106SAPE   O1310831   7.287   5.600   2.514 -0.5758  0.5188  0.1313
  106SAPE   O1410832   7.200   5.813   2.591 -0.0808 -0.7437 -0.1039
  106SAPE   O1210833   7.062   5.613   2.605 -0.7417  0.2501 -0.8850
  106SAPE   O1110834   7.245   5.633   2.764  0.0626  0.0068  0.3675
  106SAPE    C110835   7.266   5.494   2.804 -0.4081 -0.2060 -0.5843
  106SAPE    HA10836   7.221   5.411   2.747  0.0007 -1.0939  0.3520
  106SAPE    HB10837   7.372   5.463   2.810 -0.6447 -0.9761 -0.3100
  106SAPE    C210838   7.208   5.472   2.953  0.0737  0.0455 -0.0023
  106SAPE    HS10839   7.104   5.510   2.959  0.7862  1.8961  1.4019
  106SAPE   O2110840   7.288   5.531   3.051  0.4725 -0.0855 -0.0386
  106SAPE   C2110841   7.253   5.654   3.089 -0.3558 -0.0701 -0.8670
  106SAPE   O2210842   7.157   5.718   3.051  0.0978  0.1295 -0.3147
  106SAPE   C2210843   7.362   5.700   3.183 -0.5621  0.4163  0.6696
  106SAPE   H2R10844   7.375   5.618   3.257 -1.5171 -1.6141 -1.2705
  106SAPE   H2S10845   7.452   5.709   3.118  0.0897 -1.1041  1.3135
  106SAPE    C310846   7.210   5.318   2.984  0.1922 -0.0761 -0.0118
  106SAPE    HX10847   7.313   5.275   2.989  0.1306 -0.2015  0.2183
  106SAPE    HY10848   7.159   5.265   2.901  2.5618 -0.8207 -1.1000
  106SAPE   O3110849   7.143   5.276   3.105  0.4227  0.5015 -0.4445
  106SAPE   C3110850   7.006   5.279   3.101 -0.6707 -0.4786  0.1655
  106SAPE   O3210851   6.944   5.316   3.003  0.8666 -0.2113 -0.3099
  106SAPE   C3210852   6.951   5.221   3.229  0.4486  0.2434  0.0749
  106SAPE   H2X10853   7.024   5.237   3.311  1.3532 -0.8172 -0.5080
  106SAPE   H2Y10854   6.939   5.110   3.220  0.1823  0.2976 -0.2803
  106SAPE   C2310855   7.330   5.833   3.250  0.2852  0.9256 -0.3925
  106SAPE   H3R10856   7.409   5.855   3.325 -1.1438 -1.5593  2.0324
  106SAPE   H3S10857   7.232   5.828   3.302  0.2957  2.0681 -0.2279
  106SAPE   C2410858   7.317   5.956   3.156 -0.2849 -0.2724  1.2345
  106SAPE   H4R10859   7.223   5.950   3.098  1.4511 -3.6281 -1.6544
  106SAPE   H4S10860   7.399   5.940   3.083 -0.4768 -0.4024  1.0499
  106SAPE   C2510861   7.339   6.095   3.212  0.2040 -0.3474  0.1006
  106SAPE   H5R10862   7.445   6.118   3.234  0.0438  1.3342 -0.6774
  106SAPE   C2610863   7.239   6.184   3.235 -1.1865  0.2765 -0.1306
  106SAPE   H6R10864   7.270   6.275   3.288  0.2424  1.1030 -2.2668
  106SAPE   C2710865   7.094   6.177   3.204 -0.4676 -0.4727 -0.2879
  106SAPE   H7R10866   7.050   6.116   3.286 -1.9322 -0.3481 -0.9497
  106SAPE   H7S10867   7.072   6.123   3.109 -0.5853 -1.3492  0.2238
  106SAPE   C2810868   7.033   6.313   3.188  0.0794  0.2657  0.9626
  106SAPE   H8R10869   7.084   6.376   3.114  0.7378  1.0510  2.0371
  106SAPE   C2910870   6.930   6.367   3.251  0.7658  0.0213 -0.3878
  106SAPE   H9R10871   6.884   6.464   3.229 -0.8964 -0.4562  0.7728
  106SAPE  C21010872   6.841   6.292   3.353 -0.3622  0.3299  0.8019
  106SAPE  H10R10873   6.785   6.360   3.420 -0.5545  0.2915  0.6797
  106SAPE  H10S10874   6.896   6.226   3.425 -0.3885  0.1332  0.6439
  106SAPE  C21110875   6.734   6.208   3.273 -0.3594 -0.1479  0.0435
  106SAPE  H11R10876   6.776   6.164   3.181 -0.0623  0.2457 -0.0092
  106SAPE  C21210877   6.600   6.196   3.309 -0.4440  0.2053  0.5827
  106SAPE  H12R10878   6.533   6.142   3.241 -1.5167  0.2529  1.5943
  106SAPE  C21310879   6.531   6.259   3.430 -0.0702  0.1544  0.1120
  106SAPE  H13R10880   6.440   6.313   3.395 -0.3632  0.3036  1.0831
  106SAPE  H13S10881   6.595   6.337   3.477 -0.5287 -0.1615  1.2984
  106SAPE  C21410882   6.481   6.153   3.528 -0.3554 -0.0052  0.4465
  106SAPE  H14R10883   6.499   6.049   3.498  2.7802  0.0622  1.7616
  106SAPE  C21510884   6.442   6.178   3.651 -0.4916  0.1643  0.3429
  106SAPE  H15R10885   6.413   6.095   3.717 -1.4511  0.3682  0.1814
  106SAPE  C21610886   6.427   6.312   3.721  0.1614  0.0976 -0.1397
  106SAPE  H16R10887   6.323   6.322   3.761  0.5342  0.5897  0.7312
  106SAPE  H16S10888   6.454   6.404   3.666 -2.9168  1.0737 -0.2287
  106SAPE  C21710889   6.513   6.314   3.854  0.2279  0.1950  0.1030
  106SAPE  H17R10890   6.620   6.308   3.823  0.2034 -0.0298  0.0571
  106SAPE  H17S10891   6.492   6.226   3.919 -0.3007  2.3677  3.0718
  106SAPE  C21810892   6.485   6.445   3.928  1.1482  0.3363  0.9323
  106SAPE  H18R10893   6.375   6.450   3.944  0.8668 -0.2469 -0.6826
  106SAPE  H18S10894   6.515   6.530   3.862 -0.7829  0.2031 -0.1796
  106SAPE  C21910895   6.563   6.455   4.060  0.0746  0.7197  0.2204
  106SAPE  H19R10896   6.553   6.556   4.105 -0.8624 -0.2690  2.3795
  106SAPE  H19S10897   6.668   6.427   4.035  0.2308 -0.4250  2.0168
  106SAPE  C22010898   6.509   6.354   4.159 -0.3225  0.0687 -0.2319
  106SAPE  H20R10899   6.533   6.250   4.131  0.6824  0.0923  0.5065
  106SAPE  H20S10900   6.401   6.377   4.176 -0.0166  1.0573  0.4685
  106SAPE  H20T10901   6.558   6.368   4.257  2.0056  1.4755 -1.5266
  106SAPE   C3310902   6.803   5.268   3.263 -0.7023  0.5017  0.4101
  106SAPE   H3X10903   6.741   5.229   3.179  0.2785 -0.2304  0.0099
  106SAPE   H3Y10904   6.805   5.379   3.255  1.5758  0.4326 -0.9853
  106SAPE   C3410905   6.742   5.229   3.400 -0.4736  0.2477  0.2121
  106SAPE   H4X10906   6.735   5.120   3.417 -0.2531  0.1293 -0.4147
  106SAPE   H4Y10907   6.637   5.265   3.410 -0.5371  0.1019  0.0837
  106SAPE   C3510908   6.827   5.285   3.515 -0.1389 -0.1253  0.8386
  106SAPE   H5X10909   6.854   5.389   3.488 -0.8710 -0.3000 -0.7265
  106SAPE   H5Y10910   6.922   5.229   3.506 -0.0685  0.1039  0.0676
  106SAPE   C3610911   6.765   5.265   3.655  0.0406 -0.2937 -0.4029
  106SAPE   H6X10912   6.857   5.282   3.715  0.3683 -2.1343 -0.3254
  106SAPE   H6Y10913   6.721   5.165   3.674 -1.3937  0.6580  1.6695
  106SAPE   C3710914   6.658   5.371   3.694 -0.8327  0.7183  0.1793
  106SAPE   H7X10915   6.568   5.373   3.629 -0.2465 -0.9775 -0.7524
  106SAPE   H7Y10916   6.711   5.464   3.664  0.4146 -0.3340 -0.9758
  106SAPE   C3810917   6.621   5.372   3.842  0.5201 -0.5973 -0.4356
  106SAPE   H8X10918   6.715   5.407   3.891  2.4077 -1.4508 -3.1669
  106SAPE   H8Y10919   6.609   5.268   3.881 -0.4604 -0.0073  0.8903
  106SAPE   C3910920   6.501   5.456   3.880  0.1857  0.3203 -0.4867
  106SAPE   H9X10921   6.507   5.452   3.991  3.8319 -1.7578 -0.5815
  106SAPE   H9Y10922   6.402   5.410   3.858 -1.1113  3.0102 -0.7517
  106SAPE  C31010923   6.512   5.606   3.844 -0.6389  0.8643 -0.7026
  106SAPE  H10X10924   6.470   5.611   3.742 -2.0544 -0.1875 -0.2126
  106SAPE  H10Y10925   6.619   5.632   3.858 -0.7695  0.4762  1.4343
  106SAPE  C31110926   6.439   5.685   3.952 -0.2993 -0.5901  0.3584
  106SAPE  H11X10927   6.504   5.680   4.042 -0.7006  2.5668  0.9416
  106SAPE  H11Y10928   6.346   5.629   3.976 -0.9113 -0.1417 -0.8677
  106SAPE  C31210929   6.408   5.824   3.896  0.0627 -0.7102 -0.3304
  106SAPE  H12X10930   6.352   5.802   3.804  1.0208  1.4725 -1.5147
  106SAPE  H12Y10931   6.505   5.876   3.875 -0.6782  1.1761  0.6658
  106SAPE  C31310932   6.324   5.915   3.985  0.2866 -0.0013 -0.7213
  106SAPE  H13X10933   6.216   5.889   3.986  0.5533 -1.1816 -0.8392
  106SAPE  H13Y10934   6.335   6.015   3.937  2.5100 -0.7707 -1.9622
  106SAPE  C31410935   6.369   5.930   4.141 -0.5848  0.3904  0.5646
  106SAPE  H14X10936   6.480   5.939   4.138 -0.5364  0.6118  2.2861
  106SAPE  H14Y10937   6.340   5.838   4.195 -0.0415  0.5448  1.1267
  106SAPE  C31510938   6.316   6.042   4.231 -0.4802  0.8551  0.3013
  106SAPE  H15X10939   6.365   6.134   4.192 -1.7888  1.5519  0.2424
  106SAPE  H15Y10940   6.351   6.021   4.334  1.5352  2.8944  0.1019
  106SAPE  C31610941   6.160   6.061   4.218 -0.1214 -0.2820 -0.6409
  106SAPE  H16X10942   6.117   5.963   4.246  1.8148 -1.4925 -1.7142
  106SAPE  H16Y10943   6.124   6.097   4.119 -3.1120 -0.0974  0.4176
  106SAPE  C31710944   6.106   6.164   4.320 -0.1086  0.0983  0.7946
  106SAPE  H17X10945   6.168   6.253   4.298 -0.2888 -0.5929 -3.2641
  106SAPE  H17Y10946   6.122   6.122   4.421 -0.3495  0.4388  0.9756
  106SAPE  C31810947   5.954   6.182   4.305  0.0814  0.4242 -0.2206
  106SAPE  H18X10948   5.910   6.258   4.374 -0.8877  0.4549 -0.8586
  106SAPE  H18Y10949   5.913   6.085   4.339  0.2406  0.9232  1.5150
  106SAPE  H18Z10950   5.915   6.205   4.204  0.9807  2.3886 -0.1680
  107SAPE     N10951   3.172   3.456   1.352  0.7742 -0.4177  0.1372
  107SAPE   HN110952   3.170   3.412   1.258  0.1772 -3.2544  1.3380
  107SAPE   HN210953   3.198   3.556   1.351  2.9773 -0.9529 -0.3412
  107SAPE   HN310954   3.236   3.400   1.412  1.2352  2.3006  2.4096
  107SAPE   C1210955   3.028   3.448   1.412 -0.6565  0.3453 -0.7845
  107SAPE  H12A10956   2.965   3.526   1.365 -3.2083  0.7649  2.9280
  107SAPE  H12B10957   3.039   3.478   1.519 -2.2948 -0.7751 -0.2550
  107SAPE   C1110958   2.970   3.306   1.414  0.5501 -0.1801  0.6472
  107SAPE  H11A10959   2.913   3.276   1.323  0.6293  0.9435  0.2195
  107SAPE  H11B10960   2.897   3.304   1.498  0.1119  3.4513  0.4789
  107SAPE     P10961   3.030   3.076   1.514  0.2325  0.1898  0.0854
  107SAPE   O1310962   2.902   3.029   1.458 -0.3002  0.5517 -0.0353
  107SAPE   O1410963   3.141   2.981   1.505 -0.0798 -0.3794 -0.1131
  107SAPE   O1210964   3.075   3.211   1.440 -0.0055 -0.3119 -0.2966
  107SAPE   O1110965   3.008   3.128   1.664 -0.1602 -0.1575 -0.3546
  107SAPE    C110966   2.997   3.022   1.755 -0.6564 -0.2175 -0.2876
  107SAPE    HA10967   2.917   2.949   1.729 -0.2688 -1.0969  0.9143
  107SAPE    HB10968   3.090   2.962   1.752  0.9179  2.0976 -0.5084
  107SAPE    C210969   2.974   3.078   1.897 -0.4287 -0.3358 -0.1795
  107SAPE    HS10970   3.071   3.127   1.919 -1.8603  3.9529 -2.3966
  107SAPE   O2110971   2.942   2.979   1.995 -0.3359 -0.1540 -0.3998
  107SAPE   C2110972   2.977   3.002   2.119 -0.1326  0.4133  0.4983
  107SAPE   O2210973   3.059   3.084   2.156 -0.1314 -0.0134 -0.2057
  107SAPE   C2210974   2.891   2.914   2.209  0.4402  0.3547  0.3166
  107SAPE   H2R10975   2.801   2.974   2.234  0.4377 -0.0194  1.2647
  107SAPE   H2S10976   2.859   2.815   2.168 -0.2158  0.9030 -0.5204
  107SAPE    C310977   2.874   3.198   1.899  0.3224 -0.5868 -0.8796
  107SAPE    HX10978   2.777   3.162   1.860 -1.1851  0.8873  1.2476
  107SAPE    HY10979   2.897   3.284   1.834  2.2336  0.5449  1.1323
  107SAPE   O3110980   2.853   3.254   2.032 -0.3679 -0.5116  0.7693
  107SAPE   C3110981   2.932   3.349   2.078 -0.6200 -0.2018  0.4304
  107SAPE   O3210982   3.034   3.387   2.024  0.3491 -0.1837 -0.2747
  107SAPE   C3210983   2.868   3.411   2.200 -0.2055 -0.3266  0.3598
  107SAPE   H2X10984   2.867   3.343   2.288 -0.8573 -0.2379  0.4244
  107SAPE   H2Y10985   2.763   3.425   2.167 -0.5220 -0.7801  1.1528
  107SAPE   C2310986   2.964   2.883   2.341  0.3854 -0.7580 -0.1968
  107SAPE   H3R10987   2.985   2.977   2.395  2.2854 -1.6730  0.7589
  107SAPE   H3S10988   3.066   2.844   2.323  0.6462  0.2891 -1.1121
  107SAPE   C2410989   2.886   2.796   2.447  0.1055  0.4781 -0.5335
  107SAPE   H4R10990   2.928   2.812   2.548  0.7960 -0.4908 -0.6498
  107SAPE   H4S10991   2.908   2.693   2.412  0.6679  0.3692  0.1333
  107SAPE   C2510992   2.733   2.799   2.448 -0.0931  0.3119  0.2815
  107SAPE   H5R10993   2.683   2.724   2.386 -0.3717 -0.8385  1.8391
  107SAPE   C2610994   2.656   2.889   2.504 -0.0177 -0.0915 -0.1601
  107SAPE   H6R10995   2.547   2.883   2.494 -0.3337  0.8917  2.0053
  107SAPE   C2710996   2.710   3.002   2.584  0.4885 -0.1152 -0.2036
  107SAPE   H7R10997   2.766   3.069   2.515 -0.1707 -0.5425 -1.1678
  107SAPE   H7S10998   2.786   2.961   2.654 -1.4740 -0.9861  1.5148
  107SAPE   C2810999   2.610   3.083   2.662 -0.0379 -0.1135 -0.1615
  107SAPE   H8R11000   2.591   3.172   2.599  2.6581 -0.4303 -1.5742
  107SAPE   C2911001   2.544   3.062   2.778 -0.3918  0.2422 -0.2435
  107SAPE   H9R11002   2.478   3.139   2.821  0.3188  0.5727  0.2784
  107SAPE  C21011003   2.558   2.941   2.854 -0.1722  0.6509 -0.1143
  107SAPE  H10R11004   2.629   2.947   2.940  0.5671  0.9804 -0.7440
  107SAPE  H10S11005   2.606   2.859   2.797  1.7222  1.0308  0.8613
  107SAPE  C21111006   2.424   2.901   2.903  0.6260 -0.7848 -0.5681
  107SAPE  H11R11007   2.361   2.875   2.817 -0.2044 -0.0626 -0.1882
  107SAPE  C21211008   2.379   2.881   3.028  0.0739  0.0208 -0.2705
  107SAPE  H12R11009   2.278   2.837   3.036 -0.9476  2.3932  0.6629
  107SAPE  C21311010   2.443   2.909   3.159 -0.4461 -0.0359  0.7803
  107SAPE  H13R11011   2.398   2.993   3.216  0.8493  1.9533 -0.9788
  107SAPE  H13S11012   2.549   2.938   3.147 -0.6715  1.9036  2.7677
  107SAPE  C21411013   2.449   2.778   3.241 -0.3928  0.0261  0.1950
  107SAPE  H14R11014   2.465   2.692   3.173 -0.1755  0.6546 -0.5650
  107SAPE  C21511015   2.465   2.765   3.373 -0.6781  0.6232  0.9914
  107SAPE  H15R11016   2.463   2.660   3.406 -1.5768  0.5654  0.7762
  107SAPE  C21611017   2.463   2.869   3.486  0.2301  0.6545  0.0103
  107SAPE  H16R11018   2.486   2.972   3.451 -3.6372  1.3270 -0.9844
  107SAPE  H16S11019   2.540   2.843   3.562 -1.1161  0.7450  1.4511
  107SAPE  C21711020   2.336   2.883   3.564 -0.3630  0.4280 -0.0978
  107SAPE  H17R11021   2.258   2.928   3.499 -1.5963  1.1632  1.8131
  107SAPE  H17S11022   2.365   2.955   3.644  1.7011  3.7344 -3.4455
  107SAPE  C21811023   2.288   2.751   3.630  0.0058  0.4082 -0.1272
  107SAPE  H18R11024   2.379   2.705   3.675  0.7280  0.2445 -1.6807
  107SAPE  H18S11025   2.259   2.677   3.553 -1.3807 -1.0359  1.6738
  107SAPE  C21911026   2.170   2.770   3.722  0.7662 -0.1336 -0.1946
  107SAPE  H19R11027   2.086   2.823   3.673 -0.6997 -2.0953  0.0914
  107SAPE  H19S11028   2.202   2.817   3.817 -0.9496  0.4958  0.1035
  107SAPE  C22011029   2.115   2.632   3.758  0.7148  0.2680 -0.0505
  107SAPE  H20R11030   2.036   2.647   3.834  1.2440  0.6841  0.4276
  107SAPE  H20S11031   2.188   2.557   3.793 -1.2309 -1.7454 -0.1126
  107SAPE  H20T11032   2.074   2.576   3.671  0.4489 -1.1925  0.9928
  107SAPE   C3311033   2.914   3.547   2.255  0.4309 -0.7350  0.4908
  107SAPE   H3X11034   2.903   3.615   2.167 -0.2529 -2.7148 -1.0293
  107SAPE   H3Y11035   3.021   3.536   2.285  0.5801 -0.1255  0.1946
  107SAPE   C3411036   2.838   3.605   2.375  0.2590 -0.0769  0.1623
  107SAPE   H4X11037   2.732   3.607   2.340 -0.4059  0.3352  2.0658
  107SAPE   H4Y11038   2.871   3.705   2.411 -0.3634 -0.1818  1.0640
  107SAPE   C3511039   2.843   3.514   2.504 -0.0681 -0.0980 -0.1181
  107SAPE   H5X11040   2.948   3.532   2.534  0.3474  1.2429 -2.1150
  107SAPE   H5Y11041   2.827   3.407   2.478 -0.4523 -0.1876  0.4835
  107SAPE   C3611042   2.741   3.563   2.607  0.6999  0.2968  0.4269
  107SAPE   H6X11043   2.636   3.559   2.571  1.1537 -1.3300 -0.8233
  107SAPE   H6Y11044   2.761   3.671   2.623  0.2618  0.4772 -0.1880
  107SAPE   C3711045   2.751   3.501   2.751 -0.0116  0.6154 -0.1953
  107SAPE   H7X11046   2.841   3.539   2.803 -0.4320 -0.5876  1.4879
  107SAPE   H7Y11047   2.753   3.390   2.748  0.5547  0.5885  0.8090
  107SAPE   C3811048   2.640   3.543   2.846 -0.5613  0.0641  0.1518
  107SAPE   H8X11049   2.546   3.523   2.790 -0.3754  2.2743 -1.0535
  107SAPE   H8Y11050   2.632   3.652   2.861  0.7830  0.4072 -1.2743
  107SAPE   C3911051   2.649   3.472   2.984  0.9641  0.0235  0.3904
  107SAPE   H9X11052   2.747   3.496   3.032  1.2709  0.8750 -0.6133
  107SAPE   H9Y11053   2.649   3.363   2.962  2.4873 -0.1918  1.2613
  107SAPE  C31011054   2.533   3.509   3.088 -0.8987  0.3142  0.0525
  107SAPE  H10X11055   2.486   3.414   3.122 -3.3332  1.7740  1.0758
  107SAPE  H10Y11056   2.455   3.576   3.044  0.0436  0.7112 -1.0625
  107SAPE  C31111057   2.593   3.577   3.210 -0.6240  0.2448 -0.9789
  107SAPE  H11X11058   2.662   3.659   3.182 -0.5925  0.7612  0.5574
  107SAPE  H11Y11059   2.652   3.500   3.265 -2.4546 -1.7559 -1.6540
  107SAPE  C31211060   2.476   3.627   3.295 -0.4034  0.8608 -0.0403
  107SAPE  H12X11061   2.412   3.544   3.333 -0.6202  1.2301  0.4030
  107SAPE  H12Y11062   2.416   3.696   3.232  0.5369  0.0910 -1.8409
  107SAPE  C31311063   2.526   3.711   3.418  0.4054  0.5622 -0.0936
  107SAPE  H13X11064   2.579   3.800   3.377 -1.3980  2.0138  0.5977
  107SAPE  H13Y11065   2.597   3.646   3.473  0.9819  0.6762 -0.6825
  107SAPE  C31411066   2.420   3.748   3.521 -0.0100  0.3102 -0.5979
  107SAPE  H14X11067   2.394   3.649   3.566  2.0568 -1.0026 -2.0898
  107SAPE  H14Y11068   2.335   3.807   3.482 -0.1993  0.0961 -0.5150
  107SAPE  C31511069   2.464   3.841   3.638  0.1104  0.1322  0.5778
  107SAPE  H15X11070   2.382   3.909   3.672  0.5857  0.4072  1.1969
  107SAPE  H15Y11071   2.539   3.912   3.598  0.5178 -0.5473  0.1241
  107SAPE  C31611072   2.502   3.764   3.763 -0.3007 -0.4484 -0.5786
  107SAPE  H16X11073   2.541   3.831   3.843 -0.1184  0.0271 -1.0603
  107SAPE  H16Y11074   2.577   3.690   3.731 -1.1686 -0.4040 -2.8928
  107SAPE  C31711075   2.378   3.699   3.833  0.4456  0.3357 -0.4585
  107SAPE  H17X11076   2.338   3.616   3.770  0.3579 -1.4794  1.8622
  107SAPE  H17Y11077   2.294   3.771   3.843  1.6406  1.6554  0.4320
  107SAPE  C31811078   2.404   3.637   3.969 -0.0079  1.2596 -0.0170
  107SAPE  H18X11079   2.319   3.567   3.986  0.1814  1.0744  0.1717
  107SAPE  H18Y11080   2.397   3.716   4.047 -2.0053  1.6462 -0.5250
  107SAPE  H18Z11081   2.500   3.583   3.983 -2.1841 -2.8015  0.9594
  108SAPE     N11082   5.548   5.315   2.293  0.5303 -0.7736  0.3242
  108SAPE   HN111083   5.521   5.224   2.336  1.7337 -1.6771 -0.7462
  108SAPE   HN211084   5.471   5.359   2.238  1.9649  0.0972 -1.0826
  108SAPE   HN311085   5.626   5.296   2.227  1.0890  1.7621  0.1392
  108SAPE   C1211086   5.613   5.408   2.396 -0.5978 -0.2137 -0.1060
  108SAPE  H12A11087   5.550   5.429   2.485  0.8351  3.8771  0.1874
  108SAPE  H12B11088   5.625   5.510   2.353  1.9453  0.2847  1.5712
  108SAPE   C1111089   5.749   5.346   2.426 -0.3425  0.3385 -0.3753
  108SAPE  H11A11090   5.735   5.266   2.501 -1.0206  0.7606 -0.0384
  108SAPE  H11B11091   5.788   5.429   2.488 -1.5874  0.9385 -0.3525
  108SAPE     P11092   5.971   5.346   2.283  0.2656  0.3463 -0.1944
  108SAPE   O1311093   6.071   5.248   2.327 -0.0981  0.1201  0.5804
  108SAPE   O1411094   5.969   5.380   2.139  0.0268 -0.2217 -0.0941
  108SAPE   O1211095   5.828   5.298   2.324  0.1845  0.0701  0.2546
  108SAPE   O1111096   5.987   5.485   2.357 -0.0575 -0.3673 -0.2338
  108SAPE    C111097   6.108   5.545   2.391 -0.1042  0.3496  0.5682
  108SAPE    HA11098   6.192   5.510   2.327  1.1342  0.3799  2.1118
  108SAPE    HB11099   6.103   5.656   2.380 -1.4906  0.2865  0.3229
  108SAPE    C211100   6.144   5.523   2.543  0.2024 -0.1033 -0.8886
  108SAPE    HS11101   6.165   5.414   2.551  2.3334  0.2253 -1.3722
  108SAPE   O2111102   6.038   5.565   2.630  0.3161 -0.6156 -0.6065
  108SAPE   C2111103   6.006   5.481   2.726  0.2496  0.0000  0.0117
  108SAPE   O2211104   6.056   5.371   2.735 -0.0249  0.1297  0.3211
  108SAPE   C2211105   5.906   5.536   2.830 -0.4308 -0.4398  0.0221
  108SAPE   H2R11106   5.894   5.642   2.799 -0.4132 -0.7785 -1.2035
  108SAPE   H2S11107   5.808   5.484   2.821 -1.4908  0.7024  3.3507
  108SAPE    C311108   6.283   5.582   2.578 -0.0797  0.2029 -0.8571
  108SAPE    HX11109   6.277   5.693   2.565  0.1799  0.0760 -2.1607
  108SAPE    HY11110   6.376   5.551   2.527 -0.2672 -0.7376 -0.6364
  108SAPE   O3111111   6.303   5.556   2.725 -0.9445 -0.2074  0.0193
  108SAPE   C3111112   6.363   5.449   2.759 -0.2132  0.1121 -0.5783
  108SAPE   O3211113   6.414   5.362   2.689 -0.4994  0.3568  0.2614
  108SAPE   C3211114   6.371   5.440   2.913 -0.0038  0.0139  0.1779
  108SAPE   H2X11115   6.300   5.513   2.958 -0.3305  0.1697 -0.5794
  108SAPE   H2Y11116   6.471   5.479   2.944 -0.2736  0.2577  0.7763
  108SAPE   C2311117   5.967   5.529   2.968 -0.3033  0.5303 -0.9408
  108SAPE   H3R11118   6.065   5.579   2.956 -0.1346  0.1861 -1.0245
  108SAPE   H3S11119   5.981   5.426   3.006 -1.4940  0.7303  0.1153
  108SAPE   C2411120   5.876   5.593   3.075 -1.8220 -0.2503 -0.5055
  108SAPE   H4R11121   5.772   5.553   3.075 -2.0496 -0.2725  4.2778
  108SAPE   H4S11122   5.879   5.703   3.058  0.2676 -0.2472 -0.3776
  108SAPE   C2511123   5.929   5.573   3.222  0.4921 -0.3734 -0.2298
  108SAPE   H5R11124   6.037   5.558   3.231  0.6242  0.7627  0.3374
  108SAPE   C2611125   5.852   5.605   3.328  0.2793 -0.3975 -0.3950
  108SAPE   H6R11126   5.897   5.593   3.428  0.6360 -1.2462 -0.6455
  108SAPE   C2711127   5.710   5.655   3.327 -0.1690  0.4181  0.8164
  108SAPE   H7R11128   5.694   5.699   3.227  0.4080 -1.5633 -0.2058
  108SAPE   H7S11129   5.708   5.738   3.400  0.9230  0.5325  0.7401
  108SAPE   C2811130   5.610   5.540   3.353 -0.0142  0.6301 -0.1360
  108SAPE   H8R11131   5.574   5.483   3.266 -0.3085 -0.4739  0.6898
  108SAPE   C2911132   5.556   5.514   3.475  0.2025 -0.6250  0.1972
  108SAPE   H9R11133   5.499   5.420   3.483  2.6899 -2.0425  2.4471
  108SAPE  C21011134   5.590   5.588   3.595 -0.2609  0.1781 -0.3383
  108SAPE  H10R11135   5.526   5.678   3.602 -0.5993 -0.1242  0.5472
  108SAPE  H10S11136   5.694   5.627   3.587  1.0454 -3.0689 -1.1496
  108SAPE  C21111137   5.590   5.503   3.720  0.1506 -0.5070 -0.2284
  108SAPE  H11R11138   5.641   5.409   3.695  2.5064  0.6412  0.0543
  108SAPE  C21211139   5.553   5.533   3.846  0.6850  0.0541 -0.3863
  108SAPE  H12R11140   5.538   5.444   3.908 -0.3019 -1.4619 -2.6780
  108SAPE  C21311141   5.504   5.665   3.905  0.2428  0.2489 -0.2838
  108SAPE  H13R11142   5.515   5.664   4.015  2.6323 -0.1790 -0.4884
  108SAPE  H13S11143   5.399   5.687   3.875 -0.2620 -3.0236 -1.2728
  108SAPE  C21411144   5.592   5.783   3.862 -0.7766  0.1601  0.1219
  108SAPE  H14R11145   5.630   5.773   3.759  1.9718 -2.9640  1.2788
  108SAPE  C21511146   5.631   5.891   3.931 -0.3527 -0.5680 -0.6299
  108SAPE  H15R11147   5.709   5.954   3.886 -0.3583 -0.0660  0.0324
  108SAPE  C21611148   5.598   5.936   4.073  0.0218 -0.1971  0.4099
  108SAPE  H16R11149   5.519   5.872   4.118 -0.9341 -0.0959 -1.0574
  108SAPE  H16S11150   5.547   6.034   4.057  0.7100  0.0621 -0.2661
  108SAPE  C21711151   5.724   5.956   4.165  0.6348 -0.7369 -0.0768
  108SAPE  H17R11152   5.692   6.015   4.253  0.5549 -1.1601  0.1808
  108SAPE  H17S11153   5.802   6.021   4.119 -0.7715 -0.4590 -2.1861
  108SAPE  C21811154   5.786   5.825   4.208  0.0475 -0.2208 -1.1804
  108SAPE  H18R11155   5.881   5.838   4.264 -1.1562 -0.0967  0.9272
  108SAPE  H18S11156   5.804   5.765   4.116 -1.3448  2.5937 -3.4191
  108SAPE  C21911157   5.702   5.734   4.304 -0.4605 -0.3020  0.6739
  108SAPE  H19R11158   5.752   5.635   4.291 -1.8319 -0.9444  0.0973
  108SAPE  H19S11159   5.595   5.725   4.279 -0.6292  0.7069  0.9763
  108SAPE  C22011160   5.714   5.782   4.454 -0.2077  0.1912  0.4459
  108SAPE  H20R11161   5.690   5.692   4.515 -2.3910  0.5667  0.2319
  108SAPE  H20S11162   5.643   5.864   4.481 -2.4780 -1.5320  0.0715
  108SAPE  H20T11163   5.813   5.829   4.473  0.4361 -0.7641 -0.4393
  108SAPE   C3311164   6.362   5.292   2.967  0.2164  0.0357  0.4714
  108SAPE   H3X11165   6.443   5.224   2.932 -1.2781 -1.1664 -0.7766
  108SAPE   H3Y11166   6.271   5.251   2.918  0.5634 -0.2782  0.0856
  108SAPE   C3411167   6.353   5.279   3.125 -0.8416 -0.2462  0.0714
  108SAPE   H4X11168   6.446   5.320   3.171 -0.2020 -2.4071  0.8787
  108SAPE   H4Y11169   6.347   5.170   3.147 -0.5761 -0.2153  0.3015
  108SAPE   C3511170   6.231   5.341   3.183  0.1881 -0.2288  0.3202
  108SAPE   H5X11171   6.213   5.446   3.153 -0.9928  0.1376  2.1412
  108SAPE   H5Y11172   6.148   5.277   3.147  0.3681  0.5074 -1.5194
  108SAPE   C3611173   6.219   5.330   3.340  0.5906  0.3621 -0.2779
  108SAPE   H6X11174   6.243   5.228   3.376 -0.1241  0.3772  0.2545
  108SAPE   H6Y11175   6.112   5.353   3.357 -0.0254 -1.7031 -1.0782
  108SAPE   C3711176   6.313   5.422   3.422  0.4587  0.6555 -0.5125
  108SAPE   H7X11177   6.302   5.519   3.368  0.2186 -0.3919 -2.4514
  108SAPE   H7Y11178   6.422   5.406   3.405  0.8294  2.3574  0.0560
  108SAPE   C3811179   6.275   5.420   3.575  0.3388 -0.1039  0.3922
  108SAPE   H8X11180   6.337   5.493   3.632  0.4735 -0.7672  1.1227
  108SAPE   H8Y11181   6.301   5.322   3.622  1.1471 -1.0039 -1.8096
  108SAPE   C3911182   6.131   5.455   3.619  0.6039  0.4693  0.6081
  108SAPE   H9X11183   6.065   5.379   3.572  2.3767 -1.4357  1.0208
  108SAPE   H9Y11184   6.107   5.556   3.578 -1.0662 -0.9333 -2.1775
  108SAPE  C31011185   6.101   5.464   3.772  0.1025  0.8612 -0.1414
  108SAPE  H10X11186   6.185   5.521   3.816  0.6765 -0.5216  0.6029
  108SAPE  H10Y11187   6.108   5.357   3.799 -0.1626  0.8013 -0.3007
  108SAPE  C31111188   5.967   5.520   3.806  0.4239  0.7301 -0.8650
  108SAPE  H11X11189   5.884   5.460   3.763  1.4296 -2.5129  1.3834
  108SAPE  H11Y11190   5.953   5.620   3.760 -0.0896  0.8067 -0.5504
  108SAPE  C31211191   5.958   5.538   3.964  0.4727 -0.0530 -0.3567
  108SAPE  H12X11192   5.851   5.545   3.993 -0.1346  1.5991 -2.7035
  108SAPE  H12Y11193   6.002   5.638   3.982  0.5870 -0.1190 -0.2676
  108SAPE  C31311194   6.029   5.429   4.048 -0.5282 -0.0784  0.2507
  108SAPE  H13X11195   6.137   5.414   4.023 -0.8830 -2.0186 -0.3299
  108SAPE  H13Y11196   5.981   5.334   4.015  1.6346 -0.9013 -0.7565
  108SAPE  C31411197   6.011   5.446   4.198  0.2885  0.4214  0.1685
  108SAPE  H14X11198   6.002   5.349   4.251 -1.1609  1.2200  1.4882
  108SAPE  H14Y11199   5.920   5.504   4.225 -1.1923 -2.0272  0.7604
  108SAPE  C31511200   6.119   5.523   4.262 -0.7570 -0.4643  0.5745
  108SAPE  H15X11201   6.121   5.618   4.205 -1.6921 -0.9630 -0.3235
  108SAPE  H15Y11202   6.214   5.468   4.245 -0.3027  0.2156  0.9173
  108SAPE  C31611203   6.114   5.538   4.424 -0.4041  0.3199  0.0930
  108SAPE  H16X11204   6.015   5.585   4.441 -1.0781 -1.4457  1.4326
  108SAPE  H16Y11205   6.195   5.612   4.438 -1.5854  1.6465  0.1429
  108SAPE  C31711206   6.151   5.409   4.506  0.1889 -0.5054 -0.3889
  108SAPE  H17X11207   6.245   5.369   4.462  0.9374 -0.1493  0.8453
  108SAPE  H17Y11208   6.067   5.339   4.489 -0.2667  0.1382 -0.8407
  108SAPE  C31811209   6.165   5.430   4.659 -0.4160 -0.4615 -0.6790
  108SAPE  H18X11210   6.098   5.514   4.687 -0.2567 -1.1650  2.2073
  108SAPE  H18Y11211   6.271   5.456   4.680 -0.9131  0.6188  0.6991
  108SAPE  H18Z11212   6.132   5.334   4.705 -0.6350 -0.3976 -0.7018
  109SAPE     N11213   5.438   3.364   2.287 -0.1080  0.2183  0.2100
  109SAPE   HN111214   5.466   3.324   2.195  0.8055  0.6372  0.2961
  109SAPE   HN211215   5.420   3.297   2.365 -0.0219 -1.2014 -0.9502
  109SAPE   HN311216   5.340   3.392   2.271 -0.1315  0.6329  1.0267
  109SAPE   C1211217   5.535   3.476   2.322  0.0960 -0.3942 -1.4946
  109SAPE  H12A11218   5.490   3.523   2.412  0.6140 -2.2874 -0.2088
  109SAPE  H12B11219   5.540   3.551   2.239 -0.2445 -2.4812 -3.4901
  109SAPE   C1111220   5.677   3.430   2.371  0.4451  0.5192 -0.3373
  109SAPE  H11A11221   5.667   3.370   2.464  0.9424  3.5108  1.7676
  109SAPE  H11B11222   5.719   3.528   2.401 -1.1560  1.2174 -0.2413
  109SAPE     P11223   5.832   3.456   2.166 -0.0563 -0.1874  0.4643
  109SAPE   O1311224   5.871   3.369   2.055 -0.6507  0.0689  0.0609
  109SAPE   O1411225   5.761   3.578   2.139  0.3522 -0.8205  0.1575
  109SAPE   O1211226   5.746   3.365   2.260 -0.4908 -0.5865 -0.0238
  109SAPE   O1111227   5.955   3.494   2.257  0.0960  0.7052 -0.4036
  109SAPE    C111228   6.046   3.391   2.300 -0.0096 -0.2304  0.8712
  109SAPE    HA11229   6.048   3.308   2.226  0.3040 -1.6825  2.4474
  109SAPE    HB11230   6.149   3.431   2.297 -0.0529 -0.0875 -2.4022
  109SAPE    C211231   6.009   3.323   2.441  0.4500 -0.3790 -0.1398
  109SAPE    HS11232   5.923   3.252   2.442  0.5344 -0.5081 -1.1697
  109SAPE   O2111233   6.009   3.426   2.533 -0.5496 -0.2311  0.5311
  109SAPE   C2111234   5.926   3.406   2.641 -0.0823  0.1882  0.1092
  109SAPE   O2211235   5.845   3.319   2.650 -0.3462 -0.1157  0.3753
  109SAPE   C2211236   5.966   3.511   2.741  0.8770 -0.2138 -0.2579
  109SAPE   H2R11237   5.997   3.607   2.695  1.1796  1.0129  2.2871
  109SAPE   H2S11238   5.882   3.557   2.799 -0.2439 -0.8894 -1.2975
  109SAPE    C311239   6.119   3.237   2.480 -0.6872  0.5986  0.4807
  109SAPE    HX11240   6.206   3.307   2.483 -0.3087  0.1278  0.7243
  109SAPE    HY11241   6.139   3.148   2.416  1.0293 -0.4960  2.4091
  109SAPE   O3111242   6.113   3.176   2.612  0.3586 -0.1067 -0.3983
  109SAPE   C3111243   6.227   3.120   2.653 -0.1869  0.9394 -0.1019
  109SAPE   O3211244   6.312   3.080   2.577 -1.0127 -0.4289 -0.0174
  109SAPE   C3211245   6.230   3.109   2.804 -0.1215  0.7922 -0.1003
  109SAPE   H2X11246   6.123   3.098   2.830 -0.5536 -2.3089 -2.6124
  109SAPE   H2Y11247   6.272   3.201   2.851  1.3601 -0.9943  2.3423
  109SAPE   C2311248   6.066   3.460   2.845  0.7895 -0.0759  0.4617
  109SAPE   H3R11249   6.159   3.423   2.796 -1.1227 -3.1609 -1.1479
  109SAPE   H3S11250   6.018   3.380   2.904 -0.0377  0.8887  1.1236
  109SAPE   C2411251   6.102   3.580   2.941  0.6886 -1.0975 -0.7630
  109SAPE   H4R11252   6.011   3.596   3.003  0.3311 -3.3289 -0.6064
  109SAPE   H4S11253   6.118   3.673   2.883  1.4499  0.0607  1.2043
  109SAPE   C2511254   6.232   3.547   3.016  0.0515  0.3754 -0.1041
  109SAPE   H5R11255   6.314   3.602   2.968  1.8858 -1.3683  0.9264
  109SAPE   C2611256   6.254   3.490   3.138  0.1318  0.7345  0.5383
  109SAPE   H6R11257   6.355   3.480   3.180  0.0405 -1.3746  0.3653
  109SAPE   C2711258   6.149   3.413   3.220 -0.3107  0.0868  0.3747
  109SAPE   H7R11259   6.180   3.308   3.242 -1.3633 -0.9368 -2.5137
  109SAPE   H7S11260   6.055   3.395   3.164  0.1502  1.5795 -0.9689
  109SAPE   C2811261   6.112   3.486   3.348  0.2881 -0.2905 -0.3706
  109SAPE   H8R11262   6.052   3.577   3.329  1.4396  1.0384  1.8811
  109SAPE   C2911263   6.138   3.449   3.476  0.1295 -0.3547  0.3413
  109SAPE   H9R11264   6.102   3.510   3.560  0.0732 -0.4327  0.3737
  109SAPE  C21011265   6.191   3.321   3.528  0.1318  0.8234  0.4205
  109SAPE  H10R11266   6.279   3.294   3.466 -1.4181  1.5461 -2.2974
  109SAPE  H10S11267   6.120   3.238   3.506  1.6705  0.0156 -1.9059
  109SAPE  C21111268   6.230   3.310   3.678 -0.0610 -0.4327  0.0290
  109SAPE  H11R11269   6.338   3.305   3.699 -0.0203  0.2753  0.0321
  109SAPE  C21211270   6.136   3.317   3.778  0.4199 -0.0635 -0.0050
  109SAPE  H12R11271   6.181   3.310   3.878  3.7324  0.4815 -1.3324
  109SAPE  C21311272   5.983   3.319   3.769  0.1213 -0.4873 -0.2731
  109SAPE  H13R11273   5.941   3.325   3.667 -0.2238  0.0173 -0.1055
  109SAPE  H13S11274   5.944   3.413   3.813 -1.8999 -0.8535 -1.1832
  109SAPE  C21411275   5.911   3.211   3.841 -0.2629  0.0277 -0.5291
  109SAPE  H14R11276   5.907   3.120   3.779  2.3551 -0.8206  0.4081
  109SAPE  C21511277   5.855   3.213   3.968  0.4050  0.2512 -0.1393
  109SAPE  H15R11278   5.790   3.131   4.001 -0.1283  0.5046 -0.5560
  109SAPE  C21611279   5.869   3.329   4.064  0.4678 -0.3516  0.6616
  109SAPE  H16R11280   5.779   3.336   4.129 -0.4352 -0.1608 -0.5519
  109SAPE  H16S11281   5.889   3.430   4.021 -0.7411  0.0943  1.0825
  109SAPE  C21711282   5.991   3.314   4.159  0.1631 -0.1822  0.2935
  109SAPE  H17R11283   6.088   3.311   4.105  1.3097 -2.5615  2.2921
  109SAPE  H17S11284   5.976   3.209   4.191 -2.5113 -0.3516 -1.2345
  109SAPE  C21811285   5.978   3.395   4.284  0.3196 -0.3080  0.2221
  109SAPE  H18R11286   6.052   3.368   4.363 -0.9977  0.9524  1.9611
  109SAPE  H18S11287   5.882   3.376   4.335  1.8686 -0.4420  3.3012
  109SAPE  C21911288   5.992   3.539   4.259 -0.3490 -0.4177  0.3380
  109SAPE  H19R11289   5.903   3.572   4.201 -1.0101  0.2366  1.6813
  109SAPE  H19S11290   6.081   3.571   4.201 -0.7712  0.6608  0.2627
  109SAPE  C22011291   5.991   3.627   4.388 -0.0297 -0.0171 -0.3013
  109SAPE  H20R11292   5.893   3.617   4.439  0.4261  1.7249  1.0074
  109SAPE  H20S11293   6.003   3.735   4.365 -1.0851  0.5117  1.4406
  109SAPE  H20T11294   6.076   3.590   4.448 -0.5328  0.3153  0.6348
  109SAPE   C3311295   6.312   2.985   2.861  0.2074  0.0273  0.6363
  109SAPE   H3X11296   6.417   2.996   2.825  0.4459  0.2527  1.3861
  109SAPE   H3Y11297   6.275   2.891   2.814  0.9784  0.3766 -0.7392
  109SAPE   C3411298   6.299   2.975   3.014  0.2379 -0.2917  0.1271
  109SAPE   H4X11299   6.355   3.056   3.064  0.1644 -0.0367 -0.1953
  109SAPE   H4Y11300   6.326   2.874   3.051  1.9255  0.6197  1.5258
  109SAPE   C3511301   6.153   3.001   3.077  0.5179  0.0998  0.4491
  109SAPE   H5X11302   6.081   2.956   3.006  3.0032 -2.0053 -0.9348
  109SAPE   H5Y11303   6.132   3.109   3.088  1.9393  0.7827 -2.4540
  109SAPE   C3611304   6.131   2.932   3.212 -0.0668 -0.4693 -0.5797
  109SAPE   H6X11305   6.039   2.971   3.262 -0.5727 -4.9786  2.6352
  109SAPE   H6Y11306   6.214   2.960   3.280 -1.0471 -0.6336  0.7373
  109SAPE   C3711307   6.109   2.781   3.222 -0.0310  0.0483 -0.1430
  109SAPE   H7X11308   6.200   2.730   3.183  0.3528 -0.6187  1.5168
  109SAPE   H7Y11309   6.024   2.755   3.155 -0.2026  1.6269 -0.5621
  109SAPE   C3811310   6.072   2.743   3.370  0.0417 -0.4566  0.1679
  109SAPE   H8X11311   6.065   2.633   3.384  0.5278 -0.8372 -2.2514
  109SAPE   H8Y11312   5.980   2.794   3.405  0.1052 -0.4788  0.3686
  109SAPE   C3911313   6.178   2.775   3.481  0.1204  0.6055 -0.2435
  109SAPE   H9X11314   6.200   2.884   3.492 -0.4420  0.7754 -0.7776
  109SAPE   H9Y11315   6.275   2.728   3.453  0.0530 -0.0214  0.5218
  109SAPE  C31011316   6.142   2.705   3.618 -0.1362 -0.0895 -0.2331
  109SAPE  H10X11317   6.227   2.705   3.689  0.9167  1.6612 -1.4053
  109SAPE  H10Y11318   6.093   2.608   3.595  0.4362 -0.3474 -0.3785
  109SAPE  C31111319   6.023   2.788   3.680  0.2757  0.3633  0.0115
  109SAPE  H11X11320   5.942   2.769   3.606  0.2693  1.4338 -0.2730
  109SAPE  H11Y11321   6.056   2.894   3.684  0.4736  0.2703  1.1263
  109SAPE  C31211322   5.987   2.736   3.823  0.1573  0.2389  0.6997
  109SAPE  H12X11323   5.895   2.791   3.855  1.6479  4.2314 -1.2747
  109SAPE  H12Y11324   6.072   2.751   3.893  1.0213 -2.1548  0.2381
  109SAPE  C31311325   5.955   2.587   3.820 -0.0075  0.3061  0.2764
  109SAPE  H13X11326   6.042   2.526   3.790  1.2683  1.4302  1.5544
  109SAPE  H13Y11327   5.879   2.557   3.745 -0.1966  0.5424  0.3731
  109SAPE  C31411328   5.910   2.532   3.960 -0.7530  0.1150  0.9509
  109SAPE  H14X11329   5.811   2.568   3.994 -1.1009 -0.2691  0.3505
  109SAPE  H14Y11330   5.988   2.583   4.021 -0.2780  1.7847 -0.9259
  109SAPE  C31511331   5.918   2.377   3.980 -0.5934  0.5080  0.4973
  109SAPE  H15X11332   6.019   2.338   3.954 -0.5032  1.9486 -1.5890
  109SAPE  H15Y11333   5.844   2.336   3.908 -0.5002 -1.1959  1.3293
  109SAPE  C31611334   5.889   2.335   4.118  0.1848 -0.2800 -0.2715
  109SAPE  H16X11335   5.784   2.357   4.148  0.4889 -0.5908  1.0712
  109SAPE  H16Y11336   5.964   2.374   4.190  0.8718 -0.3691 -0.9330
  109SAPE  C31711337   5.900   2.184   4.117 -0.0807  1.0356 -0.5274
  109SAPE  H17X11338   5.999   2.142   4.090  0.1791 -0.5837  2.5709
  109SAPE  H17Y11339   5.842   2.142   4.032  0.7803 -1.4030  0.0191
  109SAPE  C31811340   5.857   2.117   4.250 -0.0754 -0.1447  0.2244
  109SAPE  H18X11341   5.854   2.006   4.252  2.1059 -0.3689 -2.8036
  109SAPE  H18Y11342   5.758   2.156   4.283 -0.3183  0.2915 -0.9931
  109SAPE  H18Z11343   5.933   2.143   4.327 -0.0239 -0.4551  0.2788
  110SAPE     N11344   3.605   4.624   2.106  0.3003 -0.0572  0.0846
  110SAPE   HN111345   3.650   4.544   2.155 -0.6114  0.6536  2.2144
  110SAPE   HN211346   3.683   4.688   2.084 -0.1207  0.4299 -0.0149
  110SAPE   HN311347   3.549   4.672   2.180 -0.1016  0.4626 -0.5419
  110SAPE   C1211348   3.537   4.587   1.974  0.2654  0.4172 -0.0653
  110SAPE  H12A11349   3.507   4.480   1.978 -2.0820  1.0300  0.6664
  110SAPE  H12B11350   3.605   4.615   1.891 -0.7850  2.3254 -0.3471
  110SAPE   C1111351   3.407   4.667   1.958 -0.8703 -0.2189  0.1650
  110SAPE  H11A11352   3.341   4.621   1.882  0.0684 -3.1141  0.9598
  110SAPE  H11B11353   3.445   4.759   1.910  1.7558  0.4108  3.1301
  110SAPE     P11354   3.254   4.573   2.146  0.1203  0.1761 -0.5747
  110SAPE   O1311355   3.109   4.584   2.116 -0.5449 -0.5107 -0.1696
  110SAPE   O1411356   3.316   4.443   2.111  0.5572  0.2234 -0.2933
  110SAPE   O1211357   3.336   4.689   2.077 -0.4789 -0.2567  0.4306
  110SAPE   O1111358   3.284   4.607   2.295  0.0261  0.4294 -0.3164
  110SAPE    C111359   3.202   4.695   2.377 -0.6118  0.4202 -0.2817
  110SAPE    HA11360   3.114   4.729   2.318 -1.4694 -1.4653 -0.1507
  110SAPE    HB11361   3.175   4.646   2.472  1.0221  0.7602  0.3918
  110SAPE    C211362   3.284   4.825   2.407  0.7215 -0.1089 -0.3445
  110SAPE    HS11363   3.326   4.871   2.314  1.2669 -0.4349 -0.2669
  110SAPE   O2111364   3.382   4.792   2.503  0.5343  0.2403  0.5394
  110SAPE   C2111365   3.505   4.749   2.455  0.4303 -0.3903 -0.2464
  110SAPE   O2211366   3.535   4.740   2.340  0.3345  0.5199  0.9386
  110SAPE   C2211367   3.584   4.683   2.571  0.1955 -0.3880 -0.0005
  110SAPE   H2R11368   3.565   4.745   2.661 -1.1205 -2.8656  1.5150
  110SAPE   H2S11369   3.537   4.583   2.578  2.1003 -1.2844  0.3709
  110SAPE    C311370   3.188   4.925   2.474 -0.3110 -0.5278 -0.8163
  110SAPE    HX11371   3.098   4.940   2.411 -0.4381  0.4239 -0.4268
  110SAPE    HY11372   3.157   4.886   2.574 -0.2471 -1.9612 -1.3369
  110SAPE   O3111373   3.262   5.047   2.485 -0.2200  0.3474 -0.2723
  110SAPE   C3111374   3.187   5.154   2.507  0.1494  0.1221  0.2854
  110SAPE   O3211375   3.074   5.148   2.549 -0.5813 -0.1236 -0.6542
  110SAPE   C3211376   3.273   5.271   2.484  0.4370  0.8266  0.2653
  110SAPE   H2X11377   3.300   5.278   2.376  2.4339  0.6800  0.7161
  110SAPE   H2Y11378   3.368   5.256   2.539  0.9249 -2.8213 -1.2699
  110SAPE   C2311379   3.732   4.673   2.553  0.4279 -0.3890 -0.0427
  110SAPE   H3R11380   3.750   4.625   2.455 -0.0969 -0.3800 -0.1496
  110SAPE   H3S11381   3.765   4.600   2.630 -0.7973 -0.7077  0.2075
  110SAPE   C2411382   3.806   4.807   2.573 -0.2570  0.0569  0.7515
  110SAPE   H4R11383   3.768   4.861   2.662 -1.6768 -1.1334  0.9119
  110SAPE   H4S11384   3.793   4.878   2.488  0.9053  0.9687  1.3072
  110SAPE   C2511385   3.954   4.783   2.596 -0.3341 -0.2553  0.0444
  110SAPE   H5R11386   4.003   4.733   2.512 -0.5041  0.5811 -0.5640
  110SAPE   C2611387   4.026   4.800   2.709  0.0310  0.0311  0.0689
  110SAPE   H6R11388   4.134   4.781   2.713  0.1305  0.7091  3.2421
  110SAPE   C2711389   3.959   4.844   2.844 -0.0157  0.1364  0.0488
  110SAPE   H7R11390   4.007   4.801   2.934  2.5989  0.1523 -1.2395
  110SAPE   H7S11391   3.855   4.810   2.862  1.1122 -2.0462  3.2555
  110SAPE   C2811392   3.957   4.992   2.859  0.4879  0.1334 -0.6689
  110SAPE   H8R11393   4.031   5.046   2.798 -0.2333  2.3293  0.3010
  110SAPE   C2911394   3.896   5.063   2.954 -0.1569  0.1676 -0.1570
  110SAPE   H9R11395   3.900   5.173   2.949  0.3917  0.1171 -1.0211
  110SAPE  C21011396   3.817   5.006   3.070  0.5391  0.4940  0.0994
  110SAPE  H10R11397   3.818   4.895   3.061  1.8873  0.5954 -1.7382
  110SAPE  H10S11398   3.712   5.040   3.058  1.3022  2.8370 -0.5331
  110SAPE  C21111399   3.872   5.056   3.201 -0.1983  0.3886  0.0061
  110SAPE  H11R11400   3.971   5.013   3.224 -0.0178  0.5881 -0.3935
  110SAPE  C21211401   3.802   5.125   3.288 -0.2894  0.7242 -0.8441
  110SAPE  H12R11402   3.845   5.153   3.385 -0.3278 -1.0879 -0.2644
  110SAPE  C21311403   3.665   5.168   3.276  0.1252  0.9812 -0.0113
  110SAPE  H13R11404   3.603   5.080   3.302  1.2452  0.9657  2.9636
  110SAPE  H13S11405   3.634   5.192   3.172 -0.3284 -2.0687 -0.6678
  110SAPE  C21411406   3.626   5.286   3.368 -0.4676  0.0974 -0.8122
  110SAPE  H14R11407   3.630   5.384   3.318  0.1295  0.6385  0.2774
  110SAPE  C21511408   3.598   5.279   3.501  0.0571 -0.3287 -0.0691
  110SAPE  H15R11409   3.568   5.367   3.559  1.0880 -0.5275  0.7912
  110SAPE  C21611410   3.597   5.158   3.596 -0.3583 -0.3541 -0.1110
  110SAPE  H16R11411   3.589   5.060   3.544 -4.1994 -0.3987  0.2372
  110SAPE  H16S11412   3.512   5.163   3.668 -0.4022  1.0419 -0.2476
  110SAPE  C21711413   3.718   5.147   3.684 -0.5347 -0.9379 -0.1476
  110SAPE  H17R11414   3.816   5.170   3.637 -0.1764 -0.5038  0.7916
  110SAPE  H17S11415   3.744   5.041   3.709  1.9100 -0.3734 -0.0233
  110SAPE  C21811416   3.694   5.217   3.821 -0.0059 -0.2454  0.3795
  110SAPE  H18R11417   3.654   5.320   3.811 -1.2135 -0.7657 -0.3832
  110SAPE  H18S11418   3.799   5.226   3.856  0.4699 -0.5268 -0.9271
  110SAPE  C21911419   3.616   5.132   3.925 -0.4463 -0.0005  1.1123
  110SAPE  H19R11420   3.675   5.037   3.934  0.8936  0.7152  0.2482
  110SAPE  H19S11421   3.517   5.097   3.890  0.6466 -1.4593 -0.7321
  110SAPE  C22011422   3.597   5.183   4.065  0.0517  0.6868 -0.7238
  110SAPE  H20R11423   3.524   5.267   4.065  0.9488  1.4992  0.6593
  110SAPE  H20S11424   3.695   5.212   4.108  0.7784  0.6473 -2.2937
  110SAPE  H20T11425   3.555   5.105   4.132 -0.8173 -0.0883 -2.1075
  110SAPE   C3311426   3.205   5.393   2.530  0.2524 -0.7031  0.0937
  110SAPE   H3X11427   3.095   5.384   2.514  0.2410 -0.0436 -0.2544
  110SAPE   H3Y11428   3.250   5.473   2.468  1.5421 -0.7284  0.9641
  110SAPE   C3411429   3.245   5.443   2.676 -0.6496  0.1941  0.6611
  110SAPE   H4X11430   3.168   5.514   2.715 -0.2688  1.8802 -1.4699
  110SAPE   H4Y11431   3.343   5.495   2.679 -1.4584  1.7409  2.2110
  110SAPE   C3511432   3.247   5.337   2.778  0.0951  0.0213 -0.0546
  110SAPE   H5X11433   3.307   5.244   2.765 -3.4113 -2.5931  0.9469
  110SAPE   H5Y11434   3.144   5.296   2.782 -0.2742  1.0157  3.1922
  110SAPE   C3611435   3.280   5.385   2.924  0.2016 -0.4132  0.4468
  110SAPE   H6X11436   3.222   5.478   2.941  1.4518  0.1071  2.1542
  110SAPE   H6Y11437   3.386   5.414   2.933  0.3901 -0.7196 -0.6076
  110SAPE   C3711438   3.221   5.287   3.030 -0.1157 -0.6281  0.7537
  110SAPE   H7X11439   3.274   5.189   3.033  0.5667 -0.3282 -0.6701
  110SAPE   H7Y11440   3.117   5.254   3.009  0.6418 -1.7891 -1.5627
  110SAPE   C3811441   3.224   5.345   3.174  0.7023 -1.0155 -0.0514
  110SAPE   H8X11442   3.173   5.442   3.187 -0.4515 -1.8099  1.7849
  110SAPE   H8Y11443   3.329   5.363   3.206  0.6700  1.4193 -1.1556
  110SAPE   C3911444   3.163   5.240   3.269  0.6694  0.2662  0.0031
  110SAPE   H9X11445   3.190   5.140   3.229 -0.3287 -0.0355  0.0686
  110SAPE   H9Y11446   3.052   5.241   3.269  0.6242 -1.0071  1.3770
  110SAPE  C31011447   3.213   5.265   3.421 -0.2473  0.3728  0.2175
  110SAPE  H10X11448   3.187   5.371   3.444  0.5915  0.1610  2.4552
  110SAPE  H10Y11449   3.322   5.247   3.421 -0.4548 -1.6865  3.2461
  110SAPE  C31111450   3.140   5.165   3.512 -0.3143  0.5882  0.6701
  110SAPE  H11X11451   3.155   5.060   3.478  1.7934  1.2943 -0.7597
  110SAPE  H11Y11452   3.032   5.191   3.518 -0.3278  0.6112  0.3430
  110SAPE  C31211453   3.180   5.179   3.658 -0.0551  0.6709  0.2186
  110SAPE  H12X11454   3.162   5.282   3.695  0.2547  0.1805  1.8069
  110SAPE  H12Y11455   3.289   5.156   3.665 -0.0578 -0.1539 -1.7030
  110SAPE  C31311456   3.101   5.077   3.743 -0.1564 -0.3688  0.1449
  110SAPE  H13X11457   3.096   4.985   3.680 -0.3720 -0.9617  1.0094
  110SAPE  H13Y11458   2.992   5.095   3.757  0.2180  0.7645  1.9215
  110SAPE  C31411459   3.164   5.047   3.872 -0.5908  0.0975 -0.0626
  110SAPE  H14X11460   3.184   5.132   3.940  3.0568 -0.3740 -0.3869
  110SAPE  H14Y11461   3.267   5.016   3.847  0.1050  0.4827  2.1472
  110SAPE  C31511462   3.102   4.925   3.934  0.1391  0.2615 -0.1830
  110SAPE  H15X11463   3.072   4.849   3.858 -1.6811  0.6746  0.0609
  110SAPE  H15Y11464   3.009   4.956   3.986  1.4327  1.1607  1.6689
  110SAPE  C31611465   3.194   4.858   4.044  0.1579 -0.4514  0.0674
  110SAPE  H16X11466   3.208   4.937   4.121 -0.8663 -1.0432  0.8820
  110SAPE  H16Y11467   3.290   4.834   3.993  0.1121  0.8486 -0.6908
  110SAPE  C31711468   3.127   4.737   4.106  0.3701  0.3325  0.2527
  110SAPE  H17X11469   3.098   4.656   4.035 -0.8563  2.8208 -2.2870
  110SAPE  H17Y11470   3.033   4.772   4.154 -0.3272 -0.1505 -0.7174
  110SAPE  C31811471   3.209   4.678   4.221  0.9845 -0.4927 -0.2162
  110SAPE  H18X11472   3.150   4.600   4.273  0.0499  0.6438  0.4952
  110SAPE  H18Y11473   3.215   4.760   4.296 -0.3441 -1.7035  1.2736
  110SAPE  H18Z11474   3.309   4.644   4.187  1.8621  1.4428  0.2431
  111SAPE     N11475   3.305   6.230   1.839 -0.4173  0.1938 -0.3735
  111SAPE   HN111476   3.288   6.156   1.768 -1.9071  1.0463 -0.9450
  111SAPE   HN211477   3.403   6.231   1.876 -1.1545  0.0862  1.7157
  111SAPE   HN311478   3.240   6.204   1.916  0.4016 -0.9970 -0.0554
  111SAPE   C1211479   3.261   6.363   1.791 -0.0805  0.3267  0.8768
  111SAPE  H12A11480   3.156   6.356   1.756 -0.1663  3.7429  0.0784
  111SAPE  H12B11481   3.330   6.386   1.707  2.4170  0.3470  2.8071
  111SAPE   C1111482   3.286   6.471   1.894  0.6517 -0.2051 -0.4311
  111SAPE  H11A11483   3.229   6.449   1.987 -0.8568  2.4284 -0.6291
  111SAPE  H11B11484   3.243   6.563   1.851 -0.5325 -0.4146  0.2464
  111SAPE     P11485   3.483   6.608   1.989  0.4555  0.2684  0.2464
  111SAPE   O1311486   3.586   6.666   1.907  0.0185 -0.3459  0.2730
  111SAPE   O1411487   3.367   6.692   2.021  0.3729 -0.1477 -0.4669
  111SAPE   O1211488   3.429   6.484   1.911  0.1426 -0.5868 -0.4931
  111SAPE   O1111489   3.537   6.552   2.121 -0.1873  0.3477  0.1679
  111SAPE    C111490   3.667   6.489   2.135  0.4238 -0.3409  0.0775
  111SAPE    HA11491   3.647   6.387   2.173 -1.5534  0.1728  0.5139
  111SAPE    HB11492   3.710   6.476   2.033 -0.7931 -1.7498 -0.2807
  111SAPE    C211493   3.763   6.563   2.230  0.2420 -0.0531 -0.2039
  111SAPE    HS11494   3.860   6.508   2.227 -1.0617 -2.4456 -0.8946
  111SAPE   O2111495   3.705   6.581   2.358 -0.0502 -0.6023 -0.5322
  111SAPE   C2111496   3.741   6.492   2.450 -0.4620 -0.1312  0.0556
  111SAPE   O2211497   3.822   6.406   2.435 -0.0068  0.8624  0.0304
  111SAPE   C2211498   3.684   6.536   2.583 -0.0563  0.1768 -0.2240
  111SAPE   H2R11499   3.610   6.619   2.578 -2.2507 -1.5976  0.8833
  111SAPE   H2S11500   3.627   6.446   2.616 -0.2199  0.8846  1.4946
  111SAPE    C311501   3.795   6.701   2.168  0.2734  0.0651 -0.7160
  111SAPE    HX11502   3.709   6.771   2.175 -0.1762 -0.2272 -2.7232
  111SAPE    HY11503   3.821   6.687   2.061  0.3633 -0.4017 -0.6367
  111SAPE   O3111504   3.906   6.742   2.245  0.3232  0.0226  0.5240
  111SAPE   C3111505   3.952   6.859   2.229  0.6725  0.6378 -0.1721
  111SAPE   O3211506   3.925   6.937   2.142 -0.1393  0.3697  0.4493
  111SAPE   C3211507   4.029   6.896   2.359  0.4198  0.0732  0.6456
  111SAPE   H2X11508   4.045   7.004   2.340 -2.4446  0.1342 -2.2147
  111SAPE   H2Y11509   4.129   6.848   2.357  0.5306  0.3052  0.4569
  111SAPE   C2311510   3.786   6.553   2.689  0.3530 -1.0575 -0.4389
  111SAPE   H3R11511   3.835   6.649   2.662 -1.8296 -0.5051 -2.8854
  111SAPE   H3S11512   3.858   6.469   2.698  0.4005 -0.8198  2.7974
  111SAPE   C2411513   3.732   6.567   2.837 -0.0810  0.6787 -0.0302
  111SAPE   H4R11514   3.639   6.627   2.848  0.6918  1.5163  3.1022
  111SAPE   H4S11515   3.798   6.614   2.913  1.3821 -1.1501 -0.0924
  111SAPE   C2511516   3.691   6.425   2.880  1.0044  0.1287  0.4987
  111SAPE   H5R11517   3.668   6.358   2.796 -0.0171 -0.6503  1.3625
  111SAPE   C2611518   3.678   6.379   3.007 -0.2349 -0.1220 -0.0752
  111SAPE   H6R11519   3.634   6.281   3.028 -2.4131  0.8073 -0.0062
  111SAPE   C2711520   3.685   6.463   3.137  0.5058  0.1046 -0.3479
  111SAPE   H7R11521   3.593   6.444   3.195 -0.2040  2.7245 -0.4725
  111SAPE   H7S11522   3.681   6.572   3.114  1.2195 -0.2870 -2.5727
  111SAPE   C2811523   3.822   6.454   3.202  0.1545 -0.4714 -0.3062
  111SAPE   H8R11524   3.896   6.398   3.144 -1.5427 -2.1862 -0.9257
  111SAPE   C2911525   3.861   6.503   3.319 -0.5342 -0.5410 -0.7323
  111SAPE   H9R11526   3.963   6.492   3.359  0.0205  2.7933 -0.8608
  111SAPE  C21011527   3.779   6.573   3.425  0.1982 -0.3063  0.0570
  111SAPE  H10R11528   3.690   6.626   3.386  0.0128  0.8007  1.8750
  111SAPE  H10S11529   3.845   6.658   3.453  0.2773 -0.9588  1.9771
  111SAPE  C21111530   3.731   6.488   3.543  0.0077  0.5694  0.7420
  111SAPE  H11R11531   3.665   6.403   3.521  0.3663  0.0374  1.6932
  111SAPE  C21211532   3.776   6.492   3.670  0.6772  0.7514 -0.5002
  111SAPE  H12R11533   3.734   6.423   3.744  1.9577  0.7817  0.2975
  111SAPE  C21311534   3.877   6.590   3.725 -0.1432 -0.2970  0.4456
  111SAPE  H13R11535   3.829   6.688   3.745  2.6082  1.3451 -0.3800
  111SAPE  H13S11536   3.951   6.615   3.645 -0.6056  2.1305  0.6854
  111SAPE  C21411537   3.962   6.545   3.834 -0.1236  0.3669  0.1894
  111SAPE  H14R11538   4.028   6.461   3.810 -0.4652 -0.7831  2.9707
  111SAPE  C21511539   3.976   6.611   3.954  0.2015 -0.3497 -0.3194
  111SAPE  H15R11540   4.056   6.570   4.017  0.0714  0.4497  0.3859
  111SAPE  C21611541   3.884   6.714   4.005 -0.7058 -0.7699 -0.2200
  111SAPE  H16R11542   3.844   6.698   4.107 -0.1910  3.4232  0.8323
  111SAPE  H16S11543   3.800   6.732   3.933 -0.7506  1.5657  0.3217
  111SAPE  C21711544   3.948   6.858   4.002  0.3511 -0.6616  0.4329
  111SAPE  H17R11545   3.863   6.928   4.011  0.9721  0.4478 -1.7621
  111SAPE  H17S11546   3.981   6.883   3.899 -1.2101  1.7810  0.4587
  111SAPE  C21811547   4.048   6.895   4.109 -0.4882 -0.4313 -0.8296
  111SAPE  H18R11548   4.146   6.933   4.071  0.2385  0.2787  1.5473
  111SAPE  H18S11549   4.069   6.799   4.161 -0.8855 -0.4804 -0.7547
  111SAPE  C21911550   3.998   6.994   4.216  0.4808  0.0195  0.5663
  111SAPE  H19R11551   3.910   6.944   4.261  0.9102 -0.9697  0.3427
  111SAPE  H19S11552   3.958   7.088   4.173  2.5446 -0.0085 -1.6703
  111SAPE  C22011553   4.103   7.035   4.320  0.0958 -0.3706  0.1761
  111SAPE  H20R11554   4.058   7.052   4.420  0.1430  0.5823  0.0484
  111SAPE  H20S11555   4.163   7.123   4.289  0.3935 -0.4765  0.4533
  111SAPE  H20T11556   4.187   6.964   4.331  1.5420  1.0546 -1.1112
  111SAPE   C3311557   3.938   6.871   2.482 -0.9754  0.3048  0.7314
  111SAPE   H3X11558   3.955   6.764   2.507  0.3881 -0.0462 -1.3874
  111SAPE   H3Y11559   3.829   6.876   2.461 -0.6827  1.0889 -0.7802
  111SAPE   C3411560   3.990   6.939   2.613 -0.1481 -0.3000 -0.0649
  111SAPE   H4X11561   3.975   7.048   2.595 -3.3062 -0.8652 -1.4415
  111SAPE   H4Y11562   4.100   6.926   2.627 -0.0631  0.1899 -0.2367
  111SAPE   C3511563   3.910   6.902   2.733  0.5730  0.9171 -0.4382
  111SAPE   H5X11564   3.945   6.799   2.757  1.4020  1.0877 -0.8766
  111SAPE   H5Y11565   3.800   6.909   2.719  0.3144  1.5230  1.5355
  111SAPE   C3611566   3.951   6.982   2.859 -0.2604 -0.4328  0.4320
  111SAPE   H6X11567   3.954   7.093   2.851  2.6339 -0.5608 -1.8837
  111SAPE   H6Y11568   4.058   6.952   2.862 -0.1327 -0.2199 -1.2479
  111SAPE   C3711569   3.879   6.942   2.992  0.5334  0.4008  0.6279
  111SAPE   H7X11570   3.844   6.837   3.000 -2.2556  1.1540 -0.5261
  111SAPE   H7Y11571   3.793   7.011   3.005  0.6855  0.5362  0.9480
  111SAPE   C3811572   3.968   6.972   3.112 -0.9284  0.4684 -0.5918
  111SAPE   H8X11573   4.002   7.078   3.102 -0.8465  0.3032 -2.3077
  111SAPE   H8Y11574   4.052   6.900   3.103 -1.2344 -0.0574  0.5067
  111SAPE   C3911575   3.895   6.958   3.249 -0.2096 -0.3309  0.4766
  111SAPE   H9X11576   3.819   6.878   3.237  0.0271 -0.2667 -2.2109
  111SAPE   H9Y11577   3.846   7.053   3.278 -1.0219 -1.6166  3.6674
  111SAPE  C31011578   3.996   6.911   3.360  0.1950  0.2579 -0.4316
  111SAPE  H10X11579   4.067   6.996   3.366 -0.6067  0.8659  0.9379
  111SAPE  H10Y11580   4.052   6.818   3.336  1.7125  1.5937 -2.3944
  111SAPE  C31111581   3.927   6.917   3.495  0.1578  0.9129 -0.3947
  111SAPE  H11X11582   3.981   6.853   3.567 -2.1601 -3.2118 -1.9984
  111SAPE  H11Y11583   3.831   6.863   3.482 -0.0128  1.4183 -1.3362
  111SAPE  C31211584   3.913   7.058   3.555 -0.2996  0.5001  0.0427
  111SAPE  H12X11585   3.854   7.107   3.475  0.7019  0.8936 -0.4682
  111SAPE  H12Y11586   4.009   7.107   3.581 -1.2022  2.3505  0.0064
  111SAPE  C31311587   3.831   7.052   3.683 -0.5705  0.3096 -0.7255
  111SAPE  H13X11588   3.898   7.001   3.756 -1.6236 -0.5218 -0.3119
  111SAPE  H13Y11589   3.735   6.999   3.671 -0.4643 -0.1267  0.2735
  111SAPE  C31411590   3.800   7.195   3.733  0.3279  0.0339 -0.1547
  111SAPE  H14X11591   3.728   7.254   3.673 -0.7317  3.1933  3.8042
  111SAPE  H14Y11592   3.898   7.248   3.739  0.3112 -0.0381  0.9719
  111SAPE  C31511593   3.746   7.212   3.881 -0.4045  0.0144  0.1860
  111SAPE  H15X11594   3.727   7.321   3.895  2.3771  0.9506 -2.1493
  111SAPE  H15Y11595   3.831   7.184   3.947 -1.3302 -1.5960  0.7642
  111SAPE  C31611596   3.622   7.123   3.921 -0.2236 -0.5602  0.7210
  111SAPE  H16X11597   3.669   7.024   3.936  1.5496  0.1226  0.0099
  111SAPE  H16Y11598   3.561   7.107   3.829  0.8632  1.4798 -0.4424
  111SAPE  C31711599   3.552   7.169   4.042 -0.6840  0.1857 -0.5482
  111SAPE  H17X11600   3.513   7.271   4.020 -1.0602  0.2323  0.2978
  111SAPE  H17Y11601   3.610   7.180   4.136 -0.5602 -0.4003 -0.5589
  111SAPE  C31811602   3.441   7.072   4.073  0.0141 -0.1745  0.1446
  111SAPE  H18X11603   3.478   6.967   4.065 -1.4858 -0.7023 -0.2849
  111SAPE  H18Y11604   3.356   7.096   4.006  1.0118  1.7721 -0.5270
  111SAPE  H18Z11605   3.404   7.087   4.176 -2.7741 -1.9057 -0.5133
  112SAPE     N11606   0.208   1.597   2.274  0.0653  0.5382  0.4938
  112SAPE   HN111607   0.191   1.524   2.202 -0.7380  1.4630 -0.2816
  112SAPE   HN211608   0.232   1.554   2.365  0.4457 -0.6853 -0.1562
  112SAPE   HN311609   0.115   1.642   2.285 -0.0518  0.7693 -1.1570
  112SAPE   C1211610   0.303   1.702   2.231  0.0924  0.0707 -0.2176
  112SAPE  H12A11611   0.395   1.648   2.200 -1.1026 -2.5857  0.6322
  112SAPE  H12B11612   0.312   1.765   2.322  1.8804  0.9368 -0.9503
  112SAPE   C1111613   0.251   1.788   2.116 -0.5948 -0.2167 -0.6688
  112SAPE  H11A11614   0.236   1.716   2.032  1.6058 -1.1088 -0.3753
  112SAPE  H11B11615   0.323   1.864   2.079 -0.5020  0.5393  0.9897
  112SAPE     P11616   0.011   1.903   2.080  0.1659 -0.0151  0.4022
  112SAPE   O1311617   0.043   2.007   1.977  0.0785 -0.1154 -0.5019
  112SAPE   O1411618  -0.040   1.777   2.023 -0.1670  0.4237 -0.3760
  112SAPE   O1211619   0.138   1.865   2.160  0.1999 -0.1430  0.9253
  112SAPE   O1111620  -0.085   1.957   2.191  0.5514  0.1483  0.1667
  112SAPE    C111621  -0.085   2.092   2.245 -0.0454  0.2345  0.0481
  112SAPE    HA11622  -0.081   2.175   2.172  3.6172  1.9706  1.9388
  112SAPE    HB11623  -0.178   2.104   2.304  0.1441  1.6303  0.0794
  112SAPE    C211624   0.042   2.123   2.328 -1.1003 -0.3222  0.4295
  112SAPE    HS11625   0.133   2.104   2.267 -1.5914 -3.0132  0.4154
  112SAPE   O2111626   0.043   2.041   2.443  0.5732  0.1463 -0.0949
  112SAPE   C2111627   0.166   2.000   2.494  0.3045 -0.0213 -0.3801
  112SAPE   O2211628   0.274   2.011   2.442 -0.1786 -0.0385 -0.1221
  112SAPE   C2211629   0.138   1.934   2.625  0.2484  0.6554 -0.0391
  112SAPE   H2R11630   0.033   1.901   2.642  0.4948  0.8958  2.2049
  112SAPE   H2S11631   0.185   1.833   2.627  2.9865  1.8152 -1.0987
  112SAPE    C311632   0.054   2.276   2.371  0.1586  0.3621  0.3776
  112SAPE    HX11633  -0.030   2.299   2.439  1.4013  2.2339  1.3768
  112SAPE    HY11634   0.055   2.342   2.281 -0.3571 -0.6410 -0.3862
  112SAPE   O3111635   0.175   2.295   2.445 -0.4724  0.4411 -0.8194
  112SAPE   C3111636   0.203   2.419   2.469  0.7623  0.2598 -0.3074
  112SAPE   O3211637   0.141   2.514   2.425  0.3011 -0.0005  0.1988
  112SAPE   C3211638   0.323   2.434   2.566  0.5123 -0.0541 -0.2827
  112SAPE   H2X11639   0.277   2.464   2.663  0.2196 -2.8036  0.5066
  112SAPE   H2Y11640   0.370   2.529   2.533  0.1654  0.2123 -0.0218
  112SAPE   C2311641   0.192   2.007   2.749  0.4545  0.3624  0.1686
  112SAPE   H3R11642   0.303   2.000   2.756  0.3677 -1.6679  0.2070
  112SAPE   H3S11643   0.160   1.953   2.841  0.6502 -1.5888 -0.8580
  112SAPE   C2411644   0.149   2.154   2.759  0.1491  0.0577  0.4265
  112SAPE   H4R11645   0.200   2.216   2.681 -1.1670  0.0959 -0.4390
  112SAPE   H4S11646   0.191   2.187   2.856  2.1527 -0.8715 -0.0667
  112SAPE   C2511647   0.006   2.184   2.756  0.6603  0.2834 -0.2025
  112SAPE   H5R11648  -0.032   2.195   2.653 -0.6353  2.1894  0.4144
  112SAPE   C2611649  -0.080   2.185   2.861  0.3512  0.4635  0.4795
  112SAPE   H6R11650  -0.186   2.205   2.844  0.2786 -0.4372 -0.1809
  112SAPE   C2711651  -0.049   2.165   3.010 -0.1306  0.1843 -0.7687
  112SAPE   H7R11652   0.032   2.091   3.026 -0.1780  0.0690 -1.0651
  112SAPE   H7S11653  -0.143   2.118   3.042 -0.0084 -0.0712 -0.7870
  112SAPE   C2811654  -0.012   2.296   3.081  0.7518  0.0782 -0.3212
  112SAPE   H8R11655  -0.057   2.384   3.031 -1.2658  0.3781  1.8526
  112SAPE   C2911656   0.058   2.319   3.185  0.0780  0.8227 -0.6162
  112SAPE   H9R11657   0.065   2.426   3.210 -0.1151  0.8744 -0.7880
  112SAPE  C21011658   0.129   2.206   3.262  0.6425 -0.2584  0.2171
  112SAPE  H10R11659   0.221   2.246   3.310  0.4073  0.9501 -0.2908
  112SAPE  H10S11660   0.162   2.121   3.199  0.5279 -1.9463  2.3152
  112SAPE  C21111661   0.028   2.147   3.353 -0.0290 -0.0102 -0.6485
  112SAPE  H11R11662  -0.081   2.158   3.337 -0.1188 -0.4724 -0.3618
  112SAPE  C21211663   0.051   2.085   3.470 -0.5936  0.2251  0.6270
  112SAPE  H12R11664  -0.038   2.078   3.535 -0.2426  1.1463  1.2244
  112SAPE  C21311665   0.188   2.063   3.543  0.8428  0.4694 -0.5701
  112SAPE  H13R11666   0.263   2.040   3.464 -0.9348  0.4626 -2.3235
  112SAPE  H13S11667   0.188   1.964   3.594  0.3658  0.7036 -0.1114
  112SAPE  C21411668   0.252   2.168   3.618  0.0270  0.4002 -0.1099
  112SAPE  H14R11669   0.325   2.228   3.562  0.9428 -0.9750 -0.4318
  112SAPE  C21511670   0.233   2.196   3.745  0.2566 -0.3477  0.1186
  112SAPE  H15R11671   0.271   2.293   3.781  0.2698 -0.3247  0.0437
  112SAPE  C21611672   0.150   2.119   3.842  0.4387 -0.0985  0.2210
  112SAPE  H16R11673   0.130   2.015   3.807  2.9061 -1.0589  1.3855
  112SAPE  H16S11674   0.057   2.178   3.855  1.8712  1.8479  2.7298
  112SAPE  C21711675   0.211   2.114   3.981  0.3910 -0.0331 -0.1147
  112SAPE  H17R11676   0.221   2.218   4.017 -1.8800 -0.0784  0.8461
  112SAPE  H17S11677   0.310   2.065   3.973  0.6419  0.2706  0.9999
  112SAPE  C21811678   0.113   2.036   4.078  0.0267  0.1320  0.2360
  112SAPE  H18R11679   0.008   2.064   4.053 -0.1655 -0.3883  0.4385
  112SAPE  H18S11680   0.117   2.044   4.189  0.5348  1.7132  0.1331
  112SAPE  C21911681   0.122   1.884   4.054 -1.6684 -0.0698 -0.1665
  112SAPE  H19R11682   0.116   1.857   3.947 -0.9730  0.7946 -0.4341
  112SAPE  H19S11683   0.037   1.843   4.114 -1.1326 -0.3936  0.3889
  112SAPE  C22011684   0.255   1.826   4.119 -0.1468 -0.7515  0.1539
  112SAPE  H20R11685   0.335   1.840   4.043  0.0773 -2.4329  0.0414
  112SAPE  H20S11686   0.252   1.715   4.123  0.1632 -0.7459  0.5893
  112SAPE  H20T11687   0.276   1.878   4.215  0.8501  2.5086 -1.6755
  112SAPE   C3311688   0.433   2.332   2.579  0.1457 -0.1784  0.4848
  112SAPE   H3X11689   0.510   2.362   2.504  1.0576 -1.6632  0.7772
  112SAPE   H3Y11690   0.398   2.231   2.551 -2.2157  0.5929  0.4617
  112SAPE   C3411691   0.492   2.328   2.727  0.0575 -0.0659 -0.0440
  112SAPE   H4X11692   0.398   2.333   2.786 -1.9487 -0.2057 -2.9994
  112SAPE   H4Y11693   0.538   2.429   2.720  2.4734 -1.1231 -0.4405
  112SAPE   C3511694   0.580   2.210   2.744 -0.0153  0.2806 -0.3265
  112SAPE   H5X11695   0.651   2.201   2.659  0.7131 -2.3523  0.4782
  112SAPE   H5Y11696   0.515   2.121   2.731 -1.6158  1.3849 -0.1550
  112SAPE   C3611697   0.644   2.217   2.882 -0.3406 -0.0942 -0.5167
  112SAPE   H6X11698   0.648   2.323   2.915 -0.1513 -0.7481  1.6942
  112SAPE   H6Y11699   0.749   2.179   2.878 -0.0507  0.4063  1.4872
  112SAPE   C3711700   0.569   2.148   2.999 -0.1566 -0.1616 -0.1500
  112SAPE   H7X11701   0.579   2.037   2.989 -0.2657 -0.4541  2.3718
  112SAPE   H7Y11702   0.462   2.174   2.987 -0.8128 -1.7410  1.6718
  112SAPE   C3811703   0.630   2.194   3.128  0.3152 -0.0360 -0.1265
  112SAPE   H8X11704   0.653   2.302   3.136 -1.2156  0.1632  2.7180
  112SAPE   H8Y11705   0.731   2.154   3.149  1.3708  1.6951 -1.6146
  112SAPE   C3911706   0.542   2.169   3.250  0.2986  0.5679  0.2051
  112SAPE   H9X11707   0.496   2.068   3.248  1.1752  0.0978  1.9300
  112SAPE   H9Y11708   0.448   2.227   3.264 -1.1673 -1.7650  0.5999
  112SAPE  C31011709   0.614   2.189   3.387 -0.9213  0.2234  0.3996
  112SAPE  H10X11710   0.698   2.118   3.377 -1.3919 -0.1955 -0.8198
  112SAPE  H10Y11711   0.552   2.162   3.475 -0.7215  0.7022  0.6920
  112SAPE  C31111712   0.680   2.326   3.406 -0.1066 -0.4672  0.3636
  112SAPE  H11X11713   0.601   2.398   3.373 -1.7265 -2.5728 -0.5832
  112SAPE  H11Y11714   0.768   2.343   3.340  0.9464 -0.7635  1.6512
  112SAPE  C31211715   0.720   2.360   3.554 -0.2897 -0.2877 -0.4643
  112SAPE  H12X11716   0.767   2.269   3.596 -0.3467 -0.3795 -0.5971
  112SAPE  H12Y11717   0.629   2.387   3.612 -0.5351 -0.2182 -0.8736
  112SAPE  C31311718   0.816   2.479   3.561 -0.2021 -0.2777 -0.0133
  112SAPE  H13X11719   0.781   2.564   3.499 -1.1370  0.7224  1.8115
  112SAPE  H13Y11720   0.910   2.433   3.524  0.2232  1.1371 -0.7828
  112SAPE  C31411721   0.849   2.521   3.705 -0.3358 -0.3368  0.1305
  112SAPE  H14X11722   0.755   2.561   3.748  0.2118  1.6010 -0.3500
  112SAPE  H14Y11723   0.914   2.611   3.702 -0.2109 -0.4339 -2.2355
  112SAPE  C31511724   0.910   2.412   3.798  0.2756  0.0907  0.1939
  112SAPE  H15X11725   0.997   2.368   3.745  0.0198  1.2577 -1.2442
  112SAPE  H15Y11726   0.839   2.327   3.807  0.9001 -0.2813  1.9972
  112SAPE  C31611727   0.947   2.461   3.938 -0.0639 -0.1601  0.4085
  112SAPE  H16X11728   0.853   2.490   3.989  0.3929  1.8604  0.2060
  112SAPE  H16Y11729   1.017   2.547   3.929 -1.3630  1.1150  1.8968
  112SAPE  C31711730   1.016   2.348   4.017 -0.4306 -0.9411  0.6308
  112SAPE  H17X11731   1.119   2.345   3.976 -0.6413  1.4790 -0.2780
  112SAPE  H17Y11732   0.972   2.253   3.982  0.6146 -1.0641 -0.4156
  112SAPE  C31811733   1.022   2.371   4.167  0.0537 -0.1591 -0.2373
  112SAPE  H18X11734   1.083   2.294   4.218 -0.3725  0.8346  1.8887
  112SAPE  H18Y11735   0.922   2.363   4.214  0.5237 -1.7012  0.5446
  112SAPE  H18Z11736   1.070   2.469   4.189 -0.9022  0.6507 -1.6000
  113SAPE     N11737   1.134   5.483   2.518 -0.0133 -0.0366 -0.2337
  113SAPE   HN111738   1.073   5.537   2.583 -0.1908  1.1234 -1.3198
  113SAPE   HN211739   1.097   5.387   2.503  0.6717 -0.2892 -0.3491
  113SAPE   HN311740   1.225   5.478   2.568  0.0042  2.5050  0.1207
  113SAPE   C1211741   1.169   5.565   2.394  0.5196  0.6202 -0.1942
  113SAPE  H12A11742   1.080   5.627   2.369  0.4073  0.4341 -0.2578
  113SAPE  H12B11743   1.187   5.494   2.311 -1.5518 -2.1628  1.5636
  113SAPE   C1111744   1.287   5.662   2.431 -0.6155  0.2450 -0.2516
  113SAPE  H11A11745   1.329   5.723   2.349 -1.6830 -0.8222 -1.6381
  113SAPE  H11B11746   1.373   5.599   2.462 -0.2923  0.2055 -1.2144
  113SAPE     P11747   1.204   5.895   2.515 -0.0084  0.1614  0.4621
  113SAPE   O1311748   1.310   5.984   2.460  0.2938 -0.4034  0.3292
  113SAPE   O1411749   1.077   5.885   2.437  0.1193 -0.1893 -0.1830
  113SAPE   O1211750   1.257   5.745   2.539 -0.4178 -0.5927 -0.0123
  113SAPE   O1111751   1.156   5.943   2.659  0.0788  0.5964 -0.0540
  113SAPE    C111752   1.256   5.943   2.766 -0.0129  0.0596  0.1952
  113SAPE    HA11753   1.289   5.840   2.792  3.0342  0.7543 -0.4953
  113SAPE    HB11754   1.345   5.999   2.731  1.2771 -2.7223 -1.3085
  113SAPE    C211755   1.206   6.021   2.888  0.0833  0.0152 -0.2148
  113SAPE    HS11756   1.286   6.020   2.965 -0.5978  1.3928  0.5433
  113SAPE   O2111757   1.085   5.956   2.940  0.8226 -0.1157 -0.0674
  113SAPE   C2111758   1.050   5.975   3.069  0.0906  0.1576 -0.5581
  113SAPE   O2211759   1.110   6.035   3.155 -0.0643  0.3598  0.0492
  113SAPE   C2211760   0.926   5.889   3.104  0.0073  0.5743  0.6425
  113SAPE   H2R11761   0.842   5.917   3.037 -1.5112 -0.0429  2.2107
  113SAPE   H2S11762   0.948   5.781   3.090 -1.5509  0.5810 -3.2321
  113SAPE    C311763   1.185   6.164   2.839  0.2120 -0.3165 -0.3860
  113SAPE    HX11764   1.088   6.157   2.786  0.4583 -2.1172 -0.6773
  113SAPE    HY11765   1.269   6.189   2.771  1.1879 -3.9099 -0.7049
  113SAPE   O3111766   1.170   6.249   2.955 -0.9182 -0.5398 -0.0329
  113SAPE   C3111767   1.281   6.270   3.023 -0.6175  0.4915  0.1136
  113SAPE   O3211768   1.394   6.239   2.980 -0.0604 -0.3652  0.3501
  113SAPE   C3211769   1.259   6.328   3.164  0.0086  0.0176  0.5029
  113SAPE   H2X11770   1.246   6.245   3.236 -2.6603 -0.6003 -0.5911
  113SAPE   H2Y11771   1.166   6.388   3.160  0.6452  0.9880 -0.2669
  113SAPE   C2311772   0.873   5.920   3.242 -0.5058  0.5038 -0.0034
  113SAPE   H3R11773   0.763   5.906   3.246 -0.5277  1.0009  1.5659
  113SAPE   H3S11774   0.889   6.028   3.258  0.5838  0.1346  1.6322
  113SAPE   C2411775   0.935   5.825   3.354  0.4199  0.8247  0.2917
  113SAPE   H4R11776   1.040   5.858   3.374  0.3830  2.7488 -2.1646
  113SAPE   H4S11777   0.943   5.723   3.310 -1.2675  0.6132  0.4116
  113SAPE   C2511778   0.866   5.830   3.487 -0.2663 -0.0528  0.2680
  113SAPE   H5R11779   0.885   5.927   3.535 -2.1049  2.5401 -3.6645
  113SAPE   C2611780   0.793   5.741   3.550 -0.3303 -0.9045  0.1983
  113SAPE   H6R11781   0.757   5.768   3.650 -3.3352 -1.4996 -0.6343
  113SAPE   C2711782   0.742   5.608   3.498  0.4843  0.2840  0.2474
  113SAPE   H7R11783   0.818   5.561   3.431 -0.5907  1.1682 -1.6839
  113SAPE   H7S11784   0.658   5.636   3.431  1.6035  0.6909 -1.0614
  113SAPE   C2811785   0.704   5.520   3.614 -0.0562  0.3139 -1.3120
  113SAPE   H8R11786   0.787   5.489   3.678 -1.8112  0.8456  1.4020
  113SAPE   C2911787   0.581   5.461   3.632  0.0250  0.4198  0.1831
  113SAPE   H9R11788   0.562   5.399   3.721 -0.3000 -1.2066 -0.9587
  113SAPE  C21011789   0.457   5.480   3.549 -0.5934  0.1460  0.4586
  113SAPE  H10R11790   0.456   5.400   3.472  1.1424  1.3975 -0.9486
  113SAPE  H10S11791   0.469   5.573   3.490  1.7607 -1.2868 -1.4790
  113SAPE  C21111792   0.319   5.484   3.615  0.8358 -0.3113 -0.2063
  113SAPE  H11R11793   0.259   5.392   3.609 -1.3883  0.9304  1.5351
  113SAPE  C21211794   0.271   5.596   3.668 -0.0851  0.4008 -1.1808
  113SAPE  H12R11795   0.163   5.601   3.687 -0.2815 -0.3256 -2.0675
  113SAPE  C21311796   0.342   5.727   3.683 -0.2955  0.1083  0.0149
  113SAPE  H13R11797   0.268   5.809   3.677 -2.5632 -1.8779 -0.6218
  113SAPE  H13S11798   0.407   5.751   3.596  0.3715  0.2844  0.5583
  113SAPE  C21411799   0.451   5.725   3.793  0.0973  0.3411 -0.1008
  113SAPE  H14R11800   0.488   5.626   3.825  0.1047  1.0813  2.3125
  113SAPE  C21511801   0.507   5.835   3.852  0.6226  0.1058 -0.8372
  113SAPE  H15R11802   0.569   5.823   3.942  0.9560  1.4756 -0.8723
  113SAPE  C21611803   0.457   5.977   3.820 -0.2111 -0.6921  0.8843
  113SAPE  H16R11804   0.391   6.030   3.892 -1.4388 -0.2937 -0.4783
  113SAPE  H16S11805   0.396   5.970   3.728  0.3300  0.3180  0.4363
  113SAPE  C21711806   0.574   6.062   3.774 -0.6641  0.3099 -0.2822
  113SAPE  H17R11807   0.537   6.163   3.744  0.5023  1.8169  2.9282
  113SAPE  H17S11808   0.621   6.017   3.684 -2.4616  0.3197 -1.2832
  113SAPE  C21811809   0.679   6.092   3.885 -0.3849  0.9679  0.4884
  113SAPE  H18R11810   0.711   5.997   3.934 -1.5350 -0.2935 -1.1146
  113SAPE  H18S11811   0.625   6.153   3.960  0.7942 -0.4283  2.5884
  113SAPE  C21911812   0.794   6.168   3.824 -0.6982  0.5563  0.0317
  113SAPE  H19R11813   0.769   6.266   3.779 -0.2706  0.9895  0.7025
  113SAPE  H19S11814   0.838   6.101   3.747  1.4550  2.1587 -0.2059
  113SAPE  C22011815   0.911   6.194   3.925 -0.0254 -0.4877 -0.1986
  113SAPE  H20R11816   0.886   6.289   3.976 -0.8921 -0.4932 -0.5882
  113SAPE  H20S11817   1.006   6.215   3.872  0.8586 -1.8054  0.8041
  113SAPE  H20T11818   0.927   6.114   4.001  1.4672  1.2244  1.3805
  113SAPE   C3311819   1.379   6.405   3.220  0.4386  0.1442 -0.4681
  113SAPE   H3X11820   1.420   6.474   3.142  0.6216  0.1616 -0.3574
  113SAPE   H3Y11821   1.462   6.331   3.223 -0.2920 -0.8796 -2.9766
  113SAPE   C3411822   1.361   6.490   3.350 -0.1681 -0.6901  0.4555
  113SAPE   H4X11823   1.379   6.416   3.432 -3.3511 -1.2485  0.8026
  113SAPE   H4Y11824   1.253   6.513   3.357 -0.5842 -2.5919  1.1439
  113SAPE   C3511825   1.447   6.614   3.354 -0.8972 -1.3030  0.1008
  113SAPE   H5X11826   1.423   6.674   3.264 -2.0601 -1.1820  0.4705
  113SAPE   H5Y11827   1.555   6.586   3.354 -0.9509 -1.5822  1.2912
  113SAPE   C3611828   1.423   6.707   3.477  0.1011  0.0380  0.1237
  113SAPE   H6X11829   1.315   6.733   3.474  0.5605  2.2520 -3.2225
  113SAPE   H6Y11830   1.471   6.805   3.452  1.9568 -0.8006  0.2455
  113SAPE   C3711831   1.470   6.652   3.610 -0.0381  0.4023  0.2245
  113SAPE   H7X11832   1.577   6.625   3.594 -0.4469 -0.9133 -0.5180
  113SAPE   H7Y11833   1.422   6.552   3.617 -2.4558  1.3417 -1.5978
  113SAPE   C3811834   1.431   6.729   3.737 -0.3933 -0.0414  0.5794
  113SAPE   H8X11835   1.321   6.719   3.748 -0.7425  0.3405 -1.9444
  113SAPE   H8Y11836   1.481   6.691   3.829  0.6269  1.0549  0.5027
  113SAPE   C3911837   1.467   6.877   3.731  0.3618  0.4304  0.0564
  113SAPE   H9X11838   1.391   6.934   3.672 -0.2769  1.3409  1.6835
  113SAPE   H9Y11839   1.566   6.899   3.686  0.3468 -1.0565 -0.7701
  113SAPE  C31011840   1.463   6.945   3.873  0.5088  0.0781  0.2763
  113SAPE  H10X11841   1.485   7.054   3.862  1.9509 -0.3230 -1.4024
  113SAPE  H10Y11842   1.533   6.898   3.945 -0.5994  2.1397  2.8594
  113SAPE  C31111843   1.329   6.918   3.942  0.0722  0.3046  0.3973
  113SAPE  H11X11844   1.311   6.812   3.967 -0.2533  0.5337  1.1633
  113SAPE  H11Y11845   1.248   6.950   3.872 -0.2945  2.5985  1.7376
  113SAPE  C31211846   1.288   6.998   4.068  0.0931 -0.2952  1.0060
  113SAPE  H12X11847   1.178   6.992   4.082 -0.2863  0.9405 -1.0641
  113SAPE  H12Y11848   1.304   7.104   4.039 -1.8021 -0.5052 -1.0341
  113SAPE  C31311849   1.376   6.948   4.185  0.3392  0.1676 -0.2496
  113SAPE  H13X11850   1.412   6.848   4.155  0.3164 -0.1045  0.5948
  113SAPE  H13Y11851   1.310   6.929   4.273  0.0995 -1.8950 -0.8402
  113SAPE  C31411852   1.495   7.032   4.213 -0.1032 -0.2965 -0.5414
  113SAPE  H14X11853   1.462   7.134   4.242 -0.5330 -0.9199  1.3190
  113SAPE  H14Y11854   1.543   7.030   4.113 -1.4758 -1.4424 -1.2032
  113SAPE  C31511855   1.587   6.978   4.323  0.5883  0.2641  0.3225
  113SAPE  H15X11856   1.680   7.039   4.323 -0.3297  1.7162  0.3066
  113SAPE  H15Y11857   1.614   6.872   4.303  2.0082  0.5265  0.7621
  113SAPE  C31611858   1.521   6.987   4.463  0.3698  0.4846 -0.0601
  113SAPE  H16X11859   1.425   6.933   4.471 -0.3181  1.7375  0.3206
  113SAPE  H16Y11860   1.488   7.090   4.489 -0.2185 -0.2408  2.2327
  113SAPE  C31711861   1.609   6.940   4.584  0.0019  0.0897  0.2454
  113SAPE  H17X11862   1.707   6.993   4.580  0.6088 -1.0736 -1.7176
  113SAPE  H17Y11863   1.638   6.835   4.568 -2.4317 -0.8899  1.6667
  113SAPE  C31811864   1.543   6.934   4.718  0.7650  0.1717  0.2148
  113SAPE  H18X11865   1.450   6.875   4.704 -0.6285  2.4944 -0.9674
  113SAPE  H18Y11866   1.516   7.038   4.744 -2.1704 -0.3249 -0.5502
  113SAPE  H18Z11867   1.606   6.890   4.798  0.3990 -0.0752  0.3677
  114SAPE     N11868   2.896   4.465   2.011  0.2453  0.2885  0.4201
  114SAPE   HN111869   2.959   4.403   1.956  0.8997  1.9612 -0.7944
  114SAPE   HN211870   2.827   4.513   1.951 -0.5162 -2.1557 -0.7907
  114SAPE   HN311871   2.961   4.541   2.039 -0.3301  1.9222 -2.3494
  114SAPE   C1211872   2.840   4.389   2.131  0.4783  0.2079  0.2010
  114SAPE  H12A11873   2.934   4.341   2.168  2.6160  2.0341 -2.4464
  114SAPE  H12B11874   2.768   4.313   2.094  1.1801  0.0571 -0.8881
  114SAPE   C1111875   2.773   4.489   2.220  0.3936 -0.2921  0.2926
  114SAPE  H11A11876   2.841   4.576   2.229 -1.5857  1.2985  0.6497
  114SAPE  H11B11877   2.765   4.454   2.325  0.8748  0.5779  0.6291
  114SAPE     P11878   2.572   4.632   2.256 -0.0167 -0.5248 -0.1737
  114SAPE   O1311879   2.574   4.756   2.175 -0.1679  0.1082  0.2451
  114SAPE   O1411880   2.440   4.580   2.286 -0.0859  0.3780 -0.4199
  114SAPE   O1211881   2.642   4.523   2.171  0.2852  0.3970 -0.0861
  114SAPE   O1111882   2.651   4.659   2.388 -0.8855  0.0707 -0.4201
  114SAPE    C111883   2.617   4.586   2.508 -0.3237 -0.4603 -0.3949
  114SAPE    HA11884   2.571   4.487   2.486  0.5672 -1.1193  0.6244
  114SAPE    HB11885   2.701   4.560   2.577 -0.7860 -0.4929  0.1565
  114SAPE    C211886   2.510   4.657   2.604  0.2116 -0.1334 -0.1003
  114SAPE    HS11887   2.418   4.672   2.543 -0.0631 -3.3728 -0.6675
  114SAPE   O2111888   2.571   4.771   2.662  0.1320 -0.3884 -0.1851
  114SAPE   C2111889   2.500   4.879   2.653 -0.1706 -0.8486 -0.5328
  114SAPE   O2211890   2.395   4.890   2.603  0.0042 -0.2591  0.4064
  114SAPE   C2211891   2.578   5.003   2.712  0.4949  0.1960  0.2296
  114SAPE   H2R11892   2.685   4.975   2.719  0.5984  0.8812  1.6166
  114SAPE   H2S11893   2.567   5.079   2.632  1.7019 -1.1568 -1.3036
  114SAPE    C311894   2.455   4.569   2.719  0.1708 -0.2955  0.0351
  114SAPE    HX11895   2.429   4.478   2.661  0.2200 -0.4607  0.2746
  114SAPE    HY11896   2.366   4.610   2.771  0.7893 -0.5845  1.3536
  114SAPE   O3111897   2.560   4.538   2.814  0.4260  0.0215  0.1272
  114SAPE   C3111898   2.573   4.618   2.926 -0.0415  0.9075  0.1557
  114SAPE   O3211899   2.497   4.707   2.951 -0.4828  0.7233 -0.2647
  114SAPE   C3211900   2.689   4.578   3.006 -0.6230  0.2121 -0.5960
  114SAPE   H2X11901   2.783   4.607   2.954  0.2552 -1.1592  0.1759
  114SAPE   H2Y11902   2.685   4.467   3.013  0.1633  0.2602  1.2803
  114SAPE   C2311903   2.520   5.056   2.843  0.4184  0.4641  0.8270
  114SAPE   H3R11904   2.514   4.977   2.921 -4.2134 -0.2812  0.0235
  114SAPE   H3S11905   2.415   5.089   2.824 -0.5711 -2.5974  0.4251
  114SAPE   C2411906   2.602   5.176   2.898 -0.2634  0.1331 -0.4660
  114SAPE   H4R11907   2.556   5.230   2.984 -1.1497 -1.3197 -0.0020
  114SAPE   H4S11908   2.599   5.247   2.813 -1.7573  2.7199  1.5811
  114SAPE   C2511909   2.739   5.129   2.940  0.7864 -0.1117  0.2175
  114SAPE   H5R11910   2.805   5.089   2.862  2.6099 -1.2486  2.2193
  114SAPE   C2611911   2.777   5.104   3.069  0.4346 -0.2317 -0.4481
  114SAPE   H6R11912   2.885   5.087   3.084  0.3738  0.8186  1.6222
  114SAPE   C2711913   2.691   5.116   3.195 -0.1811  0.3680  0.4945
  114SAPE   H7R11914   2.629   5.208   3.180  0.0521  0.4698  0.1546
  114SAPE   H7S11915   2.745   5.151   3.286  0.4061 -1.5996  0.9413
  114SAPE   C2811916   2.618   4.996   3.238  0.1513  0.4365 -0.5282
  114SAPE   H8R11917   2.569   4.941   3.156 -1.7424  1.8123 -0.3602
  114SAPE   C2911918   2.627   4.936   3.357 -0.5380 -0.2072 -0.4816
  114SAPE   H9R11919   2.565   4.847   3.375  0.3862 -0.8852 -0.6046
  114SAPE  C21011920   2.699   4.986   3.484 -0.1585 -0.8144 -0.4756
  114SAPE  H10R11921   2.627   4.964   3.565  0.0331 -0.3712 -0.1799
  114SAPE  H10S11922   2.707   5.097   3.481 -1.4210 -0.5516  2.4594
  114SAPE  C21111923   2.830   4.922   3.527  0.2528 -0.5578  0.2115
  114SAPE  H11R11924   2.921   4.956   3.475  0.3284 -2.5031 -1.0128
  114SAPE  C21211925   2.845   4.828   3.615  0.0668  0.0017 -0.2651
  114SAPE  H12R11926   2.947   4.788   3.631  0.8253  1.5576 -1.0208
  114SAPE  C21311927   2.749   4.761   3.707  0.6612 -0.5819 -0.4032
  114SAPE  H13R11928   2.717   4.663   3.664  0.3173 -0.1738 -1.1057
  114SAPE  H13S11929   2.665   4.832   3.722  0.0989 -1.2461 -0.3848
  114SAPE  C21411930   2.811   4.733   3.844 -0.2562  0.7409 -0.4699
  114SAPE  H14R11931   2.795   4.804   3.927 -2.4925 -1.5766  1.2164
  114SAPE  C21511932   2.856   4.614   3.880 -0.2599 -0.4084 -0.5720
  114SAPE  H15R11933   2.898   4.605   3.981  0.0815  0.7756 -0.5917
  114SAPE  C21611934   2.868   4.490   3.791  0.4498  0.2548  0.6606
  114SAPE  H16R11935   2.850   4.515   3.684  2.0392 -1.0069  0.0579
  114SAPE  H16S11936   2.793   4.414   3.823  1.4651 -0.3069  1.7389
  114SAPE  C21711937   3.005   4.417   3.781 -0.1415 -0.2300  0.3204
  114SAPE  H17R11938   3.077   4.496   3.754  1.4884 -1.0363  2.0762
  114SAPE  H17S11939   3.017   4.344   3.698  0.6425 -0.3524  0.5328
  114SAPE  C21811940   3.045   4.353   3.913 -0.4879 -0.2570  0.7452
  114SAPE  H18R11941   2.979   4.265   3.931 -3.3276  1.0272 -2.2620
  114SAPE  H18S11942   3.028   4.435   3.986  0.8936  0.4692  0.2705
  114SAPE  C21911943   3.190   4.301   3.909  0.1928  0.0930 -0.7531
  114SAPE  H19R11944   3.250   4.392   3.888 -0.2354  0.5146 -0.1766
  114SAPE  H19S11945   3.200   4.232   3.823  1.3396  1.2497 -1.5974
  114SAPE  C22011946   3.244   4.245   4.044  0.2568  0.9570  0.1923
  114SAPE  H20R11947   3.354   4.258   4.036  0.3276 -0.7528 -3.1136
  114SAPE  H20S11948   3.206   4.141   4.059  0.2635  0.6343 -1.8247
  114SAPE  H20T11949   3.200   4.302   4.128  1.3733  2.7514 -0.3890
  114SAPE   C3311950   2.685   4.642   3.147  0.1490 -0.1049  0.5926
  114SAPE   H3X11951   2.588   4.627   3.201 -0.3146  0.2527 -0.1315
  114SAPE   H3Y11952   2.691   4.752   3.137  0.6116 -0.1857 -0.0605
  114SAPE   C3411953   2.786   4.595   3.247  0.0262 -0.2076 -0.0585
  114SAPE   H4X11954   2.791   4.647   3.345  2.1021  0.0341 -0.2504
  114SAPE   H4Y11955   2.892   4.612   3.217  0.2394  1.4218  1.4565
  114SAPE   C3511956   2.765   4.443   3.273  0.6153  0.2243  0.4755
  114SAPE   H5X11957   2.809   4.386   3.189  2.0619  0.9105  0.7342
  114SAPE   H5Y11958   2.655   4.429   3.279  0.9046 -1.8767  1.8964
  114SAPE   C3611959   2.839   4.397   3.399  1.1124  0.1473  0.1399
  114SAPE   H6X11960   2.845   4.473   3.480 -0.6008 -1.0013  1.4231
  114SAPE   H6Y11961   2.945   4.380   3.371  1.5872  1.2140  1.1895
  114SAPE   C3711962   2.775   4.265   3.441  0.5343  0.2182 -1.0314
  114SAPE   H7X11963   2.714   4.215   3.362 -2.3262 -0.4843  1.4440
  114SAPE   H7Y11964   2.704   4.286   3.523 -0.8155 -0.5235 -1.9725
  114SAPE   C3811965   2.879   4.163   3.490  0.2912 -0.4210 -0.2557
  114SAPE   H8X11966   2.940   4.214   3.567  0.9226 -1.8286  0.2085
  114SAPE   H8Y11967   2.954   4.148   3.410  0.9234  0.5066  0.1407
  114SAPE   C3911968   2.829   4.025   3.544 -0.5261 -0.4388  0.1632
  114SAPE   H9X11969   2.805   3.951   3.465 -1.7871 -0.0294  0.1359
  114SAPE   H9Y11970   2.735   4.039   3.602 -0.4422 -0.7001  0.3656
  114SAPE  C31011971   2.930   3.950   3.623 -0.1037 -0.2094 -0.2165
  114SAPE  H10X11972   2.958   4.014   3.710  0.1374 -0.1144 -0.3647
  114SAPE  H10Y11973   3.016   3.925   3.557 -0.6688 -0.7290 -0.7672
  114SAPE  C31111974   2.872   3.816   3.677  0.5589  0.9178 -1.3415
  114SAPE  H11X11975   2.829   3.773   3.584  2.1096 -0.8095 -1.3145
  114SAPE  H11Y11976   2.786   3.822   3.747  2.4396 -0.5087  1.2614
  114SAPE  C31211977   2.980   3.731   3.739  0.2719 -0.3859  0.1519
  114SAPE  H12X11978   3.011   3.774   3.837  1.5170  0.6324 -0.6606
  114SAPE  H12Y11979   3.075   3.727   3.682  0.3116 -3.0387  0.2662
  114SAPE  C31311980   2.925   3.593   3.768 -0.2494  1.0754  0.5130
  114SAPE  H13X11981   3.011   3.533   3.805 -0.6130  1.4239  1.9879
  114SAPE  H13Y11982   2.894   3.559   3.667  0.2554 -1.0234  1.0319
  114SAPE  C31411983   2.810   3.586   3.869  0.1954 -0.4461  0.4531
  114SAPE  H14X11984   2.734   3.512   3.837  0.0927  0.1449 -0.7005
  114SAPE  H14Y11985   2.750   3.680   3.880 -0.8551 -1.1215  0.6913
  114SAPE  C31511986   2.852   3.562   4.018  0.4724 -0.3372 -1.1321
  114SAPE  H15X11987   2.923   3.643   4.045 -0.9597  0.3656  0.7943
  114SAPE  H15Y11988   2.907   3.465   4.017  3.1721  1.1240 -1.3430
  114SAPE  C31611989   2.735   3.572   4.116  0.2328 -0.0839 -0.0884
  114SAPE  H16X11990   2.659   3.494   4.095  1.3081 -0.9495 -0.9012
  114SAPE  H16Y11991   2.689   3.673   4.113  0.6514  0.0982 -2.0443
  114SAPE  C31711992   2.779   3.559   4.257 -0.1262  0.3770 -0.0886
  114SAPE  H17X11993   2.818   3.654   4.299 -2.3802  1.2373  0.2029
  114SAPE  H17Y11994   2.850   3.473   4.257 -1.1617 -0.5107 -1.4566
  114SAPE  C31811995   2.678   3.505   4.361 -0.2167 -0.0256  0.7607
  114SAPE  H18X11996   2.640   3.404   4.335 -2.1753  1.5561 -3.3398
  114SAPE  H18Y11997   2.581   3.558   4.371 -0.3047  0.2477 -1.2453
  114SAPE  H18Z11998   2.726   3.496   4.461 -1.1935  1.0295  1.3527
  115SAPE     N11999   0.507   5.334   2.522  0.3442 -0.0389 -0.4112
  115SAPE   HN112000   0.462   5.427   2.509 -0.1219 -0.3794 -1.3166
  115SAPE   HN212001   0.440   5.283   2.461 -0.4731 -1.9366  1.9296
  115SAPE   HN312002   0.495   5.318   2.624  0.9808 -0.3896 -0.3863
  115SAPE   C1212003   0.648   5.338   2.478  0.1111  0.2369 -0.1772
  115SAPE  H12A12004   0.644   5.399   2.385 -0.2990  1.0312  0.3615
  115SAPE  H12B12005   0.666   5.229   2.462 -2.0310 -0.1389 -0.3226
  115SAPE   C1112006   0.742   5.394   2.585  0.7307  0.5891 -0.5145
  115SAPE  H11A12007   0.848   5.375   2.556  0.6686 -0.4404 -0.1252
  115SAPE  H11B12008   0.744   5.325   2.672  1.1962  0.9040 -0.2744
  115SAPE     P12009   0.803   5.642   2.579  0.2194  0.7039 -0.2189
  115SAPE   O1312010   0.817   5.619   2.439 -0.0374 -0.2903  0.1002
  115SAPE   O1412011   0.752   5.773   2.618  0.3049 -0.1494  0.2639
  115SAPE   O1212012   0.712   5.527   2.634  0.7794 -0.0360  0.2602
  115SAPE   O1112013   0.941   5.617   2.636  0.3497 -0.7183 -0.0063
  115SAPE    C112014   0.986   5.661   2.763  1.0928 -0.1311  0.1176
  115SAPE    HA12015   1.096   5.672   2.754  1.0736  1.7262  1.4681
  115SAPE    HB12016   0.941   5.758   2.792  0.0371 -0.5566 -0.0404
  115SAPE    C212017   0.971   5.552   2.873 -0.6241  0.0384  0.3201
  115SAPE    HS12018   1.044   5.578   2.952  1.1787 -2.7281 -0.2914
  115SAPE   O2112019   1.009   5.423   2.814  0.1746  0.5572 -0.3062
  115SAPE   C2112020   1.064   5.338   2.901 -1.1841  0.4401  0.0605
  115SAPE   O2212021   1.086   5.363   3.017 -0.8404 -0.1962 -0.1635
  115SAPE   C2212022   1.105   5.204   2.834  0.0336  0.4857 -0.7311
  115SAPE   H2R12023   1.016   5.157   2.787  0.5325 -2.3882  0.9688
  115SAPE   H2S12024   1.185   5.227   2.760  1.5099 -0.1124  0.6080
  115SAPE    C312025   0.825   5.552   2.932  0.7972  0.0980 -0.6238
  115SAPE    HX12026   0.745   5.520   2.863  0.4254 -1.5974  0.5424
  115SAPE    HY12027   0.816   5.660   2.957  0.3307 -0.5399  2.3413
  115SAPE   O3112028   0.809   5.479   3.056 -0.3277 -0.2562  0.2156
  115SAPE   C3112029   0.767   5.353   3.051  0.3053 -0.0990  0.3996
  115SAPE   O3212030   0.755   5.287   2.948  0.1984  0.8576  0.4272
  115SAPE   C3212031   0.717   5.309   3.192 -0.3128  0.6360 -0.4702
  115SAPE   H2X12032   0.620   5.263   3.165  0.3184  0.1263 -1.9953
  115SAPE   H2Y12033   0.695   5.393   3.260 -0.0404  0.7227 -0.4880
  115SAPE   C2312034   1.157   5.101   2.934  0.6650  0.2555  0.2749
  115SAPE   H3R12035   1.156   5.005   2.878  1.0732  0.2745  0.2272
  115SAPE   H3S12036   1.088   5.089   3.020  1.6593  0.2295  1.0919
  115SAPE   C2412037   1.297   5.120   2.984  0.0670  0.1585  0.1351
  115SAPE   H4R12038   1.307   5.219   3.033  0.0263 -0.0536  0.5753
  115SAPE   H4S12039   1.376   5.111   2.907  0.5535 -3.8816  0.8709
  115SAPE   C2512040   1.332   5.012   3.083 -0.0079 -0.0521  0.1395
  115SAPE   H5R12041   1.347   4.918   3.027  0.1174 -0.2198  0.4519
  115SAPE   C2612042   1.353   5.008   3.217  0.3180  0.2157 -0.1163
  115SAPE   H6R12043   1.379   4.913   3.267  3.0968  0.6430 -0.6380
  115SAPE   C2712044   1.329   5.128   3.307  0.0950  0.4080  0.6387
  115SAPE   H7R12045   1.253   5.101   3.383 -0.5837 -1.0752 -0.4973
  115SAPE   H7S12046   1.290   5.217   3.253  1.4001 -0.4598 -1.9259
  115SAPE   C2812047   1.454   5.153   3.378 -0.3702  0.0272  0.0535
  115SAPE   H8R12048   1.529   5.211   3.322  0.3526  1.3823  2.2944
  115SAPE   C2912049   1.491   5.101   3.497 -0.1413  0.4071  0.4528
  115SAPE   H9R12050   1.586   5.121   3.548  0.3301 -1.6180  0.4620
  115SAPE  C21012051   1.396   5.019   3.587  0.4226  0.9469 -0.0653
  115SAPE  H10R12052   1.458   4.941   3.636 -1.3750 -0.1741  0.5356
  115SAPE  H10S12053   1.313   4.968   3.533 -1.1785  1.4089  1.8526
  115SAPE  C21112054   1.333   5.108   3.685  0.4324  0.3594 -0.3140
  115SAPE  H11R12055   1.254   5.172   3.644 -0.0502  0.7296  1.1298
  115SAPE  C21212056   1.344   5.104   3.813  0.3759 -0.4033  0.2136
  115SAPE  H12R12057   1.283   5.181   3.863  3.1994  0.7672  2.0876
  115SAPE  C21312058   1.445   5.038   3.904  0.7298  0.3057 -0.2305
  115SAPE  H13R12059   1.470   4.940   3.859 -1.5108 -0.4251 -0.0128
  115SAPE  H13S12060   1.398   5.017   4.002  0.2565  0.5851 -0.3975
  115SAPE  C21412061   1.576   5.108   3.921  0.2006 -0.2571  0.9753
  115SAPE  H14R12062   1.612   5.167   3.835  2.4930 -1.1710  1.2151
  115SAPE  C21512063   1.646   5.115   4.032 -0.5971  0.1015 -0.2752
  115SAPE  H15R12064   1.743   5.166   4.028 -0.0726 -0.7614  0.8717
  115SAPE  C21612065   1.614   5.055   4.168 -0.5738  0.4473 -0.9652
  115SAPE  H16R12066   1.676   4.977   4.218 -0.7078  0.8628 -0.1233
  115SAPE  H16S12067   1.524   4.991   4.158 -0.8430  0.3098  1.6326
  115SAPE  C21712068   1.586   5.169   4.268 -0.2424  0.2068  0.2821
  115SAPE  H17R12069   1.519   5.241   4.216  0.0346  0.8957  0.8587
  115SAPE  H17S12070   1.683   5.214   4.299  0.9385 -1.8166 -0.3092
  115SAPE  C21812071   1.513   5.117   4.393 -1.1752  0.7799  0.3058
  115SAPE  H18R12072   1.590   5.054   4.442 -0.6816  1.1450  0.0186
  115SAPE  H18S12073   1.428   5.060   4.349 -0.8737  0.5665 -0.0059
  115SAPE  C21912074   1.465   5.224   4.479 -0.1164  0.0566 -0.2689
  115SAPE  H19R12075   1.383   5.276   4.426 -0.6326 -0.1050  0.3539
  115SAPE  H19S12076   1.543   5.302   4.492 -2.5592  2.5282  0.5502
  115SAPE  C22012077   1.419   5.171   4.617  0.4790 -0.2021  0.1198
  115SAPE  H20R12078   1.389   5.246   4.693 -1.6091 -1.6967  0.8562
  115SAPE  H20S12079   1.496   5.103   4.661  0.7359 -1.8374 -2.6430
  115SAPE  H20T12080   1.329   5.106   4.613  0.8897 -0.9760  2.1095
  115SAPE   C3312081   0.804   5.198   3.246 -0.4162  0.1364 -0.0930
  115SAPE   H3X12082   0.818   5.112   3.176 -0.4102  1.5385 -1.8810
  115SAPE   H3Y12083   0.750   5.148   3.329  0.9961 -0.9167  0.2353
  115SAPE   C3412084   0.940   5.238   3.300 -0.2446  0.0817 -0.1925
  115SAPE   H4X12085   0.933   5.349   3.310 -0.4714  0.0755 -0.2697
  115SAPE   H4Y12086   1.000   5.216   3.208 -0.0429  0.5522 -0.1758
  115SAPE   C3512087   0.979   5.172   3.431 -0.0039 -0.3979 -0.4074
  115SAPE   H5X12088   1.088   5.184   3.447 -0.4684  2.1845  1.4260
  115SAPE   H5Y12089   0.964   5.062   3.419  0.9952 -0.6171  0.2483
  115SAPE   C3612090   0.917   5.227   3.558  0.5874  0.2635  0.4513
  115SAPE   H6X12091   0.807   5.227   3.538  0.6343 -3.2434 -0.4406
  115SAPE   H6Y12092   0.953   5.332   3.571  3.4859 -0.7106  1.0545
  115SAPE   C3712093   0.948   5.148   3.687  0.0334  0.0527 -0.3977
  115SAPE   H7X12094   1.055   5.125   3.707  0.0103  0.8924  0.7220
  115SAPE   H7Y12095   0.912   5.043   3.674  0.7989 -0.2162 -0.3956
  115SAPE   C3812096   0.867   5.207   3.805 -1.4823  0.4700 -0.9468
  115SAPE   H8X12097   0.761   5.176   3.792 -1.4489 -0.3630  0.4920
  115SAPE   H8Y12098   0.876   5.318   3.811 -1.6603  0.4133  1.2901
  115SAPE   C3912099   0.922   5.142   3.932  0.3676 -0.2853 -0.0588
  115SAPE   H9X12100   1.029   5.167   3.950  0.5557 -1.4476  0.5641
  115SAPE   H9Y12101   0.925   5.032   3.917  0.0561 -0.1632 -1.1414
  115SAPE  C31012102   0.822   5.166   4.047 -0.2592  1.1353 -0.9481
  115SAPE  H10X12103   0.811   5.271   4.083 -2.5943  0.1082  1.7760
  115SAPE  H10Y12104   0.863   5.106   4.131  0.2236  2.4550 -0.2210
  115SAPE  C31112105   0.683   5.093   4.038 -0.2358 -0.0183 -0.0413
  115SAPE  H11X12106   0.695   4.990   3.998 -0.1049  0.2830 -0.8128
  115SAPE  H11Y12107   0.630   5.143   3.954  2.5559 -0.7516 -2.3984
  115SAPE  C31212108   0.599   5.100   4.165 -0.3016 -0.1417 -0.7459
  115SAPE  H12X12109   0.654   5.042   4.242 -0.8949  1.5667  1.0270
  115SAPE  H12Y12110   0.498   5.057   4.150  0.3459 -1.9903 -0.0654
  115SAPE  C31312111   0.579   5.238   4.222 -0.2211  0.1768  0.2587
  115SAPE  H13X12112   0.679   5.287   4.225 -0.5017  0.7401  0.7140
  115SAPE  H13Y12113   0.546   5.240   4.328 -0.0866 -3.6789  0.4862
  115SAPE  C31412114   0.496   5.333   4.143 -0.1060 -0.1737 -0.0069
  115SAPE  H14X12115   0.402   5.278   4.123  0.9318 -1.2561 -2.3453
  115SAPE  H14Y12116   0.529   5.361   4.041 -2.9317  1.8969 -0.4671
  115SAPE  C31512117   0.446   5.463   4.206 -0.4908 -0.1829 -1.3587
  115SAPE  H15X12118   0.513   5.550   4.192 -1.8662  1.4407  1.2841
  115SAPE  H15Y12119   0.434   5.453   4.316 -2.1378 -0.2812 -1.5216
  115SAPE  C31612120   0.308   5.502   4.149  0.2860 -0.1863  0.3927
  115SAPE  H16X12121   0.225   5.434   4.177  0.3073 -0.2164  0.3818
  115SAPE  H16Y12122   0.314   5.508   4.038 -0.4797  1.1838  0.4074
  115SAPE  C31712123   0.265   5.648   4.192 -0.6385 -0.1927  0.2539
  115SAPE  H17X12124   0.337   5.723   4.152 -1.9020  0.6519 -0.5041
  115SAPE  H17Y12125   0.281   5.642   4.302  0.9391 -2.2566 -0.0330
  115SAPE  C31812126   0.129   5.690   4.152  0.4085  0.0421  0.1627
  115SAPE  H18X12127   0.124   5.731   4.049 -0.9909  0.1925  0.2701
  115SAPE  H18Y12128   0.093   5.772   4.216  0.5804  0.7348 -0.6127
  115SAPE  H18Z12129   0.048   5.614   4.164 -0.5262  1.0286  0.2785
  116SAPE     N12130   3.394   2.769   1.842 -0.5268  0.1387  0.9178
  116SAPE   HN112131   3.400   2.873   1.837 -2.9135  0.3777  1.7145
  116SAPE   HN212132   3.469   2.716   1.794  0.1801  1.0544  0.9805
  116SAPE   HN312133   3.302   2.735   1.807 -0.9883  1.4532  0.7648
  116SAPE   C1212134   3.409   2.732   1.988  0.0293  0.0009 -0.1046
  116SAPE  H12A12135   3.490   2.794   2.031  0.3478  0.3592 -1.1736
  116SAPE  H12B12136   3.432   2.623   1.993 -1.1994 -0.2555  0.2406
  116SAPE   C1112137   3.271   2.766   2.062 -0.5009  0.2162  0.3171
  116SAPE  H11A12138   3.263   2.876   2.046 -1.9060 -0.0072 -0.7215
  116SAPE  H11B12139   3.295   2.743   2.168  0.0988 -2.1347 -0.2680
  116SAPE     P12140   3.128   2.551   2.097  0.1303  0.3918  0.3727
  116SAPE   O1312141   2.981   2.519   2.094  0.0207  0.1197  0.1962
  116SAPE   O1412142   3.213   2.443   2.044  0.4298 -0.5346  0.6620
  116SAPE   O1212143   3.159   2.694   2.015 -0.1901 -0.5414  0.1577
  116SAPE   O1112144   3.161   2.578   2.250  0.1728  0.1657 -0.3047
  116SAPE    C112145   3.159   2.474   2.345  0.3323  0.1348 -0.1807
  116SAPE    HA12146   3.085   2.491   2.426 -0.8336 -1.5262 -0.8551
  116SAPE    HB12147   3.133   2.375   2.303 -1.1947  1.2786 -2.0640
  116SAPE    C212148   3.304   2.461   2.418  0.5521  0.1186 -0.2612
  116SAPE    HS12149   3.305   2.367   2.477  1.9369 -1.0442 -2.0420
  116SAPE   O2112150   3.314   2.579   2.498  0.5556 -0.0081  0.0045
  116SAPE   C2112151   3.240   2.578   2.605 -0.5580  0.2990  0.1618
  116SAPE   O2212152   3.193   2.479   2.658  0.3426  0.3277  0.4027
  116SAPE   C2212153   3.216   2.727   2.659  0.3225 -0.5052  0.3638
  116SAPE   H2R12154   3.315   2.764   2.692  0.7936  0.0726 -1.5637
  116SAPE   H2S12155   3.187   2.798   2.579 -0.1788  1.2831  2.0673
  116SAPE    C312156   3.425   2.440   2.320 -0.6654 -0.2645 -0.1083
  116SAPE    HX12157   3.438   2.538   2.270  1.3774  0.5264  1.7974
  116SAPE    HY12158   3.401   2.358   2.250 -2.3401 -0.1374  0.2743
  116SAPE   O3112159   3.548   2.409   2.388  0.3965  0.1287  0.1152
  116SAPE   C3112160   3.550   2.289   2.454 -0.2008 -0.6998  0.0462
  116SAPE   O3212161   3.470   2.200   2.441 -0.2764 -0.2014  0.6241
  116SAPE   C3212162   3.673   2.290   2.539 -1.0465 -0.2551  0.0949
  116SAPE   H2X12163   3.727   2.385   2.519 -1.5442  0.0132  0.0163
  116SAPE   H2Y12164   3.738   2.208   2.500  0.3728  1.0333 -0.3220
  116SAPE   C2312165   3.111   2.720   2.779 -0.1576 -0.0267 -0.4604
  116SAPE   H3R12166   3.140   2.651   2.861  0.4016 -1.0539 -1.4756
  116SAPE   H3S12167   3.021   2.663   2.745 -0.2161 -0.3615  0.2449
  116SAPE   C2412168   3.068   2.855   2.829  0.5475  0.3155  0.2922
  116SAPE   H4R12169   3.064   2.926   2.744 -0.0467 -0.5997 -0.4673
  116SAPE   H4S12170   3.139   2.891   2.907 -1.2940  1.2450  1.6228
  116SAPE   C2512171   2.931   2.847   2.901 -0.5093  0.0092  0.8133
  116SAPE   H5R12172   2.843   2.830   2.837  0.1527 -2.0220  0.3708
  116SAPE   C2612173   2.916   2.867   3.028  0.1729  0.0583 -0.4325
  116SAPE   H6R12174   2.811   2.853   3.059  0.5700 -0.6444  0.6477
  116SAPE   C2712175   3.021   2.896   3.133  0.3994 -0.9840 -0.6637
  116SAPE   H7R12176   3.031   3.006   3.124  0.6410 -0.9209  0.3341
  116SAPE   H7S12177   3.122   2.852   3.119  0.5838 -0.7226 -0.1655
  116SAPE   C2812178   2.957   2.851   3.261 -0.9911 -0.0333 -1.0305
  116SAPE   H8R12179   2.956   2.741   3.260 -0.0330 -0.1685  1.6960
  116SAPE   C2912180   2.916   2.923   3.368  0.7225 -0.1524 -0.0055
  116SAPE   H9R12181   2.865   2.869   3.449  2.0583  0.5236  1.3219
  116SAPE  C21012182   2.913   3.068   3.389  1.0264  0.8093  0.5698
  116SAPE  H10R12183   3.005   3.112   3.346  0.1368  1.2445 -0.9861
  116SAPE  H10S12184   2.899   3.086   3.498 -1.6884  1.9540  0.1161
  116SAPE  C21112185   2.795   3.119   3.314 -0.3933  0.1343 -0.7054
  116SAPE  H11R12186   2.791   3.100   3.205  1.4040 -0.0410 -0.7588
  116SAPE  C21212187   2.705   3.196   3.371 -0.1788 -0.0546 -0.1920
  116SAPE  H12R12188   2.628   3.236   3.304 -0.2977 -0.7419 -0.4746
  116SAPE  C21312189   2.712   3.224   3.521  0.4053 -0.1383 -0.1367
  116SAPE  H13R12190   2.814   3.248   3.559 -0.7838 -0.0687  3.4005
  116SAPE  H13S12191   2.687   3.132   3.579  0.7542 -0.3315 -0.2900
  116SAPE  C21412192   2.639   3.348   3.569  0.3720  0.3598 -0.1816
  116SAPE  H14R12193   2.691   3.443   3.546  0.0436  0.4240 -0.6679
  116SAPE  C21512194   2.524   3.356   3.642 -0.4449 -0.3436 -0.0918
  116SAPE  H15R12195   2.469   3.445   3.675 -0.7746  0.0255 -1.5759
  116SAPE  C21612196   2.443   3.230   3.672 -0.3597 -0.3522  0.3694
  116SAPE  H16R12197   2.462   3.150   3.598  0.6752 -0.8453  1.1468
  116SAPE  H16S12198   2.337   3.261   3.656 -0.1564 -0.1177 -0.5887
  116SAPE  C21712199   2.473   3.164   3.802  0.5510 -0.0886 -0.3457
  116SAPE  H17R12200   2.572   3.114   3.797  0.9725  0.8046 -1.4251
  116SAPE  H17S12201   2.409   3.081   3.840  1.8300  1.5073  6.9005
  116SAPE  C21812202   2.473   3.260   3.928  0.4726 -0.1577  0.3678
  116SAPE  H18R12203   2.371   3.304   3.933 -0.1954 -1.6775  0.6125
  116SAPE  H18S12204   2.541   3.348   3.921  0.4313 -0.2103 -0.8300
  116SAPE  C21912205   2.498   3.177   4.051  0.4280  0.0414 -1.0234
  116SAPE  H19R12206   2.456   3.075   4.047  1.0992 -0.8156  4.5790
  116SAPE  H19S12207   2.455   3.227   4.141  0.6350 -0.5409 -0.5921
  116SAPE  C22012208   2.649   3.159   4.088 -0.3443 -0.2264  0.3151
  116SAPE  H20R12209   2.705   3.254   4.076 -1.2816  0.0757 -2.5175
  116SAPE  H20S12210   2.691   3.075   4.030 -0.2778 -0.2257  0.3630
  116SAPE  H20T12211   2.651   3.117   4.190 -0.1002 -3.1087 -0.7831
  116SAPE   C3312212   3.647   2.270   2.688 -0.0004 -0.2032  0.1155
  116SAPE   H3X12213   3.737   2.281   2.752  0.2237 -1.9337  0.1481
  116SAPE   H3Y12214   3.606   2.167   2.702  1.6739 -0.8868  0.1874
  116SAPE   C3412215   3.541   2.371   2.739 -0.4839  0.0752  0.3788
  116SAPE   H4X12216   3.446   2.323   2.709 -1.2446  0.8134  1.5014
  116SAPE   H4Y12217   3.547   2.466   2.682  1.0086 -0.8129 -1.0371
  116SAPE   C3512218   3.552   2.382   2.885  0.2001  0.5467 -0.1372
  116SAPE   H5X12219   3.656   2.382   2.925 -0.6753  1.2776  2.3834
  116SAPE   H5Y12220   3.504   2.293   2.933  1.1756 -0.1242 -0.3656
  116SAPE   C3612221   3.489   2.509   2.944  0.0666  0.3091  0.5328
  116SAPE   H6X12222   3.386   2.507   2.903  0.1508 -1.8158  0.3041
  116SAPE   H6Y12223   3.550   2.597   2.911  0.3998 -0.8035 -2.0423
  116SAPE   C3712224   3.474   2.498   3.093  0.4857  0.0020 -0.1550
  116SAPE   H7X12225   3.572   2.501   3.145 -0.2057 -0.0735  1.2149
  116SAPE   H7Y12226   3.422   2.409   3.135  0.1018  1.3515  2.4110
  116SAPE   C3812227   3.397   2.626   3.139 -0.1509 -0.8494  0.2223
  116SAPE   H8X12228   3.292   2.622   3.104  0.1999  3.4323 -2.1111
  116SAPE   H8Y12229   3.440   2.715   3.087 -0.2863 -1.2631 -0.6236
  116SAPE   C3912230   3.422   2.653   3.288  0.0721 -0.4198 -0.0447
  116SAPE   H9X12231   3.530   2.675   3.305 -0.7098  1.3251  3.5604
  116SAPE   H9Y12232   3.402   2.563   3.351  1.6600 -0.3425  0.6255
  116SAPE  C31012233   3.337   2.764   3.342  0.0528  0.5249 -1.3571
  116SAPE  H10X12234   3.239   2.744   3.292  0.9771 -2.9945 -2.0534
  116SAPE  H10Y12235   3.370   2.859   3.294  3.5779  0.6589  0.9374
  116SAPE  C31112236   3.331   2.768   3.494  0.5425  0.7889  0.3637
  116SAPE  H11X12237   3.432   2.795   3.532  2.3777 -0.4085 -3.1717
  116SAPE  H11Y12238   3.319   2.664   3.530 -3.0863 -0.5040 -3.6669
  116SAPE  C31212239   3.228   2.867   3.550 -0.1183 -0.4418 -0.5108
  116SAPE  H12X12240   3.123   2.842   3.522 -1.1504  0.1556  2.4712
  116SAPE  H12Y12241   3.249   2.971   3.518  2.5912 -1.2271 -1.5556
  116SAPE  C31312242   3.223   2.871   3.704 -0.1715  0.1110 -0.4511
  116SAPE  H13X12243   3.320   2.909   3.743 -1.3002  1.5136  1.1257
  116SAPE  H13Y12244   3.197   2.777   3.757  1.1030 -0.3821 -0.6642
  116SAPE  C31412245   3.108   2.960   3.754 -0.6206  0.2867 -0.3439
  116SAPE  H14X12246   3.012   2.963   3.699 -0.7001  1.9517 -0.1599
  116SAPE  H14Y12247   3.153   3.061   3.761 -1.5381  0.7985 -1.4697
  116SAPE  C31512248   3.059   2.927   3.905  0.1781  0.4938 -0.2365
  116SAPE  H15X12249   3.152   2.909   3.963 -0.8677  1.6565  1.9157
  116SAPE  H15Y12250   3.004   2.831   3.900 -1.7178  1.5034  0.1871
  116SAPE  C31612251   2.984   3.037   3.975  0.3289 -0.4124 -0.3805
  116SAPE  H16X12252   2.881   3.042   3.934 -0.0663  3.0445  0.7356
  116SAPE  H16Y12253   3.018   3.140   3.951  3.2152 -0.9869  0.8225
  116SAPE  C31712254   2.992   3.023   4.129  0.7215  0.3039  0.2314
  116SAPE  H17X12255   2.920   3.094   4.175  2.5626  0.7250  2.7119
  116SAPE  H17Y12256   3.095   3.045   4.165  0.1587 -0.0185  2.1787
  116SAPE  C31812257   2.940   2.882   4.177  0.2879  0.0065  0.1947
  116SAPE  H18X12258   2.837   2.868   4.139  0.8624 -1.3217 -0.9347
  116SAPE  H18Y12259   2.937   2.864   4.287 -0.4589 -1.3607 -0.0333
  116SAPE  H18Z12260   2.999   2.804   4.125  1.4370  1.6465 -1.0896
  117SOPE     N12261   4.834   4.925   6.639 -0.2122 -0.0946  0.1235
  117SOPE   HN112262   4.802   4.889   6.731  0.1490  0.4128  0.4535
  117SOPE   HN212263   4.931   4.959   6.653 -0.0267 -0.4006 -0.3602
  117SOPE   HN312264   4.776   5.011   6.635 -0.4120 -0.0059  2.9997
  117SOPE   C1212265   4.799   4.817   6.536 -0.2301 -0.9557 -0.4127
  117SOPE  H12A12266   4.858   4.728   6.565  1.2908  0.3242  0.6179
  117SOPE  H12B12267   4.831   4.843   6.433 -0.1684 -0.5732 -0.2980
  117SOPE   C1112268   4.647   4.796   6.532 -0.1092  0.2009  0.3865
  117SOPE  H11A12269   4.652   4.708   6.464  1.5708 -0.1914  0.9663
  117SOPE  H11B12270   4.587   4.879   6.491 -1.6110  0.0092  2.0729
  117SOPE     P12271   4.437   4.736   6.674  0.0061 -0.1486 -0.5044
  117SOPE   O1312272   4.386   4.868   6.719 -0.0223 -0.1351  0.4847
  117SOPE   O1412273   4.399   4.630   6.767  0.0775  0.0525 -0.0771
  117SOPE   O1212274   4.596   4.746   6.662  0.3101 -0.0711  0.9393
  117SOPE   O1112275   4.381   4.710   6.532 -0.3178  0.4047  0.3353
  117SOPE    C112276   4.377   4.582   6.473  0.1694 -0.2136 -0.7562
  117SOPE    HA12277   4.292   4.523   6.515  0.6055  0.9695  1.9582
  117SOPE    HB12278   4.469   4.526   6.500  0.0178  0.0610  0.3766
  117SOPE    C212279   4.363   4.588   6.320  0.9819  0.5242 -0.0394
  117SOPE    HS12280   4.464   4.627   6.295  2.2920 -2.9730 -0.6957
  117SOPE   O2112281   4.261   4.687   6.288 -0.4377  0.0370  0.6758
  117SOPE   C2112282   4.295   4.767   6.190 -0.1547  0.4367  0.1381
  117SOPE   O2212283   4.391   4.762   6.119 -0.2208  0.4417 -0.2293
  117SOPE   C2212284   4.182   4.867   6.180  0.2383 -0.2169 -0.9120
  117SOPE   H2R12285   4.172   4.911   6.282  1.0162 -3.3534  0.6649
  117SOPE   H2S12286   4.086   4.814   6.161 -1.6450  2.6482  0.0051
  117SOPE    C312287   4.344   4.451   6.254  0.2145 -0.0288 -0.2917
  117SOPE    HX12288   4.254   4.409   6.303 -0.6041  2.1440  0.1917
  117SOPE    HY12289   4.425   4.381   6.283  1.2651  0.2765 -2.3404
  117SOPE   O3112290   4.326   4.464   6.114  0.1398  0.6530  0.1302
  117SOPE   C3112291   4.438   4.486   6.055  0.0601  0.0259 -0.1617
  117SOPE   O3212292   4.551   4.485   6.107  0.0671 -0.6523 -0.1028
  117SOPE   C3212293   4.424   4.498   5.905  0.3976  0.2070  0.3399
  117SOPE   H2X12294   4.322   4.536   5.880 -0.3470 -2.5359 -1.1544
  117SOPE   H2Y12295   4.436   4.401   5.852 -1.6439  0.2038 -0.2021
  117SOPE   C2312296   4.211   4.973   6.081 -1.3089 -0.5087  0.5405
  117SOPE   H3R12297   4.311   5.022   6.087 -0.5701 -2.0564  1.5840
  117SOPE   H3S12298   4.132   5.051   6.084 -0.6307  0.3865 -2.0805
  117SOPE   C2412299   4.205   4.921   5.931 -0.2785  0.0276  0.1632
  117SOPE   H4R12300   4.285   4.846   5.912 -1.9666 -1.7103 -0.3878
  117SOPE   H4S12301   4.110   4.865   5.922 -1.5677  1.8033  1.8232
  117SOPE   C2512302   4.214   5.022   5.818 -0.0157 -0.2035  0.7751
  117SOPE   H5R12303   4.120   5.081   5.820 -0.1386 -0.3901  0.5024
  117SOPE   H5S12304   4.308   5.080   5.835 -0.7027  1.0034  0.5694
  117SOPE   C2612305   4.239   4.957   5.680 -0.8430  0.3733 -0.0037
  117SOPE   H6R12306   4.325   4.887   5.682 -1.4393 -0.3992 -0.9833
  117SOPE   H6S12307   4.148   4.895   5.663  0.3171 -1.0073 -1.4893
  117SOPE   C2712308   4.251   5.069   5.576 -0.0834  0.4756 -0.5849
  117SOPE   H7R12309   4.183   5.157   5.584 -1.3007 -0.6039  2.1803
  117SOPE   H7S12310   4.351   5.119   5.578  1.1768 -1.9182  0.3393
  117SOPE   C2812311   4.227   4.998   5.448  0.4037  0.6525 -0.3269
  117SOPE   H8R12312   4.286   5.045   5.367  0.5966  2.2478  0.6971
  117SOPE   H8S12313   4.276   4.899   5.456  2.4014  1.7281  2.3372
  117SOPE   C2912314   4.082   4.986   5.410 -0.0345  0.1812  0.6174
  117SOPE   H9112315   4.005   5.015   5.483 -2.2773 -2.8973 -0.3265
  117SOPE  C21012316   4.036   4.928   5.300  0.4614 -0.1847  0.7176
  117SOPE  H10112317   3.928   4.914   5.282  0.9210 -0.0256 -3.1872
  117SOPE  C21112318   4.116   4.857   5.195  0.1617  0.2335  0.6723
  117SOPE  H11R12319   4.099   4.748   5.183  0.6693  0.2784 -0.6959
  117SOPE  H11S12320   4.224   4.854   5.219  0.4914  0.9587 -0.6262
  117SOPE  C21212321   4.102   4.919   5.048  0.1399  0.4466  0.1600
  117SOPE  H12R12322   4.187   4.877   4.990 -0.5571 -0.4132 -0.2808
  117SOPE  H12S12323   4.116   5.029   5.054 -2.5198  0.8433  0.1634
  117SOPE  C21312324   3.966   4.885   4.985 -0.1617  0.0888  0.3867
  117SOPE  H13R12325   3.881   4.920   5.048 -0.1147  2.6537 -0.8565
  117SOPE  H13S12326   3.980   4.775   4.983 -1.9962 -0.1523 -1.0434
  117SOPE  C21412327   3.937   4.957   4.852  0.2018 -0.1517  0.2845
  117SOPE  H14R12328   3.951   5.065   4.872  0.1489  0.1412 -1.1372
  117SOPE  H14S12329   3.830   4.948   4.824  0.2111  2.8108 -1.0767
  117SOPE  C21512330   4.028   4.916   4.733  0.0618 -0.0022  0.7113
  117SOPE  H15R12331   3.992   4.826   4.679  1.4563  0.4091 -1.0102
  117SOPE  H15S12332   4.123   4.870   4.770  0.5831 -0.4429 -1.0646
  117SOPE  C21612333   4.049   5.028   4.623 -0.3786 -0.9355 -0.5278
  117SOPE  H16R12334   3.950   5.077   4.614  0.4466  1.0309  0.5385
  117SOPE  H16S12335   4.075   4.977   4.528  1.8623  1.6200 -1.4274
  117SOPE  C21712336   4.154   5.125   4.672 -1.1108 -0.4534  1.0677
  117SOPE  H17R12337   4.170   5.135   4.782  0.6208  0.3667  0.7758
  117SOPE  H17S12338   4.130   5.227   4.635  3.9205  0.5777 -0.0214
  117SOPE  C21812339   4.290   5.080   4.610  0.0727  0.3674 -0.7415
  117SOPE  H18R12340   4.316   4.986   4.663  1.0844  2.2477  2.3701
  117SOPE  H18S12341   4.371   5.156   4.622  0.0597  0.1595  0.8770
  117SOPE  H18T12342   4.277   5.066   4.501 -1.4189 -2.2102 -0.3096
  117SOPE   C3312343   4.528   4.594   5.830  0.0357 -0.6638 -0.2038
  117SOPE   H3X12344   4.636   4.578   5.855 -0.2167 -1.6989  0.2831
  117SOPE   H3Y12345   4.508   4.696   5.870 -1.7789 -0.4904 -1.4749
  117SOPE   C3412346   4.494   4.601   5.675 -0.4382  0.0713  0.1696
  117SOPE   H4X12347   4.385   4.625   5.669 -0.4098 -0.0413 -1.3351
  117SOPE   H4Y12348   4.507   4.499   5.631 -0.5561  0.6364 -1.2150
  117SOPE   C3512349   4.576   4.689   5.585  0.4171  0.0264  0.1565
  117SOPE   H5X12350   4.680   4.663   5.614  0.6445 -0.9178 -1.3986
  117SOPE   H5Y12351   4.558   4.794   5.617  0.4838  0.2600 -0.5573
  117SOPE   C3612352   4.550   4.661   5.441  0.2558 -0.2495  0.6300
  117SOPE   H6X12353   4.441   4.672   5.424  0.1964  0.8416  1.6630
  117SOPE   H6Y12354   4.595   4.562   5.414  2.5462  0.9260 -0.1813
  117SOPE   C3712355   4.614   4.763   5.345 -0.1160 -0.1874 -0.3994
  117SOPE   H7X12356   4.596   4.722   5.244  1.4690  1.7102 -1.5171
  117SOPE   H7Y12357   4.724   4.768   5.360 -0.4395  0.5336  2.3485
  117SOPE   C3812358   4.557   4.908   5.345 -0.1427 -0.2356 -0.2774
  117SOPE   H8X12359   4.562   4.961   5.443 -1.1421 -1.1902  0.3141
  117SOPE   H8Y12360   4.447   4.908   5.327  0.0163  0.3396 -1.3779
  117SOPE   C3912361   4.638   4.999   5.251 -0.3283  0.8697  0.0712
  117SOPE   H9X12362   4.746   5.006   5.279 -0.2910 -1.8862  0.9135
  117SOPE   H9Y12363   4.598   5.101   5.239 -1.0206  0.6912  0.7428
  117SOPE  C31012364   4.644   4.948   5.103  0.4896  0.4758 -0.0802
  117SOPE  H10X12365   4.690   4.847   5.103 -2.2081 -0.8552  0.0820
  117SOPE  H10Y12366   4.711   5.017   5.048 -1.6916  3.3682  0.6320
  117SOPE  C31112367   4.514   4.929   5.023  0.8328  0.0188  0.5324
  117SOPE  H11X12368   4.453   5.020   5.006  2.7045  1.0787 -0.7085
  117SOPE  H11Y12369   4.459   4.855   5.086  1.5765 -1.1312 -0.1360
  117SOPE  C31212370   4.533   4.872   4.885 -0.2887  0.4660 -0.4294
  117SOPE  H12X12371   4.441   4.836   4.834 -0.5445  1.9905 -1.1256
  117SOPE  H12Y12372   4.588   4.777   4.895  0.2289  0.7686 -0.3746
  117SOPE  C31312373   4.603   4.975   4.789  0.4689  0.0577  0.4691
  117SOPE  H13X12374   4.702   4.998   4.834  0.1466  2.3912  0.0901
  117SOPE  H13Y12375   4.541   5.065   4.770  1.5329  0.9414  1.0558
  117SOPE  C31412376   4.620   4.911   4.652 -0.3468  0.5169 -0.1318
  117SOPE  H14X12377   4.528   4.864   4.611 -0.3857 -0.2685  0.8019
  117SOPE  H14Y12378   4.689   4.825   4.667 -0.0524  0.9138  0.8301
  117SOPE  C31512379   4.704   4.986   4.550  0.0437  0.4146 -0.1431
  117SOPE  H15X12380   4.776   5.040   4.615  1.0767 -0.4547 -0.5413
  117SOPE  H15Y12381   4.636   5.061   4.504  0.9111  1.1967 -0.1711
  117SOPE  C31612382   4.784   4.915   4.443  0.0688  0.7488 -0.3448
  117SOPE  H16X12383   4.858   4.865   4.509 -1.5244  0.6029  1.4272
  117SOPE  H16Y12384   4.827   4.981   4.365  1.1572 -0.9133 -1.2113
  117SOPE  C31712385   4.707   4.795   4.376  0.0825 -0.2069 -0.0677
  117SOPE  H17X12386   4.639   4.836   4.298  1.0520 -1.5534 -1.6873
  117SOPE  H17Y12387   4.642   4.736   4.444  0.4732 -1.3002 -0.6267
  117SOPE  C31812388   4.795   4.685   4.320  0.4300 -0.1244  0.1264
  117SOPE  H18X12389   4.880   4.723   4.259  1.3697 -1.7803  0.3431
  117SOPE  H18Y12390   4.747   4.607   4.258  0.7092  0.1490 -0.4429
  117SOPE  H18Z12391   4.845   4.640   4.408  0.5787 -0.8304 -0.3127
  118SOPE     N12392   0.086   4.511   6.899  0.0640 -0.2639 -0.1667
  118SOPE   HN112393   0.117   4.546   6.991 -0.4560  0.5505 -0.2949
  118SOPE   HN212394   0.121   4.565   6.817 -0.5310  0.4164  0.0188
  118SOPE   HN312395  -0.017   4.506   6.884  0.2062  2.5143 -3.1044
  118SOPE   C1212396   0.145   4.375   6.885  0.5136  0.3365 -0.1152
  118SOPE  H12A12397   0.163   4.339   6.988  0.4586  1.0005  0.1356
  118SOPE  H12B12398   0.236   4.374   6.822  1.3111 -0.8773  1.0169
  118SOPE   C1112399   0.035   4.284   6.825  0.4271  0.2462 -0.5143
  118SOPE  H11A12400  -0.014   4.320   6.732 -0.7157 -1.6499 -0.7092
  118SOPE  H11B12401  -0.047   4.277   6.899  0.0244 -1.6159 -1.0639
  118SOPE     P12402   0.183   4.104   6.687  0.3063 -0.1242  0.0075
  118SOPE   O1312403   0.135   3.974   6.632 -0.6175  0.0547  0.1446
  118SOPE   O1412404   0.323   4.090   6.746  0.1014 -0.1690 -0.2844
  118SOPE   O1212405   0.086   4.151   6.807 -0.0869 -0.3234  0.4959
  118SOPE   O1112406   0.198   4.224   6.585  0.6296  0.3418  0.0866
  118SOPE    C112407   0.103   4.223   6.475 -0.3388 -0.2803  0.3028
  118SOPE    HA12408  -0.002   4.226   6.513 -0.3499 -0.2915  0.2720
  118SOPE    HB12409   0.116   4.121   6.432  0.0992 -1.0360  2.1361
  118SOPE    C212410   0.117   4.356   6.392 -0.3443  0.6475  0.3281
  118SOPE    HS12411   0.017   4.363   6.345 -1.7633 -0.3892  2.9617
  118SOPE   O2112412   0.222   4.331   6.292  0.1914 -0.1558 -1.1297
  118SOPE   C2112413   0.184   4.266   6.184  0.0487 -0.4481  0.0541
  118SOPE   O2212414   0.065   4.267   6.143  0.1009 -0.3214 -0.5201
  118SOPE   C2212415   0.292   4.184   6.125 -0.5273  0.2456 -0.2368
  118SOPE   H2R12416   0.363   4.172   6.210 -1.7570 -1.6841  0.6038
  118SOPE   H2S12417   0.329   4.238   6.036 -0.4346  1.0635  0.2882
  118SOPE    C312418   0.153   4.480   6.478 -0.1854 -0.2608 -0.2148
  118SOPE    HX12419   0.251   4.456   6.525  0.2604  2.6898  0.5817
  118SOPE    HY12420   0.084   4.487   6.564  0.0009 -0.1028 -0.0765
  118SOPE   O3112421   0.160   4.606   6.390  0.0421 -0.1552 -0.4344
  118SOPE   C3112422   0.038   4.647   6.357  0.8666  0.1263  0.8536
  118SOPE   O3212423  -0.068   4.600   6.392  0.1261  0.0863 -0.2903
  118SOPE   C3212424   0.057   4.754   6.258  0.5740 -0.3362 -0.2757
  118SOPE   H2X12425   0.073   4.707   6.159  0.0733  0.4518 -0.7401
  118SOPE   H2Y12426   0.148   4.816   6.277  1.1609 -0.2778 -2.9310
  118SOPE   C2312427   0.236   4.048   6.077 -0.4152 -0.4692 -0.0363
  118SOPE   H3R12428   0.139   4.079   6.032 -1.0968 -1.4317  0.7367
  118SOPE   H3S12429   0.208   3.973   6.153  2.2683 -0.3893  1.1433
  118SOPE   C2412430   0.319   3.988   5.963 -0.7233 -0.0695  0.0191
  118SOPE   H4R12431   0.370   4.066   5.902  0.1144  1.4357  2.4910
  118SOPE   H4S12432   0.400   3.938   6.021 -0.8546  0.9851  1.1592
  118SOPE   C2512433   0.238   3.888   5.885 -0.0606  0.1365  0.2256
  118SOPE   H5R12434   0.234   3.798   5.950 -0.1332  0.9251  1.3402
  118SOPE   H5S12435   0.135   3.918   5.855  0.0102 -0.1890 -0.3683
  118SOPE   C2612436   0.301   3.848   5.742 -0.4312  0.2217 -0.4390
  118SOPE   H6R12437   0.225   3.785   5.690 -0.9022 -1.5091  2.1623
  118SOPE   H6S12438   0.326   3.938   5.682 -0.2004 -1.2806 -2.7474
  118SOPE   C2712439   0.430   3.759   5.767 -0.6209  0.7436  0.7197
  118SOPE   H7R12440   0.503   3.832   5.805 -0.6869  0.6301  1.0637
  118SOPE   H7S12441   0.406   3.687   5.848  0.1383  1.0793  1.2476
  118SOPE   C2812442   0.478   3.683   5.644 -0.5713 -0.7696  0.4612
  118SOPE   H8R12443   0.572   3.630   5.671 -1.5403 -2.1379  1.2597
  118SOPE   H8S12444   0.392   3.621   5.612 -0.6293 -0.7858  0.6487
  118SOPE   C2912445   0.505   3.771   5.524 -0.0526  0.3490  0.0994
  118SOPE   H9112446   0.527   3.877   5.540 -2.4477  0.8633  0.3421
  118SOPE  C21012447   0.518   3.728   5.395 -0.1984  0.3998  0.3578
  118SOPE  H10112448   0.522   3.800   5.312 -1.7670 -0.4892 -0.5397
  118SOPE  C21112449   0.498   3.583   5.362 -0.2337  0.2135  0.5294
  118SOPE  H11R12450   0.410   3.533   5.407 -0.6548  0.6392  0.2049
  118SOPE  H11S12451   0.590   3.530   5.393  1.7918  1.5946 -2.6403
  118SOPE  C21212452   0.479   3.574   5.206  0.3631 -0.2379  0.0974
  118SOPE  H12R12453   0.473   3.465   5.189 -1.5696 -0.2759  0.7898
  118SOPE  H12S12454   0.560   3.613   5.141 -0.4740  2.4952  0.5422
  118SOPE  C21312455   0.354   3.628   5.144 -0.3557 -0.2422 -0.1899
  118SOPE  H13R12456   0.360   3.738   5.164 -2.1403  0.3533 -2.4323
  118SOPE  H13S12457   0.256   3.603   5.191 -0.1115  0.8075  0.9525
  118SOPE  C21412458   0.351   3.616   4.990 -0.4008  0.1345  0.1408
  118SOPE  H14R12459   0.357   3.516   4.942  0.4468  1.0979 -1.8540
  118SOPE  H14S12460   0.448   3.664   4.965 -1.0076  1.1449 -0.3105
  118SOPE  C21512461   0.223   3.687   4.930  0.8281 -0.5156 -0.0933
  118SOPE  H15R12462   0.183   3.768   4.994  1.2729  0.0844 -0.5669
  118SOPE  H15S12463   0.136   3.619   4.915  0.3104  0.1729 -0.2347
  118SOPE  C21612464   0.245   3.759   4.803  0.6027  0.1438  0.2579
  118SOPE  H16R12465   0.318   3.708   4.735  1.5700 -0.1112  1.4432
  118SOPE  H16S12466   0.307   3.848   4.826  1.5432  0.0591 -1.7057
  118SOPE  C21712467   0.121   3.797   4.719 -0.6350  0.5200 -0.1899
  118SOPE  H17R12468   0.045   3.827   4.794  2.2968  1.3054  2.6804
  118SOPE  H17S12469   0.095   3.712   4.652 -1.1130 -0.0325  0.6834
  118SOPE  C21812470   0.139   3.914   4.633  0.6552 -0.4567  0.1064
  118SOPE  H18R12471   0.192   3.991   4.692 -2.1502  0.5146  1.5319
  118SOPE  H18S12472   0.042   3.962   4.609 -0.3970 -0.2888  3.9758
  118SOPE  H18T12473   0.192   3.887   4.539  2.2906 -2.8601  1.6095
  118SOPE   C3312474  -0.064   4.855   6.261 -0.5571  0.4474 -0.1206
  118SOPE   H3X12475  -0.052   4.918   6.352  0.5618 -0.1330  0.1470
  118SOPE   H3Y12476  -0.159   4.799   6.272 -0.8725  0.9584 -0.1948
  118SOPE   C3412477  -0.071   4.939   6.126 -0.2545  0.5514 -0.4568
  118SOPE   H4X12478   0.031   4.954   6.087 -0.3985 -0.3849 -1.2392
  118SOPE   H4Y12479  -0.121   5.038   6.138 -0.4469  0.3671  0.3829
  118SOPE   C3512480  -0.115   4.858   6.001 -0.1570 -0.1136 -0.1710
  118SOPE   H5X12481  -0.206   4.794   5.999  0.8051 -1.5452  0.3862
  118SOPE   H5Y12482  -0.045   4.773   5.988 -0.2993 -0.0988 -1.0751
  118SOPE   C3612483  -0.113   4.936   5.866 -0.0753 -0.1268  0.0154
  118SOPE   H6X12484  -0.009   4.968   5.844  0.4967 -1.2719  0.9265
  118SOPE   H6Y12485  -0.179   5.025   5.875  0.6607  0.2634  2.1545
  118SOPE   C3712486  -0.181   4.847   5.757  0.5879 -0.3269  0.7794
  118SOPE   H7X12487  -0.282   4.810   5.783 -1.2290  1.4079 -3.1502
  118SOPE   H7Y12488  -0.103   4.767   5.752  1.7959  0.8211  0.6015
  118SOPE   C3812489  -0.175   4.904   5.615 -0.2605  0.2899 -0.0179
  118SOPE   H8X12490  -0.164   4.814   5.550  1.5373 -1.7226  2.8677
  118SOPE   H8Y12491  -0.079   4.958   5.602 -0.4862  1.0690  1.3760
  118SOPE   C3912492  -0.302   4.983   5.572 -1.1296  0.0021 -1.1740
  118SOPE   H9X12493  -0.287   5.034   5.474 -2.7658 -0.0646 -1.4797
  118SOPE   H9Y12494  -0.313   5.068   5.643  0.8351 -0.2895 -0.4651
  118SOPE  C31012495  -0.429   4.895   5.575  0.0480  0.2572  0.1148
  118SOPE  H10X12496  -0.454   4.826   5.658 -0.9112 -0.9186 -1.1061
  118SOPE  H10Y12497  -0.424   4.834   5.482  1.9046  1.2814 -0.5096
  118SOPE  C31112498  -0.545   4.995   5.554  0.2619  0.6336 -0.5969
  118SOPE  H11X12499  -0.526   5.038   5.454 -3.0410  0.2129 -1.5115
  118SOPE  H11Y12500  -0.540   5.077   5.628  1.6393 -0.7174  0.8981
  118SOPE  C31212501  -0.688   4.936   5.572  0.5150  0.4204  0.1046
  118SOPE  H12X12502  -0.760   5.015   5.544  1.3257  1.5362  1.0495
  118SOPE  H12Y12503  -0.699   4.906   5.679  0.7152  1.0497  0.3043
  118SOPE  C31312504  -0.709   4.816   5.477 -0.5072  0.3448 -0.5760
  118SOPE  H13X12505  -0.813   4.783   5.497 -0.4278 -0.1825 -1.0015
  118SOPE  H13Y12506  -0.641   4.730   5.496 -1.6138 -0.2913  0.6972
  118SOPE  C31412507  -0.711   4.853   5.331 -0.7865 -0.5513  0.6272
  118SOPE  H14X12508  -0.624   4.917   5.306 -2.0929  1.1465  0.1619
  118SOPE  H14Y12509  -0.791   4.928   5.311 -2.8675 -2.7567  0.2508
  118SOPE  C31512510  -0.716   4.738   5.225 -0.7273 -0.2321 -0.0436
  118SOPE  H15X12511  -0.820   4.700   5.237 -1.9284  2.5567 -0.7763
  118SOPE  H15Y12512  -0.649   4.663   5.273  0.4237  1.8112  1.7382
  118SOPE  C31612513  -0.672   4.772   5.083  0.7283 -0.7604  0.7498
  118SOPE  H16X12514  -0.591   4.849   5.091 -0.8710  0.9569  1.0518
  118SOPE  H16Y12515  -0.751   4.834   5.036 -1.0414 -2.5618  1.2485
  118SOPE  C31712516  -0.640   4.656   4.992  0.3973  0.4137  0.5483
  118SOPE  H17X12517  -0.718   4.577   4.991  1.2148 -0.4150 -0.2512
  118SOPE  H17Y12518  -0.545   4.623   5.039 -0.0177 -0.8380  0.5496
  118SOPE  C31812519  -0.614   4.688   4.842 -0.0711 -0.6873  0.2887
  118SOPE  H18X12520  -0.532   4.759   4.821  1.3507 -2.0411  1.0522
  118SOPE  H18Y12521  -0.702   4.749   4.810  0.5614  0.6042  0.9234
  118SOPE  H18Z12522  -0.586   4.604   4.775 -0.2422 -0.0167 -0.6452
  119SOPE     N12523   1.381   5.352   6.596  0.7747  0.1716 -0.5145
  119SOPE   HN112524   1.294   5.338   6.652 -1.5372 -2.5383 -4.3347
  119SOPE   HN212525   1.459   5.297   6.635 -2.0482 -3.6466  0.2979
  119SOPE   HN312526   1.397   5.455   6.605 -0.1549  0.2220  0.9033
  119SOPE   C1212527   1.355   5.313   6.453  0.1015  0.9283 -0.1908
  119SOPE  H12A12528   1.320   5.208   6.454  0.5440  0.7720 -0.5936
  119SOPE  H12B12529   1.448   5.300   6.393 -1.1744 -2.0190 -1.7216
  119SOPE   C1112530   1.262   5.401   6.383 -0.3969 -0.5319  0.4325
  119SOPE  H11A12531   1.240   5.379   6.277  2.4880  0.0109 -0.3785
  119SOPE  H11B12532   1.313   5.499   6.369  1.3272 -1.3867  0.4743
  119SOPE     P12533   1.053   5.543   6.441 -0.0965 -0.0158 -0.1339
  119SOPE   O1312534   1.128   5.652   6.505  0.4802 -0.3549 -0.5253
  119SOPE   O1412535   0.918   5.508   6.491 -0.0306 -0.2936  0.2019
  119SOPE   O1212536   1.144   5.416   6.457  0.7277  0.2176 -0.1165
  119SOPE   O1112537   1.051   5.578   6.281  0.3837 -0.1151 -0.3472
  119SOPE    C112538   0.979   5.478   6.203  0.0718 -0.3567  0.3036
  119SOPE    HA12539   0.954   5.387   6.262  2.0525 -0.5194  0.9901
  119SOPE    HB12540   1.042   5.433   6.123  3.0098  0.0889  2.2119
  119SOPE    C212541   0.855   5.541   6.148  0.3468 -0.6270 -0.4212
  119SOPE    HS12542   0.766   5.514   6.208 -0.1093  1.9929  0.2111
  119SOPE   O2112543   0.855   5.500   6.006  0.0564  0.3654  0.0110
  119SOPE   C2112544   0.734   5.474   5.958  0.8163 -0.1153  0.2645
  119SOPE   O2212545   0.627   5.455   6.019 -1.1512  0.0708  0.0621
  119SOPE   C2212546   0.754   5.455   5.799  0.8013 -0.2054 -0.0367
  119SOPE   H2R12547   0.851   5.403   5.784  1.3036  0.2119  1.5561
  119SOPE   H2S12548   0.771   5.551   5.746 -0.1433 -0.3123 -0.5698
  119SOPE    C312549   0.848   5.693   6.152  0.6592  0.3511 -0.6782
  119SOPE    HX12550   0.937   5.733   6.100  2.8679  0.3958  2.8037
  119SOPE    HY12551   0.855   5.738   6.254  4.1116  0.7824 -1.0182
  119SOPE   O3112552   0.731   5.735   6.074  0.2435  0.1903 -0.5152
  119SOPE   C3112553   0.640   5.806   6.136 -0.4350 -0.1472 -0.1186
  119SOPE   O3212554   0.636   5.834   6.255  0.5703 -0.6341  0.3609
  119SOPE   C3212555   0.537   5.842   6.027  0.2432  0.6908  0.6831
  119SOPE   H2X12556   0.495   5.744   5.995  0.0530  0.9829  0.0226
  119SOPE   H2Y12557   0.594   5.881   5.940  1.0284 -2.0834 -0.1312
  119SOPE   C2312558   0.635   5.374   5.742 -0.4194 -0.6514 -0.5115
  119SOPE   H3R12559   0.606   5.297   5.816 -1.3170 -0.4136 -0.6114
  119SOPE   H3S12560   0.667   5.315   5.654 -0.5501 -0.4560 -0.6894
  119SOPE   C2412561   0.518   5.472   5.714  0.4624  0.2637 -0.1084
  119SOPE   H4R12562   0.427   5.408   5.703  0.6235 -1.1041  4.4270
  119SOPE   H4S12563   0.491   5.532   5.804  0.6354 -0.9711  0.8020
  119SOPE   C2512564   0.548   5.565   5.593  0.2828  0.7454  0.3151
  119SOPE   H5R12565   0.623   5.646   5.608 -0.2578  1.0768  1.3715
  119SOPE   H5S12566   0.597   5.500   5.518  0.6623  1.5515 -0.1584
  119SOPE   C2612567   0.422   5.631   5.525  0.3007  0.3421  0.2057
  119SOPE   H6R12568   0.349   5.562   5.477  0.4635  0.5888 -0.4089
  119SOPE   H6S12569   0.366   5.684   5.605  0.4943  3.3071 -1.4694
  119SOPE   C2712570   0.463   5.732   5.418  0.0973  0.3750 -0.4139
  119SOPE   H7R12571   0.528   5.806   5.470  0.1859 -0.9097  1.3852
  119SOPE   H7S12572   0.519   5.667   5.348 -1.1606 -0.7920 -0.3744
  119SOPE   C2812573   0.352   5.825   5.358  0.2503  0.2936 -0.0228
  119SOPE   H8R12574   0.270   5.848   5.429 -1.5137  0.6950 -2.0840
  119SOPE   H8S12575   0.399   5.918   5.318 -1.4511  1.7271  1.1264
  119SOPE   C2912576   0.280   5.745   5.245 -0.5177  0.2830  0.2665
  119SOPE   H9112577   0.225   5.654   5.273 -1.4828  0.3769 -1.2221
  119SOPE  C21012578   0.274   5.775   5.110 -0.2501  0.3603  0.5152
  119SOPE  H10112579   0.223   5.709   5.039 -1.1584  0.4096  1.1107
  119SOPE  C21112580   0.357   5.886   5.057  0.6045 -0.1579 -0.2225
  119SOPE  H11R12581   0.460   5.870   5.096  0.7549 -0.4538 -0.7369
  119SOPE  H11S12582   0.316   5.978   5.105 -0.4517  1.0489 -3.1958
  119SOPE  C21212583   0.345   5.901   4.903  0.0037  0.2734 -0.7239
  119SOPE  H12R12584   0.398   5.998   4.892  1.6396 -0.3957  0.8308
  119SOPE  H12S12585   0.241   5.914   4.866 -0.4553 -0.1460  0.3902
  119SOPE  C21312586   0.416   5.791   4.821 -0.5342 -0.4946  0.1339
  119SOPE  H13R12587   0.375   5.695   4.860  0.9559 -0.7680  1.1052
  119SOPE  H13S12588   0.521   5.786   4.857  0.3552  1.9834 -1.8478
  119SOPE  C21412589   0.413   5.804   4.670 -0.1639 -0.7819  0.4935
  119SOPE  H14R12590   0.313   5.787   4.624  0.3526  0.3451 -1.1092
  119SOPE  H14S12591   0.484   5.733   4.623  1.0943  1.2031 -0.7265
  119SOPE  C21512592   0.466   5.947   4.632  0.0738  0.0429  0.1277
  119SOPE  H15R12593   0.568   5.971   4.670  1.0555  0.5956 -2.5922
  119SOPE  H15S12594   0.403   6.024   4.682  0.6010 -1.2485  3.0158
  119SOPE  C21612595   0.483   5.973   4.478  0.9631  0.6752  0.2798
  119SOPE  H16R12596   0.528   6.073   4.458  1.1047  0.0416 -3.1198
  119SOPE  H16S12597   0.385   5.977   4.428  1.1163  2.1390  0.0483
  119SOPE  C21712598   0.553   5.862   4.400  0.5028 -0.0346  0.6706
  119SOPE  H17R12599   0.501   5.765   4.407 -1.4287  0.6562 -2.3169
  119SOPE  H17S12600   0.654   5.841   4.441  1.3372 -0.6291 -1.5490
  119SOPE  C21812601   0.585   5.891   4.253  0.3717  0.2061  1.3816
  119SOPE  H18R12602   0.496   5.870   4.190  1.5679 -1.2053  0.0991
  119SOPE  H18S12603   0.662   5.819   4.218  0.2982 -0.1017  1.8334
  119SOPE  H18T12604   0.622   5.995   4.239  0.4313  0.1332  0.9878
  119SOPE   C3312605   0.432   5.933   6.085 -0.3488 -0.1026  0.4192
  119SOPE   H3X12606   0.484   6.010   6.145  0.4035  0.0062 -0.3551
  119SOPE   H3Y12607   0.365   5.875   6.152 -0.1124  0.0622  0.7988
  119SOPE   C3412608   0.340   6.008   5.984 -0.2773 -0.5658  0.8113
  119SOPE   H4X12609   0.410   6.076   5.932 -0.5587  0.0803  1.2683
  119SOPE   H4Y12610   0.271   6.075   6.041 -0.5804 -0.3491  0.2091
  119SOPE   C3512611   0.261   5.923   5.884 -0.2198 -0.0351  0.0257
  119SOPE   H5X12612   0.155   5.907   5.910 -0.1815  1.7692  1.4599
  119SOPE   H5Y12613   0.316   5.826   5.886  0.1551  0.1905  1.5254
  119SOPE   C3612614   0.261   5.980   5.742  0.4713 -0.1865 -0.2620
  119SOPE   H6X12615   0.218   5.905   5.672  0.1951  0.4840 -0.8199
  119SOPE   H6Y12616   0.362   6.012   5.709  0.2183 -1.0231 -1.9474
  119SOPE   C3712617   0.157   6.104   5.731 -0.1698 -0.3632  0.2060
  119SOPE   H7X12618   0.201   6.180   5.799  3.9031 -1.9807 -0.3348
  119SOPE   H7Y12619   0.052   6.077   5.756  0.3034 -1.4915  1.0420
  119SOPE   C3812620   0.137   6.156   5.589  0.5401  0.1746 -0.7963
  119SOPE   H8X12621   0.110   6.069   5.526 -0.4935  2.1748 -3.2985
  119SOPE   H8Y12622   0.224   6.206   5.541  0.1348 -0.1183 -1.8520
  119SOPE   C3912623   0.018   6.246   5.585  0.0925 -0.5178 -0.1565
  119SOPE   H9X12624   0.042   6.338   5.643 -0.8735 -1.0907  1.1923
  119SOPE   H9Y12625  -0.068   6.183   5.614  0.7486 -0.9756  0.8385
  119SOPE  C31012626  -0.024   6.297   5.442  0.0285 -0.2792 -0.6114
  119SOPE  H10X12627   0.040   6.381   5.408 -0.3581 -0.2754 -1.3436
  119SOPE  H10Y12628  -0.121   6.348   5.460 -1.5268 -3.1519 -0.1844
  119SOPE  C31112629  -0.054   6.187   5.341  0.1274 -0.5584  0.3065
  119SOPE  H11X12630  -0.143   6.133   5.380 -0.8714  1.5042  1.0213
  119SOPE  H11Y12631   0.037   6.125   5.325 -0.3809 -1.4889  0.9322
  119SOPE  C31212632  -0.088   6.248   5.201  0.5400 -1.2926  0.0221
  119SOPE  H12X12633  -0.125   6.352   5.214 -0.6775 -1.6280 -0.6046
  119SOPE  H12Y12634  -0.182   6.199   5.168 -1.6286  1.3321  1.8972
  119SOPE  C31312635   0.030   6.240   5.109 -0.0237 -0.3435  0.1738
  119SOPE  H13X12636   0.035   6.137   5.068 -1.4182 -0.4188  0.1509
  119SOPE  H13Y12637   0.131   6.254   5.153 -0.6243 -2.2692  2.4227
  119SOPE  C31412638   0.001   6.341   4.995  0.1007  0.3520  0.3964
  119SOPE  H14X12639   0.020   6.445   5.030 -0.5391  1.1753 -1.5106
  119SOPE  H14Y12640  -0.108   6.336   4.973 -0.3294  0.0497  2.4404
  119SOPE  C31512641   0.087   6.307   4.873  0.0907 -0.1360  1.2709
  119SOPE  H15X12642   0.092   6.197   4.856  0.7857  0.1742 -0.8195
  119SOPE  H15Y12643   0.192   6.340   4.892  1.8755 -2.8760 -2.5542
  119SOPE  C31612644   0.051   6.374   4.732  0.2087 -0.9001 -0.2833
  119SOPE  H16X12645   0.031   6.480   4.762 -1.1763 -1.0809 -0.4810
  119SOPE  H16Y12646  -0.042   6.329   4.692  0.2975 -1.9992  0.7000
  119SOPE  C31712647   0.166   6.392   4.629 -0.2842 -0.8292 -0.2518
  119SOPE  H17X12648   0.206   6.292   4.602 -0.4329 -0.4128 -2.1527
  119SOPE  H17Y12649   0.249   6.454   4.670  0.0617 -1.6992  0.3721
  119SOPE  C31812650   0.111   6.451   4.499 -0.0401  0.3126 -0.0618
  119SOPE  H18X12651   0.197   6.476   4.434 -0.2674  1.4751  0.0689
  119SOPE  H18Y12652   0.053   6.544   4.518 -0.4311  0.2686 -1.0087
  119SOPE  H18Z12653   0.035   6.386   4.449  1.2791 -0.1596 -1.5426
  120SOPE     N12654   1.181   1.282   6.939  0.4279 -0.0206  0.0589
  120SOPE   HN112655   1.178   1.353   6.864 -1.6063  1.0977  1.0964
  120SOPE   HN212656   1.274   1.285   6.984  0.2566 -2.3439  0.7063
  120SOPE   HN312657   1.162   1.187   6.901 -0.2902 -0.1028  0.5851
  120SOPE   C1212658   1.074   1.299   7.041 -0.0205 -0.5886  0.2924
  120SOPE  H12A12659   1.061   1.405   7.070 -1.7130 -1.0395  1.3503
  120SOPE  H12B12660   1.115   1.260   7.137  2.2839 -0.7334 -0.7029
  120SOPE   C1112661   0.949   1.234   6.990  0.0607  0.5505 -0.1079
  120SOPE  H11A12662   0.870   1.249   7.068  1.1499  0.5288  1.0316
  120SOPE  H11B12663   0.965   1.125   6.980 -1.1230  0.2570  0.8779
  120SOPE     P12664   0.790   1.190   6.787 -0.0649  0.4318  0.3732
  120SOPE   O1312665   0.709   1.272   6.699  0.2251 -0.1539 -0.2194
  120SOPE   O1412666   0.717   1.125   6.897  0.1794  0.8122 -0.1849
  120SOPE   O1212667   0.895   1.276   6.867 -0.4673 -0.0213 -0.4114
  120SOPE   O1112668   0.874   1.074   6.715 -0.7809 -0.1590 -0.3777
  120SOPE    C112669   0.950   1.101   6.602 -0.1955  0.0107 -0.1175
  120SOPE    HA12670   1.029   1.024   6.593  0.0073 -0.0988  2.1171
  120SOPE    HB12671   1.008   1.196   6.612  1.0600 -0.7548  0.0976
  120SOPE    C212672   0.872   1.104   6.465 -0.0305 -0.5468 -0.1625
  120SOPE    HS12673   0.799   1.187   6.476 -0.0079 -0.6290  0.6956
  120SOPE   O2112674   0.810   0.974   6.458 -0.0656 -0.2293  0.5199
  120SOPE   C2112675   0.702   0.981   6.378  0.5802  0.2108 -0.5083
  120SOPE   O2212676   0.644   1.087   6.352 -0.3892 -0.1636 -0.2836
  120SOPE   C2212677   0.657   0.837   6.345  0.2365 -0.8629  0.0470
  120SOPE   H2R12678   0.603   0.797   6.433 -3.3965 -1.2936 -2.1664
  120SOPE   H2S12679   0.746   0.777   6.316  0.2019 -1.1397  0.5076
  120SOPE    C312680   0.971   1.138   6.342 -0.7500  0.1737  0.6772
  120SOPE    HX12681   1.042   1.054   6.338 -2.3387 -1.1707 -2.3303
  120SOPE    HY12682   1.021   1.234   6.367  1.9096 -0.7755 -0.6154
  120SOPE   O3112683   0.911   1.136   6.217  0.3556  0.0489 -0.3324
  120SOPE   C3112684   0.867   1.256   6.174 -0.5984  0.0200  0.3869
  120SOPE   O3212685   0.902   1.355   6.232  0.5109  0.2661 -0.5460
  120SOPE   C3212686   0.780   1.238   6.054  0.1832  0.3902  0.0976
  120SOPE   H2X12687   0.680   1.195   6.076 -0.5774  0.9336 -2.0596
  120SOPE   H2Y12688   0.842   1.185   5.978 -0.8639  0.7936 -1.0847
  120SOPE   C2312689   0.547   0.826   6.236  0.6137 -0.6264 -0.0873
  120SOPE   H3R12690   0.460   0.885   6.272  1.7034  0.4912  0.7860
  120SOPE   H3S12691   0.507   0.723   6.225 -0.1111 -0.4239  0.5920
  120SOPE   C2412692   0.599   0.877   6.097  0.3597  0.2248 -0.2456
  120SOPE   H4R12693   0.511   0.842   6.039 -1.7024 -0.2582  2.9379
  120SOPE   H4S12694   0.606   0.988   6.096 -1.3903  0.3804  0.9360
  120SOPE   C2512695   0.713   0.802   6.024 -0.3719  0.3711 -0.2915
  120SOPE   H5R12696   0.810   0.818   6.077 -0.5528  0.3398  0.0524
  120SOPE   H5S12697   0.697   0.693   6.037  0.7727  0.2164 -0.0355
  120SOPE   C2612698   0.729   0.848   5.878 -0.1413  0.3489  0.0743
  120SOPE   H6R12699   0.744   0.958   5.884 -0.8753  0.5074 -0.7794
  120SOPE   H6S12700   0.825   0.805   5.844  0.3128  1.9754 -0.7964
  120SOPE   C2712701   0.606   0.821   5.791 -0.2586  0.1471  0.1444
  120SOPE   H7R12702   0.556   0.729   5.827  1.5928 -1.4995 -1.2608
  120SOPE   H7S12703   0.541   0.910   5.806 -1.1155 -0.8151  2.6377
  120SOPE   C2812704   0.646   0.809   5.642  0.0218  1.0740  0.1216
  120SOPE   H8R12705   0.554   0.810   5.579  1.0037  1.0240 -1.3898
  120SOPE   H8S12706   0.698   0.903   5.612 -0.0741  1.0616 -0.0912
  120SOPE   C2912707   0.729   0.679   5.632 -0.5685 -0.2642 -0.4978
  120SOPE   H9112708   0.676   0.586   5.659 -1.1675  0.1051 -0.3653
  120SOPE  C21012709   0.856   0.669   5.598 -0.3142 -0.2188  0.3904
  120SOPE  H10112710   0.898   0.568   5.585  0.7089  0.3422 -0.8972
  120SOPE  C21112711   0.948   0.782   5.557 -0.1977 -0.4593  0.0931
  120SOPE  H11R12712   1.050   0.751   5.587 -0.6719 -2.5522 -0.2467
  120SOPE  H11S12713   0.918   0.875   5.609 -0.5072  1.1968 -2.8332
  120SOPE  C21212714   0.942   0.824   5.411 -0.0982  0.4411 -0.3568
  120SOPE  H12R12715   1.019   0.903   5.396 -2.6676  2.8669 -1.5220
  120SOPE  H12S12716   0.846   0.868   5.378  1.1142  1.5935 -2.5972
  120SOPE  C21312717   0.985   0.709   5.311 -0.3400  0.7506  0.2307
  120SOPE  H13R12718   0.908   0.629   5.301 -0.6078  0.9588  0.6087
  120SOPE  H13S12719   1.067   0.654   5.361  0.2721  0.6408 -0.8746
  120SOPE  C21412720   1.029   0.762   5.176  0.0318 -0.2997  1.0180
  120SOPE  H14R12721   1.134   0.797   5.168 -0.3827  0.5280 -1.8683
  120SOPE  H14S12722   0.964   0.847   5.146 -1.2947 -1.1609  1.3513
  120SOPE  C21512723   1.013   0.659   5.058  0.0322 -0.4418 -0.5613
  120SOPE  H15R12724   0.910   0.668   5.019 -0.2233  1.4469  0.4227
  120SOPE  H15S12725   1.025   0.557   5.098  0.3486  0.2566  1.2157
  120SOPE  C21612726   1.120   0.687   4.950  0.3163  1.1000  0.6388
  120SOPE  H16R12727   1.219   0.687   4.999  1.6556 -1.7311 -1.7562
  120SOPE  H16S12728   1.100   0.787   4.907 -1.7925 -0.4224 -2.2908
  120SOPE  C21712729   1.128   0.575   4.836  1.1424 -0.4988  0.1990
  120SOPE  H17R12730   1.207   0.604   4.764 -0.1265 -0.0272 -1.0591
  120SOPE  H17S12731   1.030   0.572   4.784  0.0072  0.9905  2.1039
  120SOPE  C21812732   1.163   0.439   4.888  0.1703 -0.7657 -0.1036
  120SOPE  H18R12733   1.200   0.387   4.797 -1.0482 -3.8527  1.0153
  120SOPE  H18S12734   1.075   0.387   4.932 -1.7719  2.3720 -0.0351
  120SOPE  H18T12735   1.246   0.442   4.962  0.8174 -1.3450 -0.7888
  120SOPE   C3312736   0.749   1.370   5.970  0.2424  0.3040 -0.3904
  120SOPE   H3X12737   0.824   1.384   5.889  0.0234  0.4336 -0.5694
  120SOPE   H3Y12738   0.747   1.459   6.037 -0.2161 -0.2207  0.3071
  120SOPE   C3412739   0.612   1.358   5.902  0.7984 -0.1584  0.1899
  120SOPE   H4X12740   0.591   1.459   5.862  1.7278  0.0892  0.2896
  120SOPE   H4Y12741   0.543   1.341   5.987  3.0168 -0.9714  1.9465
  120SOPE   C3512742   0.585   1.250   5.796  0.6236  0.0654  0.0765
  120SOPE   H5X12743   0.602   1.146   5.833  2.1798 -0.1740 -1.2159
  120SOPE   H5Y12744   0.665   1.264   5.721  1.4760 -1.2689  0.6876
  120SOPE   C3612745   0.449   1.263   5.728 -0.2482  0.0672 -0.1267
  120SOPE   H6X12746   0.444   1.361   5.677 -0.9914  1.6565  2.7681
  120SOPE   H6Y12747   0.364   1.259   5.800  0.4705 -0.2636  0.7230
  120SOPE   C3712748   0.425   1.148   5.624 -0.0700 -0.2909 -0.1453
  120SOPE   H7X12749   0.333   1.180   5.570  0.4047  2.6065  0.5798
  120SOPE   H7Y12750   0.416   1.056   5.685 -0.4079  2.4757  4.4226
  120SOPE   C3812751   0.533   1.148   5.511 -0.2960  0.0372 -0.8543
  120SOPE   H8X12752   0.606   1.064   5.513 -0.5412 -0.1645  0.9036
  120SOPE   H8Y12753   0.598   1.237   5.527  3.3267 -2.3768 -0.7474
  120SOPE   C3912754   0.485   1.149   5.367  0.0699  0.0387  0.3093
  120SOPE   H9X12755   0.404   1.225   5.362 -0.4500 -0.4600  1.0725
  120SOPE   H9Y12756   0.435   1.056   5.334 -0.7291  1.0892 -1.6475
  120SOPE  C31012757   0.591   1.185   5.254  0.0452 -0.0382 -0.2720
  120SOPE  H10X12758   0.667   1.248   5.304  0.4777 -0.0835 -0.8537
  120SOPE  H10Y12759   0.539   1.241   5.173 -2.9142  0.3272  1.7513
  120SOPE  C31112760   0.664   1.072   5.191 -0.5001  0.2684  0.1048
  120SOPE  H11X12761   0.633   0.978   5.240  1.2252 -0.3934 -0.0184
  120SOPE  H11Y12762   0.771   1.077   5.219 -0.0508  0.5040 -1.5308
  120SOPE  C31212763   0.660   1.083   5.039  0.0690  0.3860  0.4893
  120SOPE  H12X12764   0.703   1.180   5.006  3.1268 -0.7925  0.6351
  120SOPE  H12Y12765   0.557   1.062   5.005  0.4409  0.3799 -0.7040
  120SOPE  C31312766   0.748   0.975   4.976  0.8826 -0.4019 -0.1923
  120SOPE  H13X12767   0.730   0.881   5.032  2.3497 -0.8416 -0.4295
  120SOPE  H13Y12768   0.854   1.009   4.974  0.8843 -0.4266 -1.2248
  120SOPE  C31412769   0.708   0.955   4.820  0.1754  0.6773 -0.0924
  120SOPE  H14X12770   0.720   1.044   4.755  0.9195 -0.3331 -1.3745
  120SOPE  H14Y12771   0.601   0.926   4.822  0.4653 -0.5355  2.8253
  120SOPE  C31512772   0.773   0.833   4.750  0.4669 -0.7363  1.2571
  120SOPE  H15X12773   0.761   0.745   4.817 -2.2019 -1.4024  0.0489
  120SOPE  H15Y12774   0.879   0.857   4.730  0.3010 -1.4612 -0.6592
  120SOPE  C31612775   0.715   0.809   4.605 -0.3209 -0.0700  0.5450
  120SOPE  H16X12776   0.736   0.903   4.550 -0.1071 -0.4136  0.0330
  120SOPE  H16Y12777   0.606   0.788   4.609  0.1305 -2.5903  1.5624
  120SOPE  C31712778   0.795   0.703   4.531  0.2661 -0.0109  0.1537
  120SOPE  H17X12779   0.827   0.618   4.596  1.7939  1.0973  0.9014
  120SOPE  H17Y12780   0.889   0.755   4.504  0.2083  0.1908  0.3426
  120SOPE  C31812781   0.720   0.637   4.410  0.6459  0.4603 -0.3591
  120SOPE  H18X12782   0.763   0.536   4.390  2.3032  1.2199 -0.7805
  120SOPE  H18Y12783   0.728   0.699   4.318  1.2113 -0.3272 -0.8612
  120SOPE  H18Z12784   0.609   0.632   4.423  0.2467  1.0095 -2.9511
  121SOPE     N12785   5.203   6.150   6.360 -0.0361 -0.6194 -0.3411
  121SOPE   HN112786   5.128   6.087   6.395  2.4771 -2.1370  2.8237
  121SOPE   HN212787   5.232   6.122   6.264  1.4724 -0.9690  0.1905
  121SOPE   HN312788   5.287   6.144   6.421 -0.4914  0.5849  0.4492
  121SOPE   C1212789   5.164   6.288   6.370 -0.6549 -1.0552 -0.0113
  121SOPE  H12A12790   5.053   6.293   6.357 -0.7200  1.7667  0.9998
  121SOPE  H12B12791   5.197   6.343   6.279  1.0371 -1.5154  0.2891
  121SOPE   C1112792   5.235   6.353   6.492 -0.1059 -0.7563 -0.4309
  121SOPE  H11A12793   5.220   6.291   6.583 -1.4783  0.3848  0.1575
  121SOPE  H11B12794   5.179   6.447   6.512  1.1492 -0.1498  0.3649
  121SOPE     P12795   5.482   6.392   6.560 -0.1911  0.3182 -0.1820
  121SOPE   O1312796   5.466   6.267   6.640 -0.0656 -0.5552 -0.5917
  121SOPE   O1412797   5.472   6.518   6.640  0.5302  0.2465 -0.2983
  121SOPE   O1212798   5.372   6.381   6.458 -0.0592 -0.4899  0.6158
  121SOPE   O1112799   5.616   6.390   6.477  0.6357 -0.0055  0.4362
  121SOPE    C112800   5.687   6.266   6.453 -0.3124 -0.2696 -0.6780
  121SOPE    HA12801   5.659   6.180   6.518  2.0642 -0.1639  0.5812
  121SOPE    HB12802   5.791   6.281   6.488 -0.7995 -0.4716  0.9585
  121SOPE    C212803   5.704   6.222   6.305  0.6277 -1.0148 -0.2067
  121SOPE    HS12804   5.761   6.306   6.261  1.3037 -0.8917  0.8561
  121SOPE   O2112805   5.576   6.197   6.243 -0.2060 -0.2731  0.3878
  121SOPE   C2112806   5.585   6.237   6.112 -0.0117  0.4998 -0.2873
  121SOPE   O2212807   5.678   6.279   6.054 -0.1752 -0.3798  0.4213
  121SOPE   C2212808   5.451   6.206   6.036 -0.2747  0.0932  0.1012
  121SOPE   H2R12809   5.378   6.290   6.036 -1.0489 -0.5341 -1.8128
  121SOPE   H2S12810   5.404   6.123   6.093  0.0042 -0.4048 -0.3943
  121SOPE    C312811   5.793   6.096   6.304 -0.9517 -0.3332 -0.2947
  121SOPE    HX12812   5.745   6.018   6.367  1.0445 -1.2485  0.1617
  121SOPE    HY12813   5.882   6.116   6.367 -1.9386 -1.6049  1.6064
  121SOPE   O3112814   5.818   6.048   6.171  0.1029  0.3334  0.8615
  121SOPE   C3112815   5.916   6.088   6.092  0.0869 -0.6219 -0.8948
  121SOPE   O3212816   5.997   6.178   6.122 -0.1307  0.0996 -0.4735
  121SOPE   C3212817   5.905   6.016   5.954 -0.1762 -0.2376 -0.0862
  121SOPE   H2X12818   5.827   6.061   5.889 -1.9826  0.3244  2.3097
  121SOPE   H2Y12819   5.876   5.914   5.989 -0.0078  0.0623  0.9544
  121SOPE   C2312820   5.493   6.157   5.896  0.0608 -0.1087  0.5979
  121SOPE   H3R12821   5.587   6.098   5.891  1.6032  1.9763  2.5533
  121SOPE   H3S12822   5.502   6.251   5.838 -0.2881 -0.3819  0.0998
  121SOPE   C2412823   5.374   6.074   5.837 -0.0240  0.6113 -0.1692
  121SOPE   H4R12824   5.347   5.983   5.895  0.0217 -0.6827 -2.1182
  121SOPE   H4S12825   5.288   6.145   5.840 -0.2105  0.4226 -0.9357
  121SOPE   C2512826   5.422   6.025   5.698  0.4085  0.0939 -0.4675
  121SOPE   H5R12827   5.461   6.110   5.638  0.3278 -0.7800 -1.8097
  121SOPE   H5S12828   5.509   5.960   5.722  0.3623  0.5851  1.1789
  121SOPE   C2612829   5.326   5.919   5.632 -0.0987 -0.2015  1.4627
  121SOPE   H6R12830   5.398   5.872   5.562  1.1028  2.5091  0.7713
  121SOPE   H6S12831   5.290   5.850   5.712  0.4915  0.4163  2.2649
  121SOPE   C2712832   5.216   5.969   5.541 -0.0015 -0.2149 -0.1676
  121SOPE   H7R12833   5.151   5.889   5.500  0.0409 -0.4559  0.2390
  121SOPE   H7S12834   5.141   6.029   5.597 -0.7676 -0.6960 -0.6558
  121SOPE   C2812835   5.283   6.037   5.420 -0.0815 -0.9708  0.2911
  121SOPE   H8R12836   5.342   6.124   5.458 -0.3069 -0.8558  0.3752
  121SOPE   H8S12837   5.357   5.974   5.365 -0.6491 -0.3223 -1.2822
  121SOPE   C2912838   5.173   6.074   5.323 -0.0840  0.8220 -0.0250
  121SOPE   H9112839   5.070   6.069   5.360 -0.1200  0.2217 -0.1890
  121SOPE  C21012840   5.186   6.100   5.195  0.9431  0.4264  0.1519
  121SOPE  H10112841   5.091   6.121   5.143  1.6766 -2.1356 -2.5101
  121SOPE  C21112842   5.313   6.108   5.114  0.5038  0.0446  0.6172
  121SOPE  H11R12843   5.398   6.150   5.171  1.5648 -0.2042 -0.7517
  121SOPE  H11S12844   5.304   6.171   5.023 -0.6628  0.5734  1.0679
  121SOPE  C21212845   5.377   5.971   5.084 -0.3395 -0.2668  0.3721
  121SOPE  H12R12846   5.406   5.904   5.169  0.7417 -0.3552 -0.0448
  121SOPE  H12S12847   5.473   6.002   5.038 -0.6793 -0.9655 -0.8483
  121SOPE  C21312848   5.307   5.883   4.976 -0.5073  0.1053  0.3819
  121SOPE  H13R12849   5.286   5.955   4.894  0.3713  2.4298  2.0810
  121SOPE  H13S12850   5.215   5.828   5.007  0.0528 -0.7440  0.5772
  121SOPE  C21412851   5.397   5.782   4.902 -0.6233 -0.0536 -0.6523
  121SOPE  H14R12852   5.481   5.833   4.849 -0.3044  0.9206  0.7405
  121SOPE  H14S12853   5.357   5.727   4.814  0.0823 -1.7619  0.0424
  121SOPE  C21512854   5.446   5.671   4.997  0.2106  0.5605 -0.3065
  121SOPE  H15R12855   5.366   5.632   5.063  2.3432 -1.4310  1.2749
  121SOPE  H15S12856   5.522   5.719   5.063  0.2436 -0.2252  0.2404
  121SOPE  C21612857   5.508   5.559   4.918  0.2676  0.0728 -0.2741
  121SOPE  H16R12858   5.450   5.539   4.826 -1.5198  1.4183  0.5047
  121SOPE  H16S12859   5.511   5.466   4.978 -0.2945  1.4328  1.9974
  121SOPE  C21712860   5.656   5.571   4.886  0.6358 -0.0373 -0.5373
  121SOPE  H17R12861   5.711   5.591   4.981  1.2103 -1.5377 -0.5221
  121SOPE  H17S12862   5.651   5.658   4.818 -1.6968  0.7215  0.5015
  121SOPE  C21812863   5.717   5.444   4.812  0.0461  0.3283  0.2640
  121SOPE  H18R12864   5.661   5.416   4.720  2.2202  0.1642 -1.0780
  121SOPE  H18S12865   5.701   5.351   4.872  1.0262 -0.4395 -0.6392
  121SOPE  H18T12866   5.824   5.458   4.787 -0.0310 -1.0414 -1.0064
  121SOPE   C3312867   6.036   6.020   5.865 -0.1349 -0.2635 -0.5963
  121SOPE   H3X12868   6.110   5.968   5.930 -1.7309 -1.0160  0.6815
  121SOPE   H3Y12869   6.069   6.126   5.858  1.2146 -0.5531  0.8500
  121SOPE   C3412870   6.026   5.957   5.720  0.5600 -0.2288  0.4532
  121SOPE   H4X12871   6.006   6.037   5.646  2.8456  0.1524  0.1726
  121SOPE   H4Y12872   5.958   5.869   5.720  0.0154  0.1834 -0.3128
  121SOPE   C3512873   6.173   5.918   5.672  0.9262  0.2401  0.3196
  121SOPE   H5X12874   6.200   5.826   5.727  0.2060 -0.8668 -1.1203
  121SOPE   H5Y12875   6.245   5.996   5.706  1.7730 -0.7249  0.7766
  121SOPE   C3612876   6.183   5.903   5.522 -0.5365  0.0217 -0.6335
  121SOPE   H6X12877   6.289   5.890   5.492  0.1890  2.6586  0.5097
  121SOPE   H6Y12878   6.153   5.998   5.473 -1.9529 -1.0693 -1.9989
  121SOPE   C3712879   6.105   5.774   5.476  0.2142 -0.3636 -0.2223
  121SOPE   H7X12880   5.997   5.789   5.495  0.6514  0.5489  1.8005
  121SOPE   H7Y12881   6.132   5.684   5.536 -1.5304 -1.7363 -1.4010
  121SOPE   C3812882   6.134   5.747   5.330 -0.5275 -0.2631  0.5721
  121SOPE   H8X12883   6.142   5.846   5.281 -1.3244  0.4869  1.8934
  121SOPE   H8Y12884   6.058   5.702   5.263  1.6792  0.1310 -2.4025
  121SOPE   C3912885   6.258   5.664   5.291  0.4531  0.4982 -0.5058
  121SOPE   H9X12886   6.248   5.568   5.345  2.2488  0.2489 -0.5675
  121SOPE   H9Y12887   6.352   5.704   5.334 -0.5496  1.8649  0.5167
  121SOPE  C31012888   6.269   5.658   5.138 -0.3284  0.0941  0.0295
  121SOPE  H10X12889   6.273   5.758   5.090 -0.2330 -0.8926 -2.1481
  121SOPE  H10Y12890   6.172   5.622   5.096 -1.4185  2.4900  0.2975
  121SOPE  C31112891   6.389   5.573   5.091 -0.3548  0.7634  0.2271
  121SOPE  H11X12892   6.371   5.467   5.116 -0.7646  1.0563  1.1981
  121SOPE  H11Y12893   6.480   5.612   5.143 -0.2147  0.7724 -0.0211
  121SOPE  C31212894   6.411   5.589   4.939 -0.2983  0.4809 -0.2473
  121SOPE  H12X12895   6.425   5.697   4.920 -0.0538  0.6069  0.5981
  121SOPE  H12Y12896   6.320   5.558   4.883  0.1652 -0.2763 -0.6034
  121SOPE  C31312897   6.534   5.502   4.890  0.4794 -0.2602  0.6372
  121SOPE  H13X12898   6.623   5.540   4.946  0.5238  0.4351  0.1109
  121SOPE  H13Y12899   6.546   5.533   4.784  0.8760 -0.3401  0.6555
  121SOPE  C31412900   6.520   5.357   4.881  0.5297  0.4598 -0.2697
  121SOPE  H14X12901   6.455   5.334   4.794 -0.1956  1.2321  0.0600
  121SOPE  H14Y12902   6.461   5.315   4.965 -0.6036  2.3298 -0.0649
  121SOPE  C31512903   6.647   5.276   4.868  0.3760  0.6286 -0.2832
  121SOPE  H15X12904   6.696   5.276   4.968  1.1640  0.8147 -0.6695
  121SOPE  H15Y12905   6.708   5.301   4.779 -1.8657 -1.1347 -2.4890
  121SOPE  C31612906   6.612   5.121   4.848 -0.7271  0.0062 -0.4072
  121SOPE  H16X12907   6.711   5.069   4.849  0.6546  2.4696  0.2159
  121SOPE  H16Y12908   6.563   5.106   4.750 -2.5293 -1.6491  0.6830
  121SOPE  C31712909   6.531   5.056   4.967  0.7937 -0.5190 -0.2568
  121SOPE  H17X12910   6.422   5.080   4.976  0.9968  0.0020  0.9501
  121SOPE  H17Y12911   6.579   5.104   5.055 -0.5223 -0.7188  0.6134
  121SOPE  C31812912   6.557   4.905   4.978  0.0264  0.1570 -0.5161
  121SOPE  H18X12913   6.657   4.881   4.937  1.3980  1.4598  1.8269
  121SOPE  H18Y12914   6.470   4.870   4.919 -1.9725  2.0252  1.1238
  121SOPE  H18Z12915   6.556   4.859   5.079  4.9341 -2.1284 -1.2298
  122SOPE     N12916   5.689   6.683   6.642 -0.5716  0.2022 -0.0799
  122SOPE   HN112917   5.651   6.767   6.689 -0.1812  0.4313 -0.1692
  122SOPE   HN212918   5.747   6.719   6.564 -0.8719  0.3787 -0.2227
  122SOPE   HN312919   5.609   6.626   6.608  0.7939 -2.2021  0.4536
  122SOPE   C1212920   5.754   6.612   6.763  0.0750 -0.3950  0.1754
  122SOPE  H12A12921   5.672   6.596   6.837 -0.6576 -3.1142 -1.0784
  122SOPE  H12B12922   5.812   6.694   6.810  0.5383 -0.3037 -0.5558
  122SOPE   C1112923   5.826   6.484   6.734  0.2368  0.5169  0.4001
  122SOPE  H11A12924   5.765   6.407   6.682  0.7762  1.0683 -1.1109
  122SOPE  H11B12925   5.849   6.429   6.828 -0.2873 -1.1632 -0.4109
  122SOPE     P12926   6.071   6.554   6.701  0.0940 -0.3753 -0.3279
  122SOPE   O1312927   6.135   6.456   6.787  0.5453  1.1753 -0.5217
  122SOPE   O1412928   6.052   6.689   6.761 -0.4063  0.0636 -0.0884
  122SOPE   O1212929   5.936   6.507   6.634 -0.1013  0.4137 -0.2416
  122SOPE   O1112930   6.166   6.568   6.575 -0.4458  0.1646  0.2725
  122SOPE    C112931   6.195   6.692   6.505 -0.0705 -0.0345 -0.2580
  122SOPE    HA12932   6.272   6.669   6.429  0.0654  0.6139 -0.3260
  122SOPE    HB12933   6.237   6.762   6.580  2.4829  1.0704 -2.5630
  122SOPE    C212934   6.069   6.750   6.440 -0.3698 -0.4214 -0.4742
  122SOPE    HS12935   5.989   6.784   6.509 -0.4601  2.5737 -1.9264
  122SOPE   O2112936   6.024   6.653   6.345 -0.2052  0.4962  0.4068
  122SOPE   C2112937   5.899   6.660   6.319 -0.7951  0.0762  0.0377
  122SOPE   O2212938   5.822   6.731   6.373 -0.1499 -0.3289 -0.2045
  122SOPE   C2212939   5.869   6.563   6.199  0.0179 -0.0093 -0.2874
  122SOPE   H2R12940   5.759   6.551   6.191 -0.1500  1.5851 -0.6834
  122SOPE   H2S12941   5.894   6.460   6.232 -2.8981 -1.0485 -1.0219
  122SOPE    C312942   6.107   6.876   6.365  1.0266  0.3733  0.1514
  122SOPE    HX12943   6.184   6.842   6.293  0.2286  0.2690 -0.6761
  122SOPE    HY12944   6.159   6.954   6.424 -0.3989  2.2814 -0.9803
  122SOPE   O3112945   5.997   6.939   6.295 -0.3233 -0.0460  0.3389
  122SOPE   C3112946   5.938   7.034   6.368 -0.0016  0.0215 -0.1824
  122SOPE   O3212947   5.972   7.071   6.479  0.0058  0.0479 -0.2022
  122SOPE   C3212948   5.825   7.089   6.290  0.7245  0.1808  0.3400
  122SOPE   H2X12949   5.815   7.185   6.344  2.6978 -0.3098  1.6744
  122SOPE   H2Y12950   5.737   7.024   6.309  0.8276  0.7068  2.9241
  122SOPE   C2312951   5.931   6.609   6.061  0.3274 -0.3730 -0.3347
  122SOPE   H3R12952   6.041   6.616   6.077  0.0193  0.6095  1.6922
  122SOPE   H3S12953   5.881   6.707   6.043  0.6503 -0.1121  0.1439
  122SOPE   C2412954   5.894   6.506   5.953 -0.6725 -1.0946  0.4227
  122SOPE   H4R12955   5.905   6.403   5.993 -3.4385 -1.3466  0.7776
  122SOPE   H4S12956   5.785   6.523   5.940 -0.9968 -2.9893  0.2866
  122SOPE   C2512957   5.963   6.529   5.819  0.3287 -0.3121 -0.0170
  122SOPE   H5R12958   5.925   6.624   5.775 -0.0522  1.0871  3.0327
  122SOPE   H5S12959   6.074   6.535   5.831  0.5019  0.3698 -1.6228
  122SOPE   C2612960   5.946   6.415   5.719 -0.2748 -0.4276 -0.4972
  122SOPE   H6R12961   6.005   6.426   5.625 -1.8410 -0.8941 -1.5631
  122SOPE   H6S12962   5.968   6.318   5.769  0.9705 -0.1858 -0.5277
  122SOPE   C2712963   5.800   6.394   5.695  0.1997  0.0602 -0.0585
  122SOPE   H7R12964   5.750   6.356   5.786  1.7818  0.3454  0.9681
  122SOPE   H7S12965   5.748   6.485   5.657 -0.0282 -0.3018 -0.6344
  122SOPE   C2812966   5.776   6.281   5.584  0.3668  0.5521 -0.6299
  122SOPE   H8R12967   5.852   6.300   5.506  0.3725  1.8514 -0.3348
  122SOPE   H8S12968   5.806   6.182   5.623  0.4290  0.4889 -0.8399
  122SOPE   C2912969   5.643   6.274   5.512 -0.9406  0.5020 -0.9079
  122SOPE   H9112970   5.561   6.337   5.549  0.0784  0.4756  1.6808
  122SOPE  C21012971   5.609   6.197   5.406 -0.6771 -0.6760 -0.0732
  122SOPE  H10112972   5.511   6.220   5.361 -1.9882 -0.0126  2.8767
  122SOPE  C21112973   5.701   6.089   5.354 -0.2577  0.9411  0.2476
  122SOPE  H11R12974   5.661   5.986   5.355  1.0044  0.4167 -0.7427
  122SOPE  H11S12975   5.790   6.077   5.421  0.2506  1.3450 -0.3443
  122SOPE  C21212976   5.739   6.105   5.206 -0.4087 -1.0073  0.1147
  122SOPE  H12R12977   5.777   6.209   5.198 -2.3252 -0.4093 -2.7607
  122SOPE  H12S12978   5.643   6.091   5.152 -0.3710  0.2146 -0.3106
  122SOPE  C21312979   5.845   6.003   5.152 -0.5383  0.3231  0.6012
  122SOPE  H13R12980   5.807   5.901   5.173  0.2416 -0.3596 -1.1151
  122SOPE  H13S12981   5.926   6.018   5.225 -1.6234  2.4515  1.4704
  122SOPE  C21412982   5.894   6.024   5.006 -0.5040  0.0822  0.3308
  122SOPE  H14R12983   5.934   6.128   5.007 -1.0458  0.2957  0.1760
  122SOPE  H14S12984   5.802   6.010   4.947  0.3583  0.8122 -1.2403
  122SOPE  C21512985   5.998   5.914   4.966 -0.3162  0.8301 -0.4822
  122SOPE  H15R12986   5.943   5.820   4.946  0.8891  0.2382 -1.1598
  122SOPE  H15S12987   6.081   5.897   5.038 -1.5350  0.9320  0.9773
  122SOPE  C21612988   6.050   5.936   4.827  0.6910 -0.5835  0.5640
  122SOPE  H16R12989   6.114   6.027   4.822 -0.4010  0.2111  0.7194
  122SOPE  H16S12990   5.963   5.966   4.765  0.3732  0.2126  1.3732
  122SOPE  C21712991   6.136   5.811   4.778  0.6675 -0.0272 -0.1140
  122SOPE  H17R12992   6.075   5.719   4.765  0.6631 -0.1701  0.8697
  122SOPE  H17S12993   6.194   5.790   4.870 -0.3818 -2.7683  0.0384
  122SOPE  C21812994   6.218   5.829   4.658 -0.4105 -0.2114  0.4573
  122SOPE  H18R12995   6.162   5.865   4.569 -0.8316 -0.4810  0.6065
  122SOPE  H18S12996   6.271   5.735   4.631 -1.4218 -1.0079  1.1443
  122SOPE  H18T12997   6.295   5.903   4.685  1.2553 -1.0884 -1.6402
  122SOPE   C3312998   5.856   7.117   6.134  0.2355  0.4703 -0.4823
  122SOPE   H3X12999   5.960   7.154   6.123  1.1052 -1.4985  0.4854
  122SOPE   H3Y13000   5.783   7.198   6.116 -0.3342  0.8834  2.9867
  122SOPE   C3413001   5.831   7.000   6.036  0.4938 -0.5762  0.2872
  122SOPE   H4X13002   5.729   6.957   6.040  0.1524  0.2698  3.1068
  122SOPE   H4Y13003   5.898   6.918   6.070 -0.1791 -1.2432  0.0233
  122SOPE   C3513004   5.874   7.057   5.896  0.4902  0.2644  0.4958
  122SOPE   H5X13005   5.980   7.090   5.907  0.4562  0.3567  0.5503
  122SOPE   H5Y13006   5.807   7.138   5.859  1.5637 -0.2541 -2.8986
  122SOPE   C3613007   5.869   6.934   5.805  1.0481  0.5657  0.4196
  122SOPE   H6X13008   5.783   6.869   5.830  1.4714 -0.1800 -0.0187
  122SOPE   H6Y13009   5.964   6.882   5.832 -0.0544 -0.8641  1.7367
  122SOPE   C3713010   5.857   6.958   5.656  0.1535 -0.5339 -0.1247
  122SOPE   H7X13011   5.948   7.011   5.621  0.2618 -0.1804  0.6937
  122SOPE   H7Y13012   5.769   7.021   5.632  1.1127  1.6047  1.6373
  122SOPE   C3813013   5.842   6.824   5.590  0.1300  0.0368 -0.0100
  122SOPE   H8X13014   5.750   6.779   5.634  0.7519 -2.8668 -1.3784
  122SOPE   H8Y13015   5.928   6.758   5.617  0.1179  0.7836  1.9959
  122SOPE   C3913016   5.817   6.821   5.435 -0.0051  0.0195 -0.4804
  122SOPE   H9X13017   5.911   6.847   5.382  0.4330  0.0343  0.2910
  122SOPE   H9Y13018   5.744   6.902   5.414  0.6706  0.0015 -3.2339
  122SOPE  C31013019   5.755   6.691   5.380 -0.4395  0.0704  0.0890
  122SOPE  H10X13020   5.664   6.675   5.441 -0.7324  0.8055 -0.1420
  122SOPE  H10Y13021   5.821   6.607   5.407  0.1804  1.0462  1.7690
  122SOPE  C31113022   5.725   6.693   5.228 -0.2181  0.1934 -1.1341
  122SOPE  H11X13023   5.817   6.729   5.178 -0.5237  1.0615 -1.0802
  122SOPE  H11Y13024   5.647   6.770   5.211 -2.0141 -0.7794  1.9301
  122SOPE  C31213025   5.667   6.561   5.173  1.0673 -0.2705  0.1864
  122SOPE  H12X13026   5.601   6.522   5.253 -0.8881  2.0338 -0.2007
  122SOPE  H12Y13027   5.755   6.493   5.171  0.8959 -0.4761 -1.0310
  122SOPE  C31313028   5.618   6.567   5.032  0.2270  0.4149 -0.4707
  122SOPE  H13X13029   5.697   6.608   4.965 -0.3402  1.1793 -0.6852
  122SOPE  H13Y13030   5.537   6.642   5.027  0.7222  0.9680 -0.2474
  122SOPE  C31413031   5.574   6.427   4.976  0.0451 -0.1475 -0.2415
  122SOPE  H14X13032   5.488   6.392   5.038 -0.0130  0.6384  0.1267
  122SOPE  H14Y13033   5.661   6.359   4.984  0.2613  0.1431 -0.1247
  122SOPE  C31513034   5.541   6.451   4.830  0.1368 -0.3102 -0.5201
  122SOPE  H15X13035   5.634   6.490   4.783  1.7145 -1.8881  1.1593
  122SOPE  H15Y13036   5.450   6.514   4.821 -0.0045 -0.1078  1.7831
  122SOPE  C31613037   5.507   6.318   4.748 -0.2192  0.0281 -0.9475
  122SOPE  H16X13038   5.525   6.339   4.640  0.6379 -0.4956 -0.9148
  122SOPE  H16Y13039   5.398   6.302   4.762 -0.2575 -0.3012 -1.6034
  122SOPE  C31713040   5.579   6.192   4.796  0.3217 -0.9140 -0.6583
  122SOPE  H17X13041   5.546   6.170   4.900  0.4221  2.2940  0.1418
  122SOPE  H17Y13042   5.687   6.216   4.799 -0.5115  3.8023  3.5436
  122SOPE  C31813043   5.557   6.082   4.697  0.5644 -0.0154  0.4685
  122SOPE  H18X13044   5.567   6.116   4.592 -1.6736 -0.8851 -0.0727
  122SOPE  H18Y13045   5.451   6.051   4.705  0.6436  0.1088  2.4796
  122SOPE  H18Z13046   5.606   5.986   4.726 -1.6829 -1.3474  0.1046
  123SOPE     N13047   5.242   2.823   2.818 -0.0825 -0.3019 -0.6750
  123SOPE   HN113048   5.257   2.791   2.720 -0.9850 -1.6737 -0.3914
  123SOPE   HN213049   5.215   2.741   2.876  1.3755 -1.3704 -1.4466
  123SOPE   HN313050   5.176   2.903   2.820  1.8745  1.3794  0.6109
  123SOPE   C1213051   5.376   2.891   2.863 -0.3720  0.2280  0.4565
  123SOPE  H12A13052   5.452   2.826   2.813 -1.4583 -0.0806 -0.8783
  123SOPE  H12B13053   5.387   2.904   2.972 -0.3087  2.6914  0.2065
  123SOPE   C1113054   5.385   3.041   2.824 -0.1893 -0.1135  0.2000
  123SOPE  H11A13055   5.488   3.068   2.856 -0.4282 -1.0768  1.9186
  123SOPE  H11B13056   5.307   3.087   2.888 -1.2966  0.3797 -1.4638
  123SOPE     P13057   5.322   3.196   2.642 -0.0706  0.4435 -0.4214
  123SOPE   O1313058   5.182   3.209   2.675 -0.1527  0.0085 -0.0986
  123SOPE   O1413059   5.355   3.201   2.497 -0.2637  0.2062  0.7951
  123SOPE   O1213060   5.351   3.046   2.687  0.5677 -0.2129 -0.1502
  123SOPE   O1113061   5.420   3.289   2.730  0.0067  0.2013 -0.0089
  123SOPE    C113062   5.382   3.420   2.769 -0.6916  0.0173 -0.6737
  123SOPE    HA13063   5.288   3.452   2.719 -0.9149  0.9706  0.3157
  123SOPE    HB13064   5.468   3.485   2.743 -1.3071  2.3272  2.4559
  123SOPE    C213065   5.361   3.433   2.925  0.1589  0.0231  0.2903
  123SOPE    HS13066   5.347   3.541   2.945  2.3163  1.1759 -3.3255
  123SOPE   O2113067   5.477   3.372   2.989 -0.3341  0.2377 -0.5738
  123SOPE   C2113068   5.589   3.448   2.974  0.0358  0.6637  0.2573
  123SOPE   O2213069   5.593   3.557   2.931 -0.8402 -0.4247  0.2262
  123SOPE   C2213070   5.712   3.368   3.022 -0.8260 -0.3018 -0.2244
  123SOPE   H2R13071   5.792   3.354   2.946  0.1123  1.7436  0.3126
  123SOPE   H2S13072   5.682   3.264   3.046 -0.3095  0.0103  1.9733
  123SOPE    C313073   5.221   3.370   2.963  0.2062  0.0922 -0.2974
  123SOPE    HX13074   5.215   3.264   2.929 -1.5125  0.5420 -1.5381
  123SOPE    HY13075   5.153   3.433   2.903  1.3016  0.5152 -1.1427
  123SOPE   O3113076   5.193   3.379   3.101 -0.6152  0.1455 -0.5970
  123SOPE   C3113077   5.236   3.274   3.177 -0.3383 -0.6447  0.0619
  123SOPE   O3213078   5.290   3.178   3.130  1.0401 -0.6072 -0.2309
  123SOPE   C3213079   5.216   3.322   3.325  0.7614  0.7455 -0.2043
  123SOPE   H2X13080   5.108   3.304   3.342  0.6926  0.3228 -1.0464
  123SOPE   H2Y13081   5.232   3.432   3.319 -0.9209  0.9800 -0.9237
  123SOPE   C2313082   5.774   3.419   3.154 -0.4714 -0.3752 -0.0645
  123SOPE   H3R13083   5.826   3.515   3.133 -0.8863 -0.6198 -2.5065
  123SOPE   H3S13084   5.856   3.347   3.176 -0.9840 -1.1399 -0.5810
  123SOPE   C2413085   5.668   3.432   3.265  0.6672  0.1553  0.4273
  123SOPE   H4R13086   5.599   3.518   3.250  1.6944  0.9438  0.0873
  123SOPE   H4S13087   5.606   3.340   3.271 -1.0309  1.3755  3.2038
  123SOPE   C2513088   5.727   3.452   3.403  0.1309 -0.1091  0.2313
  123SOPE   H5R13089   5.787   3.363   3.431  1.5486  0.8199  0.2434
  123SOPE   H5S13090   5.784   3.547   3.393 -0.0843  0.1174  1.1026
  123SOPE   C2613091   5.623   3.484   3.507 -0.0592 -0.2769 -1.3967
  123SOPE   H6R13092   5.595   3.592   3.504 -2.1398 -0.6257  1.8048
  123SOPE   H6S13093   5.524   3.438   3.485 -0.5374  0.1609 -0.2182
  123SOPE   C2713094   5.675   3.437   3.643 -0.3320 -0.8956 -0.1817
  123SOPE   H7R13095   5.695   3.327   3.646  1.0804 -0.6642  0.0577
  123SOPE   H7S13096   5.775   3.484   3.656  0.1575 -1.6689 -1.0336
  123SOPE   C2813097   5.581   3.465   3.762  0.1978  0.2742 -0.7996
  123SOPE   H8R13098   5.490   3.407   3.735  0.2889 -1.1371  1.6648
  123SOPE   H8S13099   5.621   3.424   3.857 -1.7899 -0.3054 -0.1640
  123SOPE   C2913100   5.550   3.605   3.784  0.3896  0.9370  0.2160
  123SOPE   H9113101   5.453   3.633   3.741 -0.2094 -2.8937 -1.3239
  123SOPE  C21013102   5.621   3.699   3.851  0.0747  0.7237 -0.7726
  123SOPE  H10113103   5.583   3.801   3.868  2.2878  1.2505  1.6563
  123SOPE  C21113104   5.748   3.673   3.917  0.2952  0.5788  0.1701
  123SOPE  H11R13105   5.831   3.667   3.844  0.4243  0.6115  0.3138
  123SOPE  H11S13106   5.750   3.576   3.971  0.9246  0.5542  0.1149
  123SOPE  C21213107   5.788   3.782   4.013 -0.1620  0.7466 -0.9862
  123SOPE  H12R13108   5.867   3.750   4.084  1.8408  1.7577 -2.6485
  123SOPE  H12S13109   5.700   3.814   4.074  0.4929 -2.4002  1.8760
  123SOPE  C21313110   5.839   3.902   3.937  0.1465 -0.1844 -0.2469
  123SOPE  H13R13111   5.758   3.945   3.874  1.7018  1.0187 -1.5289
  123SOPE  H13S13112   5.927   3.872   3.876  1.3067  2.0959  0.1945
  123SOPE  C21413113   5.881   4.019   4.032  0.1196 -0.0715  0.4637
  123SOPE  H14R13114   5.806   4.035   4.112  1.2529  1.1230  1.3239
  123SOPE  H14S13115   5.888   4.107   3.964  0.2721  0.5784  1.3094
  123SOPE  C21513116   6.027   3.999   4.080 -0.5520  0.0629 -0.1310
  123SOPE  H15R13117   6.089   3.963   3.995  1.4846 -3.2255  2.4749
  123SOPE  H15S13118   6.030   3.920   4.158  0.2705  0.1773 -0.0394
  123SOPE  C21613119   6.096   4.122   4.139  0.2543  0.3266 -0.8922
  123SOPE  H16R13120   6.047   4.159   4.232 -1.3373 -0.4451 -1.3814
  123SOPE  H16S13121   6.078   4.210   4.073 -0.6845  0.9455  0.1425
  123SOPE  C21713122   6.246   4.100   4.167  0.3533 -0.9184 -0.6704
  123SOPE  H17R13123   6.274   4.205   4.192 -1.0104 -1.0267  1.6264
  123SOPE  H17S13124   6.284   4.062   4.070  1.2511 -2.8689  0.4026
  123SOPE  C21813125   6.295   4.012   4.278  0.5042  0.1569 -0.2149
  123SOPE  H18R13126   6.403   3.985   4.278  0.3385 -0.5610  0.8004
  123SOPE  H18S13127   6.237   3.917   4.281 -2.3100  1.7665  2.7351
  123SOPE  H18T13128   6.272   4.058   4.376  2.0571  0.5018  0.0136
  123SOPE   C3313129   5.297   3.228   3.420  0.1915 -0.4981 -0.8700
  123SOPE   H3X13130   5.396   3.201   3.378 -0.7579 -0.4802 -3.3165
  123SOPE   H3Y13131   5.248   3.130   3.438 -0.7642  0.4918  2.8320
  123SOPE   C3413132   5.320   3.287   3.558  0.0281  0.7839 -0.3914
  123SOPE   H4X13133   5.340   3.395   3.543 -0.9607  0.8925 -1.0165
  123SOPE   H4Y13134   5.411   3.235   3.594  0.3163  2.2668  1.1514
  123SOPE   C3513135   5.196   3.272   3.654 -0.8102 -0.1493  0.0457
  123SOPE   H5X13136   5.174   3.163   3.659 -0.2352 -0.2090  2.0543
  123SOPE   H5Y13137   5.125   3.325   3.588 -1.3247  0.1866  0.8584
  123SOPE   C3613138   5.216   3.354   3.782  0.3468 -0.0095 -0.0229
  123SOPE   H6X13139   5.233   3.461   3.760 -1.2230  0.4339  0.7364
  123SOPE   H6Y13140   5.307   3.319   3.835  0.1185 -0.5288  0.0349
  123SOPE   C3713141   5.099   3.351   3.884 -0.2076 -0.0239 -0.5166
  123SOPE   H7X13142   5.016   3.404   3.832  0.6108  2.2844  0.4069
  123SOPE   H7Y13143   5.123   3.421   3.967 -2.1470 -1.2520  1.2102
  123SOPE   C3813144   5.052   3.212   3.941  0.0863 -0.0681  0.2707
  123SOPE   H8X13145   5.023   3.138   3.864 -2.1954  1.3283 -0.3088
  123SOPE   H8Y13146   4.958   3.222   3.999  1.2349  0.8296  2.0635
  123SOPE   C3913147   5.164   3.158   4.033 -0.1535 -0.4835 -0.3119
  123SOPE   H9X13148   5.261   3.196   3.996 -0.7396 -0.0752 -1.4599
  123SOPE   H9Y13149   5.165   3.047   4.024  1.2201 -0.4997 -0.0464
  123SOPE  C31013150   5.151   3.205   4.174  0.3285  0.0764 -0.2978
  123SOPE  H10X13151   5.041   3.207   4.189  0.2792 -0.3322 -0.6060
  123SOPE  H10Y13152   5.189   3.308   4.195  1.5076 -0.6082  1.1623
  123SOPE  C31113153   5.213   3.104   4.282  0.0829  0.5189  0.1729
  123SOPE  H11X13154   5.304   3.058   4.239  0.7050  2.7228 -1.0069
  123SOPE  H11Y13155   5.144   3.017   4.289 -0.6872  0.9981 -1.1893
  123SOPE  C31213156   5.232   3.158   4.426 -0.3751 -0.0192  0.0350
  123SOPE  H12X13157   5.125   3.176   4.452 -0.8353 -2.4079  0.0417
  123SOPE  H12Y13158   5.277   3.257   4.403 -1.1484  0.4081  0.3329
  123SOPE  C31313159   5.294   3.069   4.540 -0.5224 -0.7902 -0.3781
  123SOPE  H13X13160   5.345   3.130   4.617 -1.9333 -2.0485  1.6465
  123SOPE  H13Y13161   5.378   3.008   4.500  1.2943  0.6211  1.1054
  123SOPE  C31413162   5.188   2.988   4.617 -0.0956  0.1740  0.5521
  123SOPE  H14X13163   5.125   2.946   4.537 -0.9686  0.8999  0.8402
  123SOPE  H14Y13164   5.124   3.039   4.692 -1.6097 -0.0544 -0.5562
  123SOPE  C31513165   5.267   2.887   4.700 -0.0005 -0.3191 -0.5622
  123SOPE  H15X13166   5.197   2.854   4.780 -2.7128  3.0296 -1.2950
  123SOPE  H15Y13167   5.354   2.940   4.744 -0.4463  2.2730 -2.5705
  123SOPE  C31613168   5.322   2.765   4.612  0.1393 -0.6789 -0.1783
  123SOPE  H16X13169   5.367   2.695   4.685 -0.7500 -1.3067 -0.2165
  123SOPE  H16Y13170   5.389   2.813   4.537 -0.9371 -0.7312 -1.2165
  123SOPE  C31713171   5.217   2.686   4.532 -0.2293 -0.0988 -0.0261
  123SOPE  H17X13172   5.161   2.752   4.462  0.0325  0.8098  0.6009
  123SOPE  H17Y13173   5.141   2.645   4.602  0.0406  2.4712  1.9392
  123SOPE  C31813174   5.268   2.575   4.437  0.2712 -0.4480 -0.3688
  123SOPE  H18X13175   5.192   2.538   4.366 -1.3006  0.1736  0.9211
  123SOPE  H18Y13176   5.299   2.479   4.482 -0.8881 -0.5519  0.2512
  123SOPE  H18Z13177   5.355   2.619   4.383 -0.3594  0.3490 -0.7617
  124SOPE     N13178   0.249   6.258   2.757  0.3291  0.1765 -0.3828
  124SOPE   HN113179   0.270   6.297   2.663  0.9113  0.4607 -0.1397
  124SOPE   HN213180   0.320   6.305   2.816 -2.0424  0.7248  2.1747
  124SOPE   HN313181   0.251   6.154   2.753  1.0108  0.2161 -1.7935
  124SOPE   C1213182   0.116   6.305   2.805  0.1154 -0.0148 -0.1479
  124SOPE  H12A13183   0.120   6.292   2.916  3.1461  1.1563 -0.0247
  124SOPE  H12B13184   0.042   6.235   2.761 -1.1794 -0.3009  2.2940
  124SOPE   C1113185   0.101   6.453   2.773  0.4491 -0.1720  0.4504
  124SOPE  H11A13186   0.178   6.516   2.822  1.7249  0.9637 -2.7841
  124SOPE  H11B13187   0.011   6.494   2.824  1.2843  0.8563  1.1449
  124SOPE     P13188   0.157   6.590   2.558  0.3056 -0.0510  0.2604
  124SOPE   O1313189   0.121   6.573   2.415 -0.0456  0.5437 -0.3760
  124SOPE   O1413190   0.300   6.589   2.593 -0.3430  0.0582  0.0287
  124SOPE   O1213191   0.100   6.468   2.633  0.0025 -0.2678 -0.1941
  124SOPE   O1113192   0.097   6.723   2.602 -0.1802  0.2136  0.1317
  124SOPE    C113193  -0.046   6.733   2.629 -0.7830 -0.0854 -0.2141
  124SOPE    HA13194  -0.068   6.682   2.725 -1.5323 -2.7963 -1.7208
  124SOPE    HB13195  -0.097   6.668   2.554 -0.8938  0.2331 -0.4141
  124SOPE    C213196  -0.087   6.882   2.617  0.3061 -0.2848  0.0370
  124SOPE    HS13197  -0.022   6.928   2.539  0.2320  2.1495  1.3364
  124SOPE   O2113198  -0.061   6.943   2.745 -0.0945  0.1761 -0.4396
  124SOPE   C2113199  -0.014   7.065   2.753 -0.5216 -0.7017 -0.0779
  124SOPE   O2213200   0.010   7.141   2.662  0.6095  0.3720 -0.0563
  124SOPE   C2213201  -0.011   7.088   2.909  0.1599  0.2597 -0.1510
  124SOPE   H2R13202   0.042   6.997   2.946  1.0563  0.2913 -1.3003
  124SOPE   H2S13203  -0.116   7.076   2.943  0.2147 -1.2010 -0.4163
  124SOPE    C313204  -0.231   6.908   2.583  0.1709  0.2887 -0.2485
  124SOPE    HX13205  -0.262   6.850   2.493 -1.1280 -2.1319  1.6344
  124SOPE    HY13206  -0.245   7.017   2.570  2.5562  0.7825  0.8147
  124SOPE   O3113207  -0.313   6.852   2.682  0.7293 -1.0157  0.0042
  124SOPE   C3113208  -0.347   6.937   2.784 -0.1674  0.0770  0.1935
  124SOPE   O3213209  -0.328   7.056   2.779  0.1238  0.5808 -0.1735
  124SOPE   C3213210  -0.386   6.842   2.898 -0.3185  0.1340 -0.6521
  124SOPE   H2X13211  -0.309   6.764   2.914 -0.1973  0.0478 -1.5924
  124SOPE   H2Y13212  -0.483   6.799   2.863 -1.0160  1.4388 -0.3930
  124SOPE   C2313213   0.073   7.211   2.959  0.6920  0.0273 -0.0564
  124SOPE   H3R13214   0.016   7.306   2.953 -0.7232 -0.8442 -3.4860
  124SOPE   H3S13215   0.158   7.222   2.889  1.2785 -1.0712  0.4566
  124SOPE   C2413216   0.135   7.199   3.100 -0.1064 -0.4746  0.0500
  124SOPE   H4R13217   0.061   7.229   3.177  2.4384  1.8061  1.7980
  124SOPE   H4S13218   0.161   7.094   3.126  0.2493 -0.6020 -0.7911
  124SOPE   C2513219   0.258   7.288   3.122  0.2983  0.4199 -0.0976
  124SOPE   H5R13220   0.326   7.285   3.034  1.3226  0.3720  0.6917
  124SOPE   H5S13221   0.218   7.391   3.139 -1.8964 -0.6267  1.6947
  124SOPE   C2613222   0.331   7.243   3.247 -0.0047 -0.3428 -0.4883
  124SOPE   H6R13223   0.317   7.133   3.255 -3.2216 -0.0622 -1.0924
  124SOPE   H6S13224   0.435   7.282   3.242 -0.8048  2.0353  0.1124
  124SOPE   C2713225   0.271   7.295   3.374  0.2064 -1.1742 -0.3476
  124SOPE   H7R13226   0.295   7.403   3.380 -0.0073 -1.1317 -0.2788
  124SOPE   H7S13227   0.161   7.279   3.380  0.2770 -1.0758  1.9788
  124SOPE   C2813228   0.327   7.223   3.500 -0.0689 -0.3592 -0.0023
  124SOPE   H8R13229   0.312   7.113   3.494  0.6405 -0.5321  1.1038
  124SOPE   H8S13230   0.437   7.236   3.505 -0.0268  1.9489 -3.4990
  124SOPE   C2913231   0.257   7.266   3.626  0.2602 -0.9595 -0.0016
  124SOPE   H9113232   0.159   7.312   3.606  1.1374  1.9805  1.8191
  124SOPE  C21013233   0.300   7.238   3.750  0.0809 -0.3938 -0.5172
  124SOPE  H10113234   0.241   7.269   3.838  1.9052  2.1236 -0.0632
  124SOPE  C21113235   0.429   7.174   3.783 -0.1828  0.2193 -0.0284
  124SOPE  H11R13236   0.502   7.244   3.830 -0.7584 -1.0901  3.1006
  124SOPE  H11S13237   0.480   7.143   3.689 -0.5451 -0.5164  0.0121
  124SOPE  C21213238   0.416   7.041   3.866  0.2311 -0.1462  0.3373
  124SOPE  H12R13239   0.345   7.066   3.947 -0.2474 -1.4835  0.3684
  124SOPE  H12S13240   0.516   7.020   3.909 -0.3040 -1.1258  1.1565
  124SOPE  C21313241   0.363   6.918   3.796 -0.8603 -0.5644 -0.2982
  124SOPE  H13R13242   0.440   6.896   3.719  0.6278  0.2277  0.9017
  124SOPE  H13S13243   0.271   6.944   3.740 -2.2314 -1.4083  1.4631
  124SOPE  C21413244   0.338   6.788   3.874  0.3708 -0.2276 -0.3125
  124SOPE  H14R13245   0.427   6.734   3.912 -1.3697 -1.9895  1.5175
  124SOPE  H14S13246   0.282   6.722   3.805  0.0678 -0.8618  0.5232
  124SOPE  C21513247   0.246   6.804   4.000  0.1415 -0.2199  0.3973
  124SOPE  H15R13248   0.146   6.840   3.967  0.2527 -0.7844 -0.5731
  124SOPE  H15S13249   0.287   6.882   4.067 -1.5838  2.4147 -1.4146
  124SOPE  C21613250   0.216   6.678   4.085  0.3565 -0.1902  0.7590
  124SOPE  H16R13251   0.315   6.629   4.101  0.7338  0.6331  1.0184
  124SOPE  H16S13252   0.151   6.606   4.031 -1.6902  1.2615  1.1971
  124SOPE  C21713253   0.127   6.712   4.203  0.2762 -0.1412  0.3863
  124SOPE  H17R13254   0.178   6.790   4.262 -0.2740 -0.2904  1.0631
  124SOPE  H17S13255   0.111   6.620   4.263 -1.3052 -0.8395 -1.0176
  124SOPE  C21813256  -0.008   6.772   4.157  0.1020 -0.4093  0.3041
  124SOPE  H18R13257   0.011   6.870   4.109 -1.8718 -0.0539  0.1582
  124SOPE  H18S13258  -0.079   6.773   4.242  0.0333 -2.5665  0.3346
  124SOPE  H18T13259  -0.049   6.693   4.091 -0.9507  0.2909  0.1040
  124SOPE   C3313260  -0.419   6.918   3.034 -0.4734 -0.1205 -0.2300
  124SOPE   H3X13261  -0.486   7.005   3.017  2.0339  2.1522  0.8364
  124SOPE   H3Y13262  -0.326   6.962   3.076 -0.1783 -2.2688  1.5357
  124SOPE   C3413263  -0.495   6.836   3.141  0.5637 -0.1738  0.2649
  124SOPE   H4X13264  -0.431   6.747   3.158  0.3585 -0.0451  1.8022
  124SOPE   H4Y13265  -0.589   6.801   3.092  1.4803 -1.8940 -0.3658
  124SOPE   C3513266  -0.515   6.927   3.262 -0.0947  0.8714 -0.0743
  124SOPE   H5X13267  -0.579   7.013   3.232 -1.2547 -0.9375 -3.3529
  124SOPE   H5Y13268  -0.418   6.969   3.295  1.7523 -0.6015 -3.1109
  124SOPE   C3613269  -0.583   6.854   3.381 -0.1419 -0.3213 -0.7813
  124SOPE   H6X13270  -0.681   6.815   3.349 -0.9700 -0.3195  1.5665
  124SOPE   H6Y13271  -0.609   6.932   3.456 -2.8307 -2.0767  0.2697
  124SOPE   C3713272  -0.488   6.749   3.453  0.0634  0.1977  0.2550
  124SOPE   H7X13273  -0.399   6.806   3.488 -1.0259  0.5331  2.7079
  124SOPE   H7Y13274  -0.453   6.677   3.376  0.2730 -0.8002  1.2712
  124SOPE   C3813275  -0.565   6.681   3.560 -0.3624  0.3389  0.1468
  124SOPE   H8X13276  -0.593   6.769   3.622 -0.9842  0.5504 -0.4224
  124SOPE   H8Y13277  -0.494   6.616   3.615 -1.6213 -0.3282  1.0376
  124SOPE   C3913278  -0.688   6.602   3.523  0.6268  0.3443  0.3912
  124SOPE   H9X13279  -0.764   6.661   3.467 -0.7899 -0.2463  1.6237
  124SOPE   H9Y13280  -0.748   6.569   3.610  1.1924 -0.3047  0.5512
  124SOPE  C31013281  -0.650   6.474   3.438  0.6261 -0.1467 -0.4870
  124SOPE  H10X13282  -0.565   6.425   3.489  0.3252 -1.0204 -0.8023
  124SOPE  H10Y13283  -0.607   6.505   3.340 -2.3516 -0.0026 -1.8734
  124SOPE  C31113284  -0.773   6.393   3.393  0.4644  0.4666 -0.0427
  124SOPE  H11X13285  -0.835   6.460   3.329  0.0266  1.1284  1.0307
  124SOPE  H11Y13286  -0.836   6.359   3.479 -0.5371  1.2800 -0.4227
  124SOPE  C31213287  -0.738   6.267   3.316  0.1545 -0.0099  0.2414
  124SOPE  H12X13288  -0.696   6.189   3.383  2.0882 -0.0973 -0.9857
  124SOPE  H12Y13289  -0.659   6.285   3.240  1.6495  0.0360  1.7423
  124SOPE  C31313290  -0.866   6.220   3.236  0.1417 -0.2771  0.4668
  124SOPE  H13X13291  -0.917   6.317   3.216 -1.0591 -0.9262  0.3521
  124SOPE  H13Y13292  -0.938   6.160   3.294 -1.7551  0.5592 -0.9231
  124SOPE  C31413293  -0.828   6.162   3.097  0.4435  0.3814  0.2379
  124SOPE  H14X13294  -0.790   6.059   3.115 -1.5663 -0.5078 -0.3623
  124SOPE  H14Y13295  -0.755   6.213   3.031 -0.2793  1.3329  0.1509
  124SOPE  C31513296  -0.950   6.126   3.008  0.0318  0.1899 -1.0396
  124SOPE  H15X13297  -1.012   6.217   2.993 -0.1574  0.0794 -0.9369
  124SOPE  H15Y13298  -1.004   6.053   3.073  1.5118 -0.0686 -0.0615
  124SOPE  C31613299  -0.910   6.055   2.876  0.9510  0.0613  0.3238
  124SOPE  H16X13300  -0.872   6.125   2.798  1.1643 -1.7304 -1.2465
  124SOPE  H16Y13301  -1.005   6.016   2.834  1.1779  1.1282 -1.2572
  124SOPE  C31713302  -0.826   5.934   2.881 -0.0687  0.0799 -0.1827
  124SOPE  H17X13303  -0.882   5.851   2.928 -2.2298  1.6232  0.1138
  124SOPE  H17Y13304  -0.735   5.954   2.942  1.1209  0.2433 -1.9317
  124SOPE  C31813305  -0.767   5.874   2.751  0.4103 -0.4924 -0.1533
  124SOPE  H18X13306  -0.842   5.814   2.696  0.0012 -0.1846  0.0676
  124SOPE  H18Y13307  -0.688   5.800   2.779 -0.6521 -2.0836 -1.2084
  124SOPE  H18Z13308  -0.715   5.948   2.687 -1.4885  0.9022 -0.1743
  125SOPE     N13309   0.537   0.569   2.317 -0.3689 -0.3495 -0.3979
  125SOPE   HN113310   0.539   0.474   2.359  1.5263  0.7592  2.2890
  125SOPE   HN213311   0.467   0.623   2.371  0.5288  0.2298  0.2060
  125SOPE   HN313312   0.504   0.563   2.219  0.0322  0.1762 -0.5668
  125SOPE   C1213313   0.669   0.647   2.325  0.1448 -0.0505 -0.0568
  125SOPE  H12A13314   0.728   0.592   2.249 -0.6731 -0.5237 -0.3536
  125SOPE  H12B13315   0.715   0.615   2.422 -0.1536  0.8891  0.4047
  125SOPE   C1113316   0.637   0.801   2.309 -0.4844  0.0982  0.9376
  125SOPE  H11A13317   0.575   0.815   2.217 -0.4754  0.3611  0.9717
  125SOPE  H11B13318   0.736   0.846   2.286  0.6556 -2.0619  1.4003
  125SOPE     P13319   0.667   0.901   2.544  0.3234  0.0403  0.0963
  125SOPE   O1313320   0.607   1.015   2.624 -0.6556  0.1548  0.1965
  125SOPE   O1413321   0.805   0.923   2.496 -0.0376 -0.2569 -0.1476
  125SOPE   O1213322   0.571   0.852   2.425  0.7157  0.8112 -0.0446
  125SOPE   O1113323   0.661   0.778   2.647 -0.7732  0.1405  0.1709
  125SOPE    C113324   0.541   0.719   2.686  0.9325  0.0578  0.2117
  125SOPE    HA13325   0.561   0.610   2.698  0.9378  0.0906  0.5103
  125SOPE    HB13326   0.456   0.737   2.617  1.3549 -0.2667 -0.3954
  125SOPE    C213327   0.506   0.771   2.824 -0.2907  0.4174  0.1718
  125SOPE    HS13328   0.495   0.881   2.818 -0.0884  0.4254 -0.0554
  125SOPE   O2113329   0.602   0.726   2.927  0.9432  0.0433  0.4613
  125SOPE   C2113330   0.625   0.819   3.023 -0.1524 -0.1190 -0.3126
  125SOPE   O2213331   0.580   0.932   3.021 -0.0539  0.8927  0.0838
  125SOPE   C2213332   0.688   0.747   3.144  0.2199 -0.1694 -0.1150
  125SOPE   H2R13333   0.797   0.745   3.122  0.1214  3.0932 -1.4800
  125SOPE   H2S13334   0.656   0.641   3.150  0.3774 -0.1372  1.9441
  125SOPE    C313335   0.378   0.712   2.877  0.6763 -0.5357  0.2973
  125SOPE    HX13336   0.389   0.605   2.903 -0.6489 -0.5956  0.6553
  125SOPE    HY13337   0.295   0.710   2.803  0.3049 -1.9769  0.7305
  125SOPE   O3113338   0.337   0.782   2.996  0.9624  0.4574 -0.7250
  125SOPE   C3113339   0.247   0.879   2.987  0.3668  0.7758 -0.5179
  125SOPE   O3213340   0.199   0.909   2.878  0.0892 -0.0101  0.0289
  125SOPE   C3213341   0.205   0.927   3.125 -0.5197 -0.0236 -0.1156
  125SOPE   H2X13342   0.094   0.935   3.134 -0.4749 -0.8404  1.5107
  125SOPE   H2Y13343   0.245   1.031   3.127  0.9308 -0.4473 -2.6652
  125SOPE   C2313344   0.674   0.818   3.270  0.5554 -1.2576  0.7788
  125SOPE   H3R13345   0.569   0.855   3.276  0.9432  0.4677 -1.7019
  125SOPE   H3S13346   0.738   0.908   3.270  0.1614 -0.8594 -2.4648
  125SOPE   C2413347   0.693   0.737   3.400 -0.2048  0.1761  0.5692
  125SOPE   H4R13348   0.610   0.663   3.396 -1.1553  1.2431 -0.6368
  125SOPE   H4S13349   0.791   0.688   3.386 -0.5379  0.1283 -2.1635
  125SOPE   C2513350   0.686   0.793   3.537  0.4694 -0.2076 -0.8092
  125SOPE   H5R13351   0.777   0.854   3.558  0.1252  0.2811 -0.7008
  125SOPE   H5S13352   0.600   0.863   3.545  0.0532 -0.5828 -1.9778
  125SOPE   C2613353   0.688   0.692   3.654  0.0427 -0.5968 -0.1491
  125SOPE   H6R13354   0.609   0.722   3.726  0.4279  1.2398 -0.4596
  125SOPE   H6S13355   0.644   0.596   3.619 -1.9755  0.1227  0.2650
  125SOPE   C2713356   0.824   0.677   3.731 -0.5328  1.3920 -0.5081
  125SOPE   H7R13357   0.900   0.626   3.668 -0.1886  0.6705  0.4681
  125SOPE   H7S13358   0.861   0.780   3.753  2.0793  0.5255 -0.5593
  125SOPE   C2813359   0.811   0.599   3.864 -0.3696 -0.6222 -0.0242
  125SOPE   H8R13360   0.894   0.632   3.929 -1.3242 -0.5486  1.1929
  125SOPE   H8S13361   0.719   0.638   3.913 -1.7943 -0.6659 -2.4887
  125SOPE   C2913362   0.818   0.448   3.846  0.2683 -0.2025 -0.4755
  125SOPE   H9113363   0.750   0.404   3.771  1.4146 -2.2236 -0.3970
  125SOPE  C21013364   0.889   0.363   3.923  1.0561 -0.3317  0.3825
  125SOPE  H10113365   0.890   0.256   3.898 -0.2130  0.4949 -3.9882
  125SOPE  C21113366   0.986   0.384   4.033  0.3279 -0.1253  0.1612
  125SOPE  H11R13367   1.005   0.493   4.045  0.0961 -0.0267 -0.3449
  125SOPE  H11S13368   1.088   0.355   3.999  0.3248  1.2408 -1.1535
  125SOPE  C21213369   0.951   0.324   4.171  0.5767 -0.6885  0.2559
  125SOPE  H12R13370   0.952   0.213   4.170 -2.4912 -0.8044 -0.0335
  125SOPE  H12S13371   0.847   0.346   4.204  1.1232  0.4017  1.3585
  125SOPE  C21313372   1.065   0.372   4.273 -0.1569  0.4240 -0.2868
  125SOPE  H13R13373   1.059   0.482   4.283 -0.7096  0.2946  0.9077
  125SOPE  H13S13374   1.167   0.361   4.228  0.4982  2.6905  0.4890
  125SOPE  C21413375   1.067   0.300   4.414  0.2622 -0.4759  0.0752
  125SOPE  H14R13376   1.156   0.338   4.470  0.9338 -1.2688 -0.4382
  125SOPE  H14S13377   1.093   0.195   4.389  2.0604 -0.9076  3.1230
  125SOPE  C21513378   0.933   0.316   4.488 -0.1808 -0.6613 -0.6053
  125SOPE  H15R13379   0.852   0.294   4.416 -0.2091 -0.1271 -0.7443
  125SOPE  H15S13380   0.927   0.422   4.521 -2.6983 -0.6137 -1.0479
  125SOPE  C21613381   0.897   0.240   4.617 -0.4853  0.5637  0.0091
  125SOPE  H16R13382   0.985   0.255   4.684  1.7212 -0.1120 -2.5183
  125SOPE  H16S13383   0.916   0.135   4.586 -3.3479 -0.0493  0.0881
  125SOPE  C21713384   0.760   0.263   4.678 -0.4213  0.0808 -0.1940
  125SOPE  H17R13385   0.689   0.226   4.601  0.3406  1.5676 -1.6670
  125SOPE  H17S13386   0.739   0.372   4.681 -0.0364  0.1825 -1.0218
  125SOPE  C21813387   0.749   0.193   4.814  0.1867  0.1757  0.9876
  125SOPE  H18R13388   0.838   0.203   4.881  1.4789  0.2999 -0.6660
  125SOPE  H18S13389   0.729   0.087   4.791  0.5456  0.2536  0.2695
  125SOPE  H18T13390   0.663   0.233   4.871  1.3826 -0.6835  3.5514
  125SOPE   C3313391   0.237   0.834   3.246 -0.1187 -0.2232 -0.5667
  125SOPE   H3X13392   0.347   0.828   3.255 -0.2877 -0.8228  2.1948
  125SOPE   H3Y13393   0.192   0.732   3.243 -1.5066  0.2197  1.8960
  125SOPE   C3413394   0.208   0.901   3.386  0.1420 -0.2371  0.1114
  125SOPE   H4X13395   0.101   0.887   3.413  0.6022 -1.7481  1.3125
  125SOPE   H4Y13396   0.229   1.010   3.382 -0.2299 -0.1939 -1.7236
  125SOPE   C3513397   0.287   0.847   3.509  0.0949  0.4979  0.1623
  125SOPE   H5X13398   0.395   0.847   3.486  0.5971  0.4822  2.3296
  125SOPE   H5Y13399   0.252   0.745   3.535 -2.5376  0.9543 -1.1829
  125SOPE   C3613400   0.263   0.944   3.626 -0.3406 -0.4678 -0.7807
  125SOPE   H6X13401   0.158   0.964   3.655  0.0491 -0.6612  0.8696
  125SOPE   H6Y13402   0.309   1.042   3.600 -1.1929  0.0573 -0.3586
  125SOPE   C3713403   0.330   0.887   3.746  0.0196  0.1851 -0.7074
  125SOPE   H7X13404   0.370   0.972   3.806  1.5569  0.6055 -2.2357
  125SOPE   H7Y13405   0.423   0.830   3.727 -0.4887 -1.8196  2.2219
  125SOPE   C3813406   0.228   0.807   3.837 -0.4186  0.6416  0.2564
  125SOPE   H8X13407   0.142   0.771   3.777 -0.5819  2.7722 -0.8859
  125SOPE   H8Y13408   0.189   0.889   3.902 -1.0284  0.8728 -0.3914
  125SOPE   C3913409   0.293   0.707   3.930  0.0319  0.6082  0.0968
  125SOPE   H9X13410   0.365   0.770   3.987  0.9567 -1.0629  0.8289
  125SOPE   H9Y13411   0.354   0.630   3.879 -0.9361  0.2761 -0.5924
  125SOPE  C31013412   0.191   0.648   4.029  0.4278 -0.2551 -0.4226
  125SOPE  H10X13413   0.105   0.609   3.970 -1.1099 -1.7398  2.5357
  125SOPE  H10Y13414   0.145   0.730   4.088 -1.2480 -1.9709  0.7956
  125SOPE  C31113415   0.241   0.537   4.118  0.4618  0.5512  0.5260
  125SOPE  H11X13416   0.340   0.560   4.162  0.6713 -1.1586  1.0035
  125SOPE  H11Y13417   0.252   0.451   4.048 -0.1565  0.6418  0.3100
  125SOPE  C31213418   0.150   0.523   4.243  0.1911 -0.4435 -0.6030
  125SOPE  H12X13419   0.161   0.605   4.318  1.0717 -0.4453 -0.7212
  125SOPE  H12Y13420   0.185   0.438   4.305  2.6393  1.5627  1.0004
  125SOPE  C31313421  -0.001   0.501   4.206  0.0053 -0.2490 -0.1786
  125SOPE  H13X13422  -0.043   0.584   4.146 -0.8753 -1.8053 -1.7886
  125SOPE  H13Y13423  -0.066   0.507   4.295 -0.9143  2.6115 -0.9234
  125SOPE  C31413424  -0.038   0.367   4.140  0.0709  0.3980 -0.6094
  125SOPE  H14X13425   0.036   0.294   4.180  1.2560  2.4819  1.2322
  125SOPE  H14Y13426  -0.015   0.360   4.031  1.1033  0.6302 -0.4154
  125SOPE  C31513427  -0.181   0.324   4.172  0.3343 -0.5639  0.1104
  125SOPE  H15X13428  -0.248   0.408   4.145  1.0185 -0.7192 -2.3888
  125SOPE  H15Y13429  -0.191   0.296   4.279 -0.6576  0.7997  0.3980
  125SOPE  C31613430  -0.228   0.212   4.091 -0.3624 -0.0125 -0.0724
  125SOPE  H16X13431  -0.162   0.125   4.107 -0.4532 -0.2770 -1.1270
  125SOPE  H16Y13432  -0.216   0.244   3.986  3.0574 -1.1096 -0.1152
  125SOPE  C31713433  -0.380   0.187   4.129  0.3355 -0.4304 -0.0836
  125SOPE  H17X13434  -0.436   0.283   4.135 -1.1426 -1.3466  1.3662
  125SOPE  H17Y13435  -0.377   0.145   4.231 -0.0924 -1.9706 -0.6811
  125SOPE  C31813436  -0.463   0.116   4.025 -0.4284  0.1179 -0.2769
  125SOPE  H18X13437  -0.453   0.157   3.923 -0.7308 -1.2100 -0.8589
  125SOPE  H18Y13438  -0.571   0.124   4.050 -0.5296 -0.3178 -0.5716
  125SOPE  H18Z13439  -0.449   0.006   4.021  0.7562  0.2902 -1.3371
  126SOPE     N13440   4.988   3.115   1.744  0.7340 -0.1682  0.2619
  126SOPE   HN113441   5.026   3.202   1.785 -1.6133  0.6247  0.9270
  126SOPE   HN213442   5.014   3.040   1.811 -0.6695 -0.3648  0.6061
  126SOPE   HN313443   5.027   3.084   1.652  1.3532  0.0120  0.4596
  126SOPE   C1213444   4.840   3.118   1.744 -0.0585 -0.2085 -0.2884
  126SOPE  H12A13445   4.820   3.010   1.723 -1.7351 -0.4139  2.0106
  126SOPE  H12B13446   4.807   3.180   1.658 -1.3940 -2.2737 -1.3606
  126SOPE   C1113447   4.781   3.164   1.884 -0.2691 -0.0472  0.3825
  126SOPE  H11A13448   4.673   3.185   1.873 -0.7682 -2.9315 -1.3138
  126SOPE  H11B13449   4.824   3.264   1.906  0.3401 -0.2929  0.3333
  126SOPE     P13450   4.712   2.958   2.007 -0.1649 -0.0555 -0.0781
  126SOPE   O1313451   4.733   2.851   1.910  0.1424 -0.6823  0.0077
  126SOPE   O1413452   4.572   3.003   2.011  0.4072  0.2183 -0.1347
  126SOPE   O1213453   4.808   3.081   1.993 -0.5439  0.0359  0.1819
  126SOPE   O1113454   4.758   2.915   2.143  0.3542 -0.0534 -0.0393
  126SOPE    C113455   4.699   2.826   2.240 -0.2401 -0.3195 -0.1455
  126SOPE    HA13456   4.771   2.798   2.320 -0.1619 -0.9529 -0.4323
  126SOPE    HB13457   4.679   2.730   2.190  0.6416  0.4057 -1.9794
  126SOPE    C213458   4.578   2.888   2.312  0.1722 -0.2678  0.7775
  126SOPE    HS13459   4.508   2.921   2.232  0.8690 -0.8450 -0.0863
  126SOPE   O2113460   4.632   2.978   2.401 -0.3247  0.0018 -0.1536
  126SOPE   C2113461   4.568   3.097   2.402  0.3086 -0.3731  0.2856
  126SOPE   O2213462   4.493   3.141   2.316 -0.1343  0.0728 -0.1297
  126SOPE   C2213463   4.594   3.172   2.539 -0.3388 -0.0546  0.1453
  126SOPE   H2R13464   4.676   3.245   2.527  0.0100 -0.3270  0.8329
  126SOPE   H2S13465   4.619   3.092   2.611 -3.4738 -0.4706  0.9470
  126SOPE    C313466   4.506   2.774   2.396  0.6091 -0.4448  0.0123
  126SOPE    HX13467   4.567   2.737   2.481 -0.0255  3.1725  2.2924
  126SOPE    HY13468   4.479   2.689   2.330  0.5040 -0.1957 -0.2722
  126SOPE   O3113469   4.384   2.834   2.454 -0.5457 -0.3232  0.0740
  126SOPE   C3113470   4.312   2.745   2.524  0.3665 -0.2796 -0.7956
  126SOPE   O3213471   4.346   2.635   2.555 -0.5802  0.0057  0.0036
  126SOPE   C3213472   4.199   2.824   2.590  0.3679  0.3544 -0.3677
  126SOPE   H2X13473   4.110   2.782   2.538  0.3134 -0.9208  0.7063
  126SOPE   H2Y13474   4.210   2.932   2.567 -0.3431  1.0463  2.1842
  126SOPE   C2313475   4.463   3.251   2.570  0.2558  0.1391 -0.2650
  126SOPE   H3R13476   4.367   3.198   2.559 -0.3480  1.1878 -0.1826
  126SOPE   H3S13477   4.462   3.336   2.498  1.4197  0.6540  0.2911
  126SOPE   C2413478   4.464   3.325   2.705  0.0895  0.2638 -0.9072
  126SOPE   H4R13479   4.564   3.370   2.723  0.3731 -0.6469 -0.1498
  126SOPE   H4S13480   4.382   3.401   2.696 -0.5373 -0.4188 -1.0571
  126SOPE   C2513481   4.409   3.233   2.816 -0.3653 -0.5007 -0.2303
  126SOPE   H5R13482   4.306   3.198   2.793  0.2834 -1.9495 -1.0925
  126SOPE   H5S13483   4.476   3.145   2.802  0.0336  0.1110 -2.5817
  126SOPE   C2613484   4.434   3.286   2.957 -0.0570 -0.5808  0.4244
  126SOPE   H6R13485   4.456   3.211   3.035  2.2312 -0.5522 -0.1308
  126SOPE   H6S13486   4.530   3.340   2.943 -1.1548  1.0705 -1.2172
  126SOPE   C2713487   4.328   3.382   3.013  0.0001  0.0716 -0.0839
  126SOPE   H7R13488   4.325   3.481   2.961 -2.6420 -0.3128 -0.8047
  126SOPE   H7S13489   4.235   3.326   2.989 -0.2025 -0.4759  1.8429
  126SOPE   C2813490   4.366   3.403   3.157  0.0662 -0.0527  0.6308
  126SOPE   H8R13491   4.383   3.308   3.212  0.8861  0.9255  2.1406
  126SOPE   H8S13492   4.458   3.465   3.163  0.1296 -0.0939  0.0694
  126SOPE   C2913493   4.265   3.490   3.228  0.0898  0.2820  0.1918
  126SOPE   H9113494   4.168   3.458   3.187  1.3917 -0.4179 -2.5611
  126SOPE  C21013495   4.272   3.593   3.306 -0.1202  0.3776 -0.2324
  126SOPE  H10113496   4.182   3.636   3.352  0.6229  0.9850  0.7069
  126SOPE  C21113497   4.393   3.673   3.346  0.0142 -0.1891  0.1484
  126SOPE  H11R13498   4.372   3.779   3.320  1.3191  0.3703  1.2448
  126SOPE  H11S13499   4.487   3.641   3.296  0.2151  1.2253 -0.4391
  126SOPE  C21213500   4.434   3.637   3.489 -0.5795 -0.5634 -0.0527
  126SOPE  H12R13501   4.540   3.669   3.503  0.0097 -2.2233 -0.4747
  126SOPE  H12S13502   4.450   3.528   3.504 -0.4483 -0.4986  0.3137
  126SOPE  C21313503   4.347   3.692   3.595 -0.3566 -0.2449 -0.1450
  126SOPE  H13R13504   4.242   3.656   3.598 -0.5287  0.2887  0.5855
  126SOPE  H13S13505   4.329   3.801   3.578 -0.3424 -0.4528 -1.6178
  126SOPE  C21413506   4.404   3.662   3.737  0.7164 -0.5050 -0.1695
  126SOPE  H14R13507   4.453   3.563   3.731  2.3084  0.2451 -0.0303
  126SOPE  H14S13508   4.321   3.651   3.810 -0.5492 -1.2850 -1.6599
  126SOPE  C21513509   4.491   3.777   3.784  0.5679  0.2838 -0.5228
  126SOPE  H15R13510   4.460   3.881   3.762 -0.3500 -0.0011 -0.6195
  126SOPE  H15S13511   4.598   3.773   3.754  1.3202  2.1857  1.6464
  126SOPE  C21613512   4.503   3.770   3.939 -0.2601 -0.9151  0.2820
  126SOPE  H16R13513   4.579   3.692   3.961 -0.0353 -0.6843  0.3339
  126SOPE  H16S13514   4.410   3.735   3.988  0.7376 -0.9308  2.2388
  126SOPE  C21713515   4.558   3.903   4.001  0.9630 -0.7561 -0.2535
  126SOPE  H17R13516   4.568   3.870   4.106  0.9654 -1.4553 -0.4660
  126SOPE  H17S13517   4.476   3.976   3.995  1.3400 -0.1588  1.4124
  126SOPE  C21813518   4.697   3.954   3.947 -0.3445 -0.0296 -0.6300
  126SOPE  H18R13519   4.724   4.039   4.013  0.7579 -0.7055 -0.1925
  126SOPE  H18S13520   4.693   3.974   3.838 -0.2494 -1.2883 -0.8871
  126SOPE  H18T13521   4.776   3.878   3.962  1.7894  2.5970  3.0926
  126SOPE   C3313522   4.179   2.786   2.738  0.2751 -0.2040  0.1112
  126SOPE   H3X13523   4.212   2.683   2.763  0.2738  0.3148  2.5562
  126SOPE   H3Y13524   4.072   2.802   2.765  1.3033  1.2919  4.1152
  126SOPE   C3413525   4.252   2.881   2.838  0.5118 -0.2376  0.0979
  126SOPE   H4X13526   4.206   2.981   2.824 -0.4631 -0.7179 -0.2437
  126SOPE   H4Y13527   4.359   2.902   2.820  0.0009  2.8060  0.1024
  126SOPE   C3513528   4.226   2.842   2.977  0.3416  0.3135 -0.7064
  126SOPE   H5X13529   4.295   2.755   2.986 -0.1898 -0.1666 -1.1532
  126SOPE   H5Y13530   4.124   2.807   3.005  0.0201  1.9497  0.2887
  126SOPE   C3613531   4.262   2.945   3.077 -0.2323 -0.1542 -0.2378
  126SOPE   H6X13532   4.193   3.030   3.057  1.0006  0.6436 -1.2445
  126SOPE   H6Y13533   4.364   2.985   3.060 -1.3499  2.1668 -2.0657
  126SOPE   C3713534   4.262   2.891   3.216 -0.6215 -0.3016 -0.4158
  126SOPE   H7X13535   4.339   2.817   3.245 -0.1830  0.3292  0.0754
  126SOPE   H7Y13536   4.169   2.831   3.224 -0.8018  0.0264 -0.0432
  126SOPE   C3813537   4.265   2.988   3.332 -0.5783 -0.4287  0.3761
  126SOPE   H8X13538   4.189   3.068   3.324  0.0835  0.0544 -1.6362
  126SOPE   H8Y13539   4.359   3.047   3.325 -0.3009 -0.7918  1.0092
  126SOPE   C3913540   4.253   2.923   3.468 -0.7150 -0.2468  0.4999
  126SOPE   H9X13541   4.329   2.842   3.477  0.5821  0.8967  0.1744
  126SOPE   H9Y13542   4.157   2.871   3.487 -1.1959  0.6060  0.4187
  126SOPE  C31013543   4.270   3.026   3.577  0.3298 -0.8757 -0.0061
  126SOPE  H10X13544   4.176   3.083   3.591  0.7445  0.0211 -0.7883
  126SOPE  H10Y13545   4.337   3.102   3.531 -0.0642 -0.1691  0.5790
  126SOPE  C31113546   4.323   2.967   3.704 -0.2530 -0.1531 -1.4232
  126SOPE  H11X13547   4.244   2.895   3.738  1.8096 -1.1340  1.7573
  126SOPE  H11Y13548   4.324   3.046   3.783  1.9458  0.0028 -1.5522
  126SOPE  C31213549   4.464   2.894   3.706  0.9517  0.2251 -0.0459
  126SOPE  H12X13550   4.528   2.970   3.657 -1.0494  1.9221 -0.1756
  126SOPE  H12Y13551   4.450   2.813   3.630 -0.7721  1.5131 -1.2003
  126SOPE  C31313552   4.512   2.848   3.842  0.1438 -0.1847 -0.1858
  126SOPE  H13X13553   4.522   2.938   3.906 -0.8470 -0.5245  0.4753
  126SOPE  H13Y13554   4.610   2.797   3.835  0.7087  0.7501  0.5872
  126SOPE  C31413555   4.405   2.764   3.914 -0.1853 -0.2263  0.2646
  126SOPE  H14X13556   4.377   2.697   3.830 -0.3749 -0.8777  0.8363
  126SOPE  H14Y13557   4.310   2.820   3.933 -0.2841  0.7182 -2.5680
  126SOPE  C31513558   4.462   2.691   4.038  0.2259  0.5016 -0.0017
  126SOPE  H15X13559   4.497   2.771   4.107 -0.7984  1.8036 -0.9239
  126SOPE  H15Y13560   4.549   2.626   4.017  0.2464  0.7087 -0.5866
  126SOPE  C31613561   4.359   2.614   4.116  1.0484 -0.2909  0.0834
  126SOPE  H16X13562   4.289   2.692   4.155 -0.5769 -1.2734 -0.7659
  126SOPE  H16Y13563   4.411   2.577   4.207  1.1163  2.7596  1.4247
  126SOPE  C31713564   4.281   2.511   4.046  0.4200  0.2764 -0.0539
  126SOPE  H17X13565   4.353   2.426   4.036 -0.5014 -0.6074  0.5882
  126SOPE  H17Y13566   4.232   2.541   3.951  1.1656  0.0632 -0.5131
  126SOPE  C31813567   4.177   2.453   4.138  0.5922 -0.5857 -0.4039
  126SOPE  H18X13568   4.127   2.538   4.189 -1.0519 -2.1435  0.7123
  126SOPE  H18Y13569   4.217   2.391   4.222  1.2102  0.2204 -0.0837
  126SOPE  H18Z13570   4.088   2.402   4.096 -0.6490  0.5247  0.7753
  127SOPE     N13571   0.122   5.016   2.087  0.5277 -0.6135 -0.3915
  127SOPE   HN113572   0.222   5.018   2.114  1.0589 -0.0526 -2.2312
  127SOPE   HN213573   0.120   4.932   2.025  1.0613  0.3066 -1.7140
  127SOPE   HN313574   0.103   5.099   2.027  1.6959 -0.5165 -0.6597
  127SOPE   C1213575   0.027   4.986   2.202  0.1558 -0.0246  0.1779
  127SOPE  H12A13576   0.082   4.904   2.252  0.7066 -0.3216 -0.8868
  127SOPE  H12B13577  -0.065   4.943   2.158  0.9096 -0.8418 -0.6220
  127SOPE   C1113578   0.018   5.114   2.293  0.3697  0.8539 -0.7341
  127SOPE  H11A13579  -0.035   5.086   2.386  2.2328 -2.0428 -0.4317
  127SOPE  H11B13580  -0.047   5.191   2.246 -2.1674  0.0542  1.2481
  127SOPE     P13581   0.181   5.295   2.396  0.1009 -0.4493 -0.1017
  127SOPE   O1313582   0.072   5.395   2.374  0.0234  0.1655  0.0745
  127SOPE   O1413583   0.315   5.333   2.342 -0.2289  0.4215  0.0357
  127SOPE   O1213584   0.146   5.156   2.340 -0.1271  0.8014  0.5376
  127SOPE   O1113585   0.181   5.264   2.554  0.1675  0.1793  0.3690
  127SOPE    C113586   0.240   5.146   2.604 -0.3407  0.5911 -0.3409
  127SOPE    HA13587   0.307   5.178   2.687 -0.4783 -0.3936  0.1702
  127SOPE    HB13588   0.308   5.095   2.532 -0.7260 -0.4646  0.0214
  127SOPE    C213589   0.146   5.032   2.652 -0.5929 -0.4119  0.9476
  127SOPE    HS13590   0.086   5.012   2.560 -0.9285 -0.0899  1.0928
  127SOPE   O2113591   0.062   5.088   2.762 -0.2821  0.1923 -0.3873
  127SOPE   C2113592  -0.042   5.006   2.770  0.1200  0.2887  0.2132
  127SOPE   O2213593  -0.061   4.909   2.697  0.5603  0.3226  0.3433
  127SOPE   C2213594  -0.132   5.044   2.887 -0.5917 -0.2083 -0.6176
  127SOPE   H2R13595  -0.204   5.123   2.856  1.0928  1.5134 -0.3140
  127SOPE   H2S13596  -0.068   5.083   2.968 -3.1821 -0.3132  1.6457
  127SOPE    C313597   0.222   4.896   2.681 -0.5298  0.2339  0.0520
  127SOPE    HX13598   0.276   4.858   2.592  0.4696  1.0452  0.2962
  127SOPE    HY13599   0.147   4.816   2.700 -0.3251  0.0633  0.1426
  127SOPE   O3113600   0.321   4.901   2.786 -0.5087  0.2052  0.0266
  127SOPE   C3113601   0.288   4.884   2.911 -0.1268  0.9622 -0.1129
  127SOPE   O3213602   0.178   4.846   2.948 -0.3818  0.1031 -0.8453
  127SOPE   C3213603   0.408   4.910   3.001 -0.3596 -0.2662  0.5343
  127SOPE   H2X13604   0.457   5.003   2.965  0.8311 -1.0000  0.1759
  127SOPE   H2Y13605   0.485   4.836   2.968 -1.3171 -1.5341  1.0776
  127SOPE   C2313606  -0.197   4.923   2.946 -0.3110  0.6556  0.2270
  127SOPE   H3R13607  -0.131   4.835   2.964  0.1993  1.2994  1.5867
  127SOPE   H3S13608  -0.281   4.891   2.880 -0.7232  0.7978  0.6794
  127SOPE   C2413609  -0.259   4.954   3.082 -0.2032 -0.4228 -0.1177
  127SOPE   H4R13610  -0.182   4.970   3.161 -0.6820 -0.2847  0.3253
  127SOPE   H4S13611  -0.320   5.046   3.066 -2.3437 -2.1128 -2.5307
  127SOPE   C2513612  -0.360   4.853   3.136  0.2329 -0.4226  0.9532
  127SOPE   H5R13613  -0.427   4.811   3.057  1.5511  2.3393 -1.8569
  127SOPE   H5S13614  -0.296   4.771   3.174  0.6989 -0.0908  0.8968
  127SOPE   C2613615  -0.449   4.898   3.250  0.0489  0.1578 -0.0713
  127SOPE   H6R13616  -0.537   4.954   3.214 -1.0899 -0.8275  1.0662
  127SOPE   H6S13617  -0.485   4.804   3.299  0.2502 -0.0202 -0.2616
  127SOPE   C2713618  -0.395   4.981   3.362 -0.2698  1.1584 -0.3266
  127SOPE   H7R13619  -0.292   4.943   3.381 -1.2197 -0.1576  2.6844
  127SOPE   H7S13620  -0.370   5.085   3.331  3.0924  0.2586 -1.0413
  127SOPE   C2813621  -0.494   4.999   3.479 -0.3966  0.3934 -0.3191
  127SOPE   H8R13622  -0.468   5.092   3.534  0.6856 -2.2964  4.2504
  127SOPE   H8S13623  -0.598   5.005   3.440 -0.6502  0.3192  0.3328
  127SOPE   C2913624  -0.478   4.892   3.572 -0.0487  0.1480 -1.6300
  127SOPE   H9113625  -0.404   4.817   3.543 -0.0451  0.3736 -2.2347
  127SOPE  C21013626  -0.559   4.866   3.682  0.5039  0.9851 -0.2797
  127SOPE  H10113627  -0.515   4.797   3.756  0.3797 -0.3505 -1.4009
  127SOPE  C21113628  -0.674   4.941   3.729 -0.2087 -0.0709 -0.2600
  127SOPE  H11R13629  -0.752   4.864   3.748 -0.8193  0.2481 -1.3621
  127SOPE  H11S13630  -0.715   5.008   3.650  2.6579  2.1115 -0.0468
  127SOPE  C21213631  -0.666   5.016   3.866 -0.5084  0.0587  0.3674
  127SOPE  H12R13632  -0.755   5.081   3.881  0.3608  0.9553  1.9606
  127SOPE  H12S13633  -0.585   5.091   3.858  1.8264 -2.0774  2.1990
  127SOPE  C21313634  -0.642   4.914   3.982  0.0030 -0.0623 -0.6936
  127SOPE  H13R13635  -0.552   4.853   3.958 -0.7373 -1.7536  0.6035
  127SOPE  H13S13636  -0.721   4.837   3.973 -0.6498  0.4741  0.2970
  127SOPE  C21413637  -0.638   4.970   4.121  1.2415  0.7416 -0.4710
  127SOPE  H14R13638  -0.556   5.044   4.126  1.6304  0.2373  3.3069
  127SOPE  H14S13639  -0.599   4.887   4.183  0.7103  0.7791 -0.0712
  127SOPE  C21513640  -0.771   5.032   4.168 -0.0892  0.5761 -0.0755
  127SOPE  H15R13641  -0.856   4.966   4.142 -0.9858  1.4388  0.6034
  127SOPE  H15S13642  -0.794   5.128   4.118 -2.5755  0.1458  0.1465
  127SOPE  C21613643  -0.783   5.078   4.313  0.1540 -0.7965 -0.1279
  127SOPE  H16R13644  -0.882   5.128   4.321  0.4075 -0.5217  1.7859
  127SOPE  H16S13645  -0.703   5.151   4.336 -1.0739  0.4523  0.2840
  127SOPE  C21713646  -0.780   4.973   4.429 -0.1587 -0.5197  0.0462
  127SOPE  H17R13647  -0.686   4.916   4.419  1.0648  1.0384  1.9571
  127SOPE  H17S13648  -0.862   4.898   4.417 -0.9114  0.2650  0.1378
  127SOPE  C21813649  -0.784   5.024   4.570  0.4568 -0.1721  0.1707
  127SOPE  H18R13650  -0.882   5.069   4.595  0.5199 -0.3138  0.6824
  127SOPE  H18S13651  -0.698   5.087   4.602 -0.1070  0.4102  0.5700
  127SOPE  H18T13652  -0.785   4.930   4.630 -0.8404  0.0496  0.5324
  127SOPE   C3313653   0.372   4.923   3.156 -0.4635 -0.2329  0.2630
  127SOPE   H3X13654   0.342   4.823   3.193  0.7499 -1.0240 -0.8018
  127SOPE   H3Y13655   0.283   4.990   3.161  0.4995  1.2660 -1.5180
  127SOPE   C3413656   0.501   4.964   3.241  0.0253  0.5858  0.1961
  127SOPE   H4X13657   0.557   5.046   3.191  0.8315  0.3365  0.6694
  127SOPE   H4Y13658   0.567   4.875   3.247  0.0966  0.5852 -0.6100
  127SOPE   C3513659   0.453   5.014   3.381  0.0595  0.0851  0.0478
  127SOPE   H5X13660   0.383   4.937   3.420  0.5801 -0.1745  0.4763
  127SOPE   H5Y13661   0.388   5.101   3.359 -0.7453 -0.7904 -1.1415
  127SOPE   C3613662   0.552   5.037   3.498 -0.6013 -0.0375  0.3728
  127SOPE   H6X13663   0.587   5.143   3.492 -0.2683 -0.2327 -2.7343
  127SOPE   H6Y13664   0.643   4.979   3.470  0.8160  2.5586 -0.7994
  127SOPE   C3713665   0.504   4.994   3.635 -0.2464 -0.4771  0.3546
  127SOPE   H7X13666   0.579   5.025   3.710 -1.2814 -0.9120  1.6120
  127SOPE   H7Y13667   0.493   4.883   3.636  3.0059 -0.8965  0.2768
  127SOPE   C3813668   0.370   5.061   3.672 -0.1320  0.3750  0.3518
  127SOPE   H8X13669   0.287   5.005   3.623  0.2195  0.0955  0.0739
  127SOPE   H8Y13670   0.377   5.167   3.641 -0.8558  0.4627  0.4566
  127SOPE   C3913671   0.335   5.057   3.818  0.7807 -0.4745  0.3931
  127SOPE   H9X13672   0.419   5.113   3.866 -0.0176 -0.4038  1.7799
  127SOPE   H9Y13673   0.343   4.957   3.868  1.4140  0.1954  1.6914
  127SOPE  C31013674   0.207   5.132   3.842 -0.0852 -0.0001 -0.2908
  127SOPE  H10X13675   0.134   5.099   3.765 -1.0408  3.0617 -0.8176
  127SOPE  H10Y13676   0.222   5.240   3.823  1.1754  0.1655  1.3762
  127SOPE  C31113677   0.168   5.108   3.983  0.3279 -0.2516  0.1740
  127SOPE  H11X13678   0.251   5.148   4.045 -0.3515 -1.1877  1.7635
  127SOPE  H11Y13679   0.168   4.999   4.004  3.1567 -0.2855  0.3818
  127SOPE  C31213680   0.027   5.159   4.012 -0.7654  0.9124 -0.7027
  127SOPE  H12X13681  -0.050   5.110   3.949 -0.3690 -2.4895  1.1862
  127SOPE  H12Y13682   0.023   5.267   3.986  2.6374  0.9312 -1.6464
  127SOPE  C31313683  -0.022   5.140   4.160  0.1631 -0.4800  1.0158
  127SOPE  H13X13684   0.052   5.196   4.220  1.0135 -0.9751  0.4405
  127SOPE  H13Y13685  -0.017   5.035   4.195  2.2674 -0.9187 -0.4425
  127SOPE  C31413686  -0.159   5.198   4.176 -0.1933 -0.4636 -0.4790
  127SOPE  H14X13687  -0.241   5.133   4.137 -0.5690  1.0769 -2.4450
  127SOPE  H14Y13688  -0.160   5.291   4.115 -1.9096 -0.6108 -0.7378
  127SOPE  C31513689  -0.183   5.232   4.325 -0.0064 -0.1864  0.0788
  127SOPE  H15X13690  -0.097   5.285   4.369  0.4519 -0.5726 -0.3364
  127SOPE  H15Y13691  -0.188   5.141   4.387  1.0384 -2.4340 -2.8664
  127SOPE  C31613692  -0.310   5.324   4.340 -0.9079  0.4120 -0.5925
  127SOPE  H16X13693  -0.399   5.263   4.314 -1.0695  1.0542 -1.5820
  127SOPE  H16Y13694  -0.291   5.397   4.258  0.5793 -1.1696 -1.7163
  127SOPE  C31713695  -0.331   5.402   4.475  0.1145 -0.3694 -0.0987
  127SOPE  H17X13696  -0.369   5.337   4.557 -1.1161  0.8446  0.3241
  127SOPE  H17Y13697  -0.409   5.478   4.453 -1.8528 -2.2827 -0.1444
  127SOPE  C31813698  -0.197   5.463   4.519 -0.0280 -0.5098  0.3020
  127SOPE  H18X13699  -0.146   5.528   4.445 -1.7396  0.7042  0.1206
  127SOPE  H18Y13700  -0.126   5.381   4.543  2.6944  0.6543 -2.9829
  127SOPE  H18Z13701  -0.208   5.525   4.611 -0.7917  0.4608 -0.4234
  128SOPE     N13702   4.267   3.948   1.840 -0.3734  0.1399  0.6496
  128SOPE   HN113703   4.266   3.939   1.944  1.6673 -1.7196  0.5814
  128SOPE   HN213704   4.190   3.890   1.800 -1.8310  1.8795  0.7732
  128SOPE   HN313705   4.360   3.923   1.802 -0.2565  2.5842 -0.8695
  128SOPE   C1213706   4.247   4.091   1.817  0.3989 -0.3043  0.1235
  128SOPE  H12A13707   4.257   4.110   1.708  1.9218  0.4500  0.3676
  128SOPE  H12B13708   4.320   4.147   1.879  1.3520 -1.8743  0.4719
  128SOPE   C1113709   4.102   4.123   1.853  0.2740 -0.5910 -0.3362
  128SOPE  H11A13710   4.028   4.062   1.797  1.3603 -2.6187  0.3556
  128SOPE  H11B13711   4.097   4.225   1.809  0.2035 -0.9949 -1.2981
  128SOPE     P13712   4.043   4.235   2.084 -0.0277  0.4053  0.3885
  128SOPE   O1313713   3.905   4.283   2.052  0.3783  0.0254 -0.7159
  128SOPE   O1413714   4.148   4.337   2.082 -0.2951 -0.3710 -0.0837
  128SOPE   O1213715   4.088   4.110   1.995 -0.3735  0.2521  0.5269
  128SOPE   O1113716   4.054   4.172   2.221 -0.5987  0.3221  0.0914
  128SOPE    C113717   3.966   4.072   2.269 -0.1366  0.8836 -0.0681
  128SOPE    HA13718   4.022   3.985   2.311  1.4024  2.5512  1.4734
  128SOPE    HB13719   3.899   4.034   2.189  0.2405  1.0720 -0.4721
  128SOPE    C213720   3.873   4.125   2.383  0.9576 -0.6930  1.0888
  128SOPE    HS13721   3.834   4.224   2.349  0.0474 -1.8270 -1.4436
  128SOPE   O2113722   3.939   4.113   2.511 -0.3913  0.3613  0.3654
  128SOPE   C2113723   3.943   4.223   2.584  0.2844 -0.0666  0.3903
  128SOPE   O2213724   3.884   4.325   2.556  0.1223 -0.9806  0.3555
  128SOPE   C2213725   4.037   4.205   2.710 -0.6971 -0.0252  0.5929
  128SOPE   H2R13726   4.140   4.168   2.691 -0.1114  0.9473  1.7556
  128SOPE   H2S13727   3.993   4.114   2.758  0.0855  0.2911  1.9574
  128SOPE    C313728   3.745   4.036   2.380  0.0450  0.0609  0.2881
  128SOPE    HX13729   3.780   3.931   2.383  0.0853  0.0672  0.0953
  128SOPE    HY13730   3.698   4.045   2.280  0.8674  2.1649  0.0348
  128SOPE   O3113731   3.656   4.052   2.494  0.0636 -0.3403  0.0676
  128SOPE   C3113732   3.599   4.174   2.503  0.4428  0.0268 -0.1671
  128SOPE   O3213733   3.607   4.259   2.420  0.1194 -0.4400 -0.0020
  128SOPE   C3213734   3.550   4.197   2.651 -0.2621 -0.3261 -0.2103
  128SOPE   H2X13735   3.585   4.115   2.717 -1.6734  0.1496  1.2037
  128SOPE   H2Y13736   3.439   4.190   2.657 -0.4115 -1.0895 -2.6992
  128SOPE   C2313737   4.038   4.319   2.811 -0.2432  0.0433  0.3684
  128SOPE   H3R13738   3.938   4.342   2.852 -0.8603  0.2000 -1.1621
  128SOPE   H3S13739   4.091   4.402   2.760 -0.4312 -1.6094 -2.7461
  128SOPE   C2413740   4.114   4.287   2.947  0.1500 -0.8518  0.2279
  128SOPE   H4R13741   4.089   4.186   2.986 -0.9571 -0.1578  1.3585
  128SOPE   H4S13742   4.223   4.297   2.927  0.2056  0.3833  1.0397
  128SOPE   C2513743   4.096   4.392   3.050  0.0704 -0.2781  0.5572
  128SOPE   H5R13744   4.124   4.496   3.022  0.3385  0.2618  2.6237
  128SOPE   H5S13745   3.987   4.404   3.069  0.3043  1.8046  0.7883
  128SOPE   C2613746   4.165   4.365   3.181  0.2307 -0.6220  0.0348
  128SOPE   H6R13747   4.168   4.254   3.184 -0.7065 -0.6547 -0.0184
  128SOPE   H6S13748   4.270   4.400   3.166 -0.0243  0.6526  1.1099
  128SOPE   C2713749   4.097   4.421   3.301 -0.3729  0.2991  0.5485
  128SOPE   H7R13750   4.101   4.530   3.280  0.1481  0.0746 -0.5923
  128SOPE   H7S13751   3.990   4.392   3.306 -0.5094  0.8584  0.9320
  128SOPE   C2813752   4.157   4.366   3.433 -0.5455  0.0432  0.8623
  128SOPE   H8R13753   4.069   4.363   3.500 -1.5081  0.6501 -0.3313
  128SOPE   H8S13754   4.189   4.260   3.423  0.3578  0.4895 -2.0950
  128SOPE   C2913755   4.259   4.458   3.492 -0.2495  0.1704 -0.0340
  128SOPE   H9113756   4.314   4.520   3.419  0.7420 -0.1696  0.3967
  128SOPE  C21013757   4.298   4.455   3.621  0.2139 -0.2151 -0.5827
  128SOPE  H10113758   4.379   4.524   3.651  0.3078 -0.2871 -0.6711
  128SOPE  C21113759   4.253   4.369   3.736  0.4073  0.6429  0.4262
  128SOPE  H11R13760   4.177   4.291   3.715 -1.7468  2.3839  1.3750
  128SOPE  H11S13761   4.211   4.435   3.815 -0.2014  1.2082 -0.3511
  128SOPE  C21213762   4.369   4.296   3.808  0.9510  0.1788 -0.1495
  128SOPE  H12R13763   4.422   4.231   3.735  0.1317  0.2205 -0.8071
  128SOPE  H12S13764   4.321   4.233   3.887  2.2896 -2.6760 -1.4752
  128SOPE  C21313765   4.463   4.384   3.886  0.8842 -0.3518  0.4975
  128SOPE  H13R13766   4.398   4.460   3.935 -0.6063 -1.7302  0.7430
  128SOPE  H13S13767   4.531   4.433   3.814  1.4834 -1.2793  0.4144
  128SOPE  C21413768   4.549   4.315   3.989  0.2690 -0.3215 -0.0100
  128SOPE  H14R13769   4.636   4.273   3.934  0.4251 -0.7628  0.5606
  128SOPE  H14S13770   4.497   4.231   4.041 -1.5920 -1.7600 -3.8533
  128SOPE  C21513771   4.631   4.406   4.090  0.7397  0.0861  0.0390
  128SOPE  H15R13772   4.556   4.454   4.156  0.0942 -0.3147 -0.3896
  128SOPE  H15S13773   4.688   4.485   4.037  1.4876 -0.9676 -0.7885
  128SOPE  C21613774   4.731   4.321   4.181  0.3393  0.6847 -0.0845
  128SOPE  H16R13775   4.791   4.389   4.245  0.6731 -1.2975  1.8463
  128SOPE  H16S13776   4.809   4.265   4.124  1.2779  1.8489  0.0201
  128SOPE  C21713777   4.653   4.235   4.278  0.0465  0.6964 -1.3270
  128SOPE  H17R13778   4.711   4.150   4.319 -2.0999  0.1088  0.7179
  128SOPE  H17S13779   4.571   4.184   4.224 -0.9811  1.3522 -0.4116
  128SOPE  C21813780   4.603   4.310   4.402  0.4549 -0.2044 -0.2492
  128SOPE  H18R13781   4.672   4.382   4.451 -2.0698  0.3221  2.8281
  128SOPE  H18S13782   4.586   4.234   4.482  1.1680  2.1991  2.3111
  128SOPE  H18T13783   4.510   4.364   4.375 -0.1308 -2.2895 -2.8296
  128SOPE   C3313784   3.592   4.337   2.703  0.4068  0.2824 -0.1907
  128SOPE   H3X13785   3.521   4.415   2.668  2.0142  0.7313 -2.6819
  128SOPE   H3Y13786   3.695   4.371   2.680  0.3159  1.4033  0.9517
  128SOPE   C3413787   3.591   4.334   2.861  0.1457  0.1234  0.0926
  128SOPE   H4X13788   3.672   4.263   2.887  2.2488  1.8457 -1.3611
  128SOPE   H4Y13789   3.498   4.298   2.910 -1.0878  1.3235 -1.2488
  128SOPE   C3513790   3.638   4.476   2.916  0.3535 -0.1300 -0.3051
  128SOPE   H5X13791   3.578   4.557   2.870  3.3117  2.6122  0.3494
  128SOPE   H5Y13792   3.735   4.504   2.871 -0.4734  1.6210 -1.0669
  128SOPE   C3613793   3.647   4.480   3.071  0.1663  0.1025 -0.5093
  128SOPE   H6X13794   3.725   4.406   3.100 -0.0861 -0.9461 -2.3226
  128SOPE   H6Y13795   3.550   4.442   3.110  0.0927 -1.2673 -1.8924
  128SOPE   C3713796   3.688   4.614   3.129 -0.0799  0.1616 -0.4582
  128SOPE   H7X13797   3.616   4.698   3.111 -0.0008 -0.3703 -3.9063
  128SOPE   H7Y13798   3.779   4.641   3.071  1.0542 -1.8024  0.3225
  128SOPE   C3813799   3.708   4.614   3.282  0.7377  0.1007 -0.4061
  128SOPE   H8X13800   3.768   4.527   3.316  2.5992  2.7118  3.8205
  128SOPE   H8Y13801   3.606   4.610   3.326  0.9586  2.3604  0.4200
  128SOPE   C3913802   3.784   4.727   3.332 -1.1481  0.1378  0.4073
  128SOPE   H9X13803   3.755   4.807   3.260 -0.9309 -1.9223 -2.1515
  128SOPE   H9Y13804   3.891   4.719   3.302 -1.6928  0.6031 -1.8392
  128SOPE  C31013805   3.774   4.756   3.484 -0.5866 -0.4025 -0.3168
  128SOPE  H10X13806   3.670   4.785   3.512 -0.8532 -1.2280 -0.4301
  128SOPE  H10Y13807   3.835   4.846   3.508  0.5380 -0.0795 -3.8095
  128SOPE  C31113808   3.805   4.633   3.568 -0.1054  0.0394 -0.0515
  128SOPE  H11X13809   3.910   4.611   3.538 -0.1456  0.0382 -0.1918
  128SOPE  H11Y13810   3.730   4.553   3.554  0.7331 -0.8399  0.3519
  128SOPE  C31213811   3.784   4.666   3.717 -0.2373  0.6096  0.0922
  128SOPE  H12X13812   3.674   4.662   3.727 -0.1900 -0.2602  0.2997
  128SOPE  H12Y13813   3.813   4.771   3.742 -1.8658  0.6940  1.7521
  128SOPE  C31313814   3.857   4.567   3.807  0.5953  0.0991 -0.2050
  128SOPE  H13X13815   3.966   4.585   3.822  0.7854  0.4682 -1.8059
  128SOPE  H13Y13816   3.838   4.471   3.753 -1.5893  0.4836 -0.1898
  128SOPE  C31413817   3.782   4.556   3.945 -0.1542  0.2395  0.3417
  128SOPE  H14X13818   3.839   4.484   4.008 -2.4758 -2.1208 -0.0826
  128SOPE  H14Y13819   3.681   4.509   3.949 -0.0110 -0.0076  2.3224
  128SOPE  C31513820   3.764   4.697   4.005  0.6078 -0.0533  0.4153
  128SOPE  H15X13821   3.688   4.756   3.950  0.6930  0.7664  1.1650
  128SOPE  H15Y13822   3.857   4.758   3.995  1.0100 -0.6828  0.2461
  128SOPE  C31613823   3.731   4.683   4.154 -0.4226 -0.4337  0.7203
  128SOPE  H16X13824   3.793   4.605   4.204 -0.9534 -0.2046  1.7674
  128SOPE  H16Y13825   3.634   4.629   4.146 -0.1479 -0.6885 -1.4470
  128SOPE  C31713826   3.718   4.809   4.236 -0.4824 -0.3660 -0.0805
  128SOPE  H17X13827   3.635   4.800   4.310  0.4950 -0.6998  1.0107
  128SOPE  H17Y13828   3.698   4.896   4.171 -0.2035 -0.3219 -0.1062
  128SOPE  C31813829   3.843   4.850   4.314  1.2980  0.1936  0.1019
  128SOPE  H18X13830   3.931   4.837   4.248  0.7663 -3.6591 -0.0547
  128SOPE  H18Y13831   3.852   4.782   4.402  0.6564  0.7718  0.6290
  128SOPE  H18Z13832   3.838   4.954   4.354 -0.2001  1.1212 -2.2835
  129OSM      N13833   4.013   3.434   6.755  0.2425 -0.2448 -0.1242
  129OSM    C1513834   3.865   3.427   6.785  0.1862  0.2065  0.5628
  129OSM   H15A13835   3.839   3.396   6.885 -0.8886 -0.1783  0.1814
  129OSM   H15B13836   3.803   3.376   6.713 -0.8456  0.6086  1.1303
  129OSM   H15C13837   3.830   3.529   6.776 -1.5097 -0.4218 -0.5729
  129OSM    C1413838   4.080   3.510   6.865  0.9135 -0.3661 -0.0825
  129OSM   H14A13839   4.041   3.607   6.891  0.9880 -0.3280 -0.1151
  129OSM   H14B13840   4.186   3.525   6.855  1.3890 -3.4626 -0.8580
  129OSM   H14C13841   4.074   3.440   6.948 -1.6098 -0.2883 -0.1007
  129OSM    C1313842   4.063   3.296   6.749  0.6786 -0.3690  0.3427
  129OSM   H13A13843   4.162   3.284   6.709  0.2823 -0.8375 -0.5259
  129OSM   H13B13844   3.994   3.256   6.676 -0.1898  0.8586  0.4559
  129OSM   H13C13845   4.052   3.231   6.835  0.6036 -0.9488 -0.0959
  129OSM    C1213846   4.036   3.508   6.628  0.6683 -0.4502  0.2845
  129OSM   H12A13847   3.997   3.608   6.633  0.4236 -0.4246 -1.4820
  129OSM   H12B13848   3.980   3.455   6.552  0.9931  0.6371 -0.7538
  129OSM    C1113849   4.181   3.527   6.565  0.1955  0.0624  0.5450
  129OSM   H11A13850   4.169   3.584   6.470 -0.7864  0.8928  1.1434
  129OSM   H11B13851   4.224   3.425   6.553 -0.8264 -0.3880  0.6101
  129OSM      P13852   4.416   3.577   6.666  0.0668  0.3515  0.3387
  129OSM    O1313853   4.485   3.708   6.683  0.2600 -0.1853 -0.0681
  129OSM    O1413854   4.437   3.472   6.766 -0.2710  0.1398 -0.1179
  129OSM    O1113855   4.457   3.521   6.531 -0.2620 -0.1521  0.4349
  129OSM    O1213856   4.260   3.602   6.653 -0.4316  0.4092  0.3483
  129OSM    C1S13857   4.495   3.601   6.417  0.3528  0.5404  0.0742
  129OSM    H1S13858   4.577   3.670   6.448  0.6514  0.5067 -0.6317
  129OSM    H1T13859   4.424   3.682   6.390  0.9798  1.9447  2.3228
  129OSM     NF13860   4.550   3.625   6.177  0.1090 -0.1861 -0.6808
  129OSM    HNF13861   4.475   3.631   6.112  0.8671 -2.3094 -1.8703
  129OSM    C2S13862   4.524   3.527   6.285  0.5905  0.3662 -0.0179
  129OSM    H2S13863   4.618   3.469   6.294  0.7167  0.4070 -0.9500
  129OSM    C3S13864   4.413   3.428   6.241  0.0253 -0.0400  0.7017
  129OSM    H3S13865   4.308   3.464   6.250 -0.5515 -1.9089  2.0321
  129OSM     O313866   4.415   3.313   6.326  0.5138  0.1175  0.5314
  129OSM    HO313867   4.482   3.342   6.389 -0.1731  2.6221  0.2448
  129OSM    C4S13868   4.428   3.379   6.101  0.2589 -0.8937 -0.3929
  129OSM    H4S13869   4.352   3.426   6.038  1.6564  0.6219 -1.0175
  129OSM    C5S13870   4.497   3.270   6.052  0.1716 -0.1123 -0.2973
  129OSM    H5S13871   4.547   3.198   6.118  0.4051 -0.4100 -0.7934
  129OSM    C6S13872   4.488   3.222   5.914 -0.8425  0.3445 -0.0577
  129OSM    H6S13873   4.468   3.113   5.924  0.8640  0.2401  4.3564
  129OSM    H6T13874   4.592   3.232   5.874  0.2742 -4.4282  1.0005
  129OSM    C7S13875   4.376   3.283   5.828  0.0471 -0.5128 -0.1500
  129OSM    H7S13876   4.384   3.393   5.819 -0.3491 -0.4111  0.6323
  129OSM    H7T13877   4.283   3.269   5.888 -0.1608 -0.2572 -0.4126
  129OSM    C8S13878   4.369   3.214   5.692 -0.4068 -0.3347 -0.1706
  129OSM    H8S13879   4.368   3.105   5.713 -1.0009 -0.1932  0.5708
  129OSM    H8T13880   4.468   3.230   5.643 -0.1017  0.5576  0.7175
  129OSM    C9S13881   4.241   3.255   5.613  0.1768 -0.7661 -0.0226
  129OSM    H9S13882   4.238   3.366   5.611  4.4573 -0.4661  0.5202
  129OSM    H9T13883   4.153   3.204   5.657 -0.0257  0.8558  1.5353
  129OSM   C10S13884   4.233   3.201   5.465 -0.3855  0.0638  0.0360
  129OSM   H10S13885   4.245   3.091   5.462 -1.5359 -0.0665 -0.7093
  129OSM   H10T13886   4.304   3.247   5.394 -1.2158  3.4581  1.1942
  129OSM   C11S13887   4.099   3.239   5.402  0.1219 -0.1169  0.6385
  129OSM   H11S13888   4.094   3.350   5.406  0.6335  0.0353 -1.8137
  129OSM   H11T13889   4.009   3.208   5.460 -1.5872  1.5939 -0.9336
  129OSM   C12S13890   4.090   3.170   5.256  0.6905 -0.2708 -0.4537
  129OSM   H12S13891   4.090   3.060   5.271  0.5556 -0.1456  0.4765
  129OSM   H12T13892   4.178   3.206   5.198  0.6986 -0.6651 -0.6941
  129OSM   C13S13893   3.968   3.230   5.180  0.8092 -0.3908 -0.6618
  129OSM   H13S13894   3.958   3.339   5.193  2.2812 -0.3680  0.5522
  129OSM   H13T13895   3.877   3.182   5.221  1.7791 -0.8790  1.0240
  129OSM   C14S13896   3.982   3.196   5.030 -0.6802 -0.2032  0.0872
  129OSM   H14S13897   3.884   3.154   4.999 -0.7238 -0.2457  0.2783
  129OSM   H14T13898   4.061   3.120   5.014 -1.4211 -0.6172 -1.9275
  129OSM   C15S13899   4.001   3.320   4.937  0.0433 -0.7134  0.6681
  129OSM   H15S13900   4.098   3.364   4.967 -1.1681  2.2068  0.6058
  129OSM   H15T13901   3.918   3.391   4.959  1.2653  0.6291  1.0852
  129OSM   C16S13902   3.992   3.293   4.789  0.8195 -0.0638  0.2755
  129OSM   H16S13903   3.998   3.386   4.728 -0.9882 -0.0063  0.1503
  129OSM   H16T13904   3.892   3.248   4.780  1.1273 -0.9723  1.2104
  129OSM   C17S13905   4.099   3.201   4.724  0.3281 -0.0450 -0.2978
  129OSM   H17S13906   4.114   3.121   4.800 -0.0747  0.6244  0.5017
  129OSM   H17T13907   4.194   3.251   4.697  0.8579 -2.1512 -2.7936
  129OSM   C18S13908   4.040   3.138   4.600 -0.1823  0.1396  0.2383
  129OSM   H18S13909   3.937   3.098   4.614  0.4385 -1.4139  0.6358
  129OSM   H18T13910   4.117   3.060   4.581  1.4015  1.9004 -0.9220
  129OSM   H18U13911   4.033   3.213   4.519  0.6852  0.1999  0.2109
  129OSM    C1F13912   4.652   3.703   6.177 -0.6989  0.4678  1.0504
  129OSM     OF13913   4.735   3.686   6.264  0.3590 -0.1950  0.5999
  129OSM    C2F13914   4.664   3.806   6.071 -0.2539 -0.4695  0.2152
  129OSM    H2F13915   4.607   3.898   6.097 -1.4783 -1.6128  1.7787
  129OSM    H2G13916   4.646   3.774   5.967  1.4012  0.2507 -0.3263
  129OSM    C3F13917   4.809   3.866   6.066  0.5490  0.4936  0.2564
  129OSM    H3F13918   4.879   3.780   6.061  1.6065  1.3999 -1.6264
  129OSM    H3G13919   4.831   3.929   6.156  0.6454 -0.8655  1.2089
  129OSM    C4F13920   4.832   3.950   5.943  0.1599 -0.6744 -0.7595
  129OSM    H4F13921   4.791   3.907   5.850  2.1116  2.2232 -3.1422
  129OSM    H4G13922   4.943   3.957   5.938  0.1523  0.3786  0.0278
  129OSM    C5F13923   4.781   4.103   5.964  0.0624  0.3119 -0.1560
  129OSM    H5F13924   4.827   4.152   6.053  0.4701 -0.3595  0.0101
  129OSM    H5G13925   4.671   4.113   5.971  0.1867  1.9870 -0.2133
  129OSM    C6F13926   4.822   4.180   5.840 -0.0872 -1.0534 -0.0813
  129OSM    H6F13927   4.764   4.141   5.754  0.1776 -0.8057 -0.3734
  129OSM    H6G13928   4.929   4.153   5.825  0.0046 -0.6490 -0.1756
  129OSM    C7F13929   4.803   4.333   5.854  0.6418 -0.2209  0.1610
  129OSM    H7F13930   4.845   4.364   5.953  1.2560  1.1086 -0.4768
  129OSM    H7G13931   4.697   4.365   5.852  1.1750  1.6475 -0.7843
  129OSM    C8F13932   4.869   4.408   5.733 -0.4384 -0.1725 -0.1544
  129OSM    H8F13933   4.828   4.509   5.756  0.7339  0.3201 -0.1651
  129OSM    H8G13934   4.818   4.358   5.647 -0.4811 -1.1224  0.4155
  129OSM    C9F13935   5.021   4.394   5.739 -0.2210 -0.3876  0.2683
  129OSM    H9F13936   5.077   4.400   5.833 -0.0276 -1.0429  0.1994
  129OSM   C10F13937   5.093   4.374   5.624 -0.1112 -0.1881  0.0956
  129OSM   H10F13938   5.199   4.357   5.644  0.1303 -0.7430 -1.5512
  129OSM   C11F13939   5.045   4.354   5.484 -0.3086 -0.0350  0.2554
  129OSM   H11F13940   4.948   4.300   5.490 -0.7598  0.7856  0.5249
  129OSM   H11G13941   5.120   4.295   5.427 -1.0570 -1.1892  0.4283
  129OSM   C12F13942   5.026   4.485   5.406 -1.0220 -0.1840 -0.0417
  129OSM   H12F13943   5.106   4.558   5.431  1.5521 -1.6183 -3.3888
  129OSM   H12G13944   4.936   4.537   5.445 -0.8511  0.3923 -0.4115
  129OSM   C13F13945   5.015   4.466   5.252  0.5160 -0.6475 -0.3837
  129OSM   H13F13946   4.948   4.541   5.205  0.5995  0.7041  1.5736
  129OSM   H13G13947   4.974   4.366   5.225  0.0420 -0.2420 -1.2168
  129OSM   C14F13948   5.154   4.481   5.184 -0.0100 -0.0192  0.5212
  129OSM   H14F13949   5.224   4.409   5.231  0.1056  1.4173  2.6866
  129OSM   H14G13950   5.197   4.578   5.217  1.2896 -1.1017  2.1894
  129OSM   C15F13951   5.145   4.460   5.037  0.2450 -0.5591  0.2180
  129OSM   H15F13952   5.099   4.548   4.988  0.9792 -0.7197 -0.7960
  129OSM   H15G13953   5.083   4.368   5.026 -0.5743 -0.2393  1.8843
  129OSM   C16F13954   5.273   4.420   4.963  0.4266 -0.0892 -0.4026
  129OSM   H16F13955   5.240   4.382   4.863  0.5101  1.5932 -1.1096
  129OSM   H16G13956   5.324   4.334   5.011  1.4982 -0.2009 -1.6725
  129OSM   C17F13957   5.372   4.537   4.955  0.4568  0.0364 -0.1007
  129OSM   H17F13958   5.420   4.542   5.055 -1.5371 -1.6842  1.0297
  129OSM   H17G13959   5.319   4.634   4.949  3.8924  2.1381  0.7810
  129OSM   C18F13960   5.469   4.531   4.835  0.1926 -0.4249 -0.6277
  129OSM   H18F13961   5.547   4.607   4.855 -1.2270  0.6046  1.3456
  129OSM   H18G13962   5.433   4.564   4.736  3.3032  2.8091 -0.8310
  129OSM   H18H13963   5.509   4.428   4.823 -0.9859 -0.7798 -1.8134
  130OSM      N13964   3.241   1.358   6.791 -0.4735 -0.7044 -0.6144
  130OSM    C1513965   3.203   1.472   6.878  0.5635 -0.2836  0.0991
  130OSM   H15A13966   3.226   1.570   6.840 -0.7411  0.9164  2.1793
  130OSM   H15B13967   3.251   1.467   6.975 -0.6810  0.7453  0.8061
  130OSM   H15C13968   3.097   1.471   6.901  0.7911 -0.4963  1.1888
  130OSM    C1413969   3.193   1.228   6.861  0.5842 -0.4694  0.3533
  130OSM   H14A13970   3.087   1.226   6.878  0.8445  0.6571  2.3205
  130OSM   H14B13971   3.240   1.230   6.958 -1.0066 -0.6621  1.1641
  130OSM   H14C13972   3.225   1.140   6.808 -0.5030 -0.0788 -1.0294
  130OSM    C1313973   3.170   1.372   6.664 -0.3296 -0.5164  0.7242
  130OSM   H13A13974   3.196   1.465   6.615  2.2283 -1.9003 -0.7858
  130OSM   H13B13975   3.064   1.370   6.684 -0.4489  0.3097  0.2309
  130OSM   H13C13976   3.198   1.304   6.585 -2.1919 -0.8688  0.3248
  130OSM    C1213977   3.397   1.359   6.766  0.3442 -0.1033 -0.0248
  130OSM   H12A13978   3.453   1.343   6.857 -0.2311  0.8621  0.5125
  130OSM   H12B13979   3.417   1.464   6.755 -2.8982  0.7390  0.9446
  130OSM    C1113980   3.456   1.265   6.661 -0.2661 -0.6511  0.1718
  130OSM   H11A13981   3.562   1.296   6.654 -0.2976 -0.2546  1.2780
  130OSM   H11B13982   3.405   1.296   6.567  0.4756 -0.9056 -0.3223
  130OSM      P13983   3.553   1.060   6.783  0.2612 -0.3545  0.4143
  130OSM    O1313984   3.667   1.153   6.809 -0.2454  0.2846 -0.2306
  130OSM    O1413985   3.495   0.996   6.905  0.5117  0.1185  0.2438
  130OSM    O1113986   3.604   0.950   6.687  0.1151 -0.1526  0.0627
  130OSM    O1213987   3.444   1.125   6.680 -0.8320  0.2370 -0.0084
  130OSM    C1S13988   3.519   0.856   6.623  0.2882  0.1211  0.5269
  130OSM    H1S13989   3.424   0.904   6.591  0.3099  0.8635  1.5084
  130OSM    H1T13990   3.486   0.777   6.694 -0.0128  0.0347  0.2944
  130OSM     NF13991   3.492   0.718   6.406 -0.1058  0.4301 -0.2889
  130OSM    HNF13992   3.474   0.622   6.429  2.4942  0.5208  2.9749
  130OSM    C2S13993   3.583   0.792   6.498 -0.7242  0.0584  0.3128
  130OSM    H2S13994   3.633   0.874   6.442  0.7772 -0.4605  0.8623
  130OSM    C3S13995   3.710   0.711   6.551  0.4746  0.1399  0.1330
  130OSM    H3S13996   3.669   0.633   6.619 -0.1591  1.5998  1.4963
  130OSM     O313997   3.803   0.796   6.624  0.0684  0.2477  0.8060
  130OSM    HO313998   3.750   0.872   6.650 -1.0524 -0.6182  1.1338
  130OSM    C4S13999   3.771   0.642   6.435 -0.6962 -0.4545 -0.0678
  130OSM    H4S14000   3.743   0.537   6.418 -1.1988 -0.0730 -1.7445
  130OSM    C5S14001   3.876   0.693   6.359  0.1973  0.5227 -0.0223
  130OSM    H5S14002   3.922   0.782   6.403 -0.7033  0.3034  1.4324
  130OSM    C6S14003   3.957   0.626   6.244 -0.1082 -0.1737  0.2170
  130OSM    H6S14004   4.064   0.608   6.268 -0.6286 -1.0963  2.0101
  130OSM    H6T14005   3.967   0.694   6.157 -0.4486  1.7608  1.6204
  130OSM    C7S14006   3.878   0.502   6.197  0.0119 -0.4906  0.4721
  130OSM    H7S14007   3.778   0.536   6.162  0.4845  0.1199 -0.3318
  130OSM    H7T14008   3.864   0.434   6.283  1.4013 -1.2927  0.0919
  130OSM    C8S14009   3.936   0.440   6.070 -0.6006 -0.4002 -0.8741
  130OSM    H8S14010   3.894   0.338   6.059 -0.8624 -0.7840  2.6755
  130OSM    H8T14011   4.046   0.428   6.085 -0.6677  0.8260  0.8420
  130OSM    C9S14012   3.919   0.525   5.944  0.4934  0.2810 -0.6466
  130OSM    H9S14013   3.964   0.626   5.945 -1.3709  1.2254  2.8573
  130OSM    H9T14014   3.811   0.543   5.921  0.4460 -1.0081 -1.5884
  130OSM   C10S14015   3.967   0.451   5.823  0.1077 -0.2660  0.1805
  130OSM   H10S14016   3.897   0.370   5.791 -1.3975  0.7497  0.7633
  130OSM   H10T14017   4.062   0.406   5.857  0.0210  0.1422  0.9889
  130OSM   C11S14018   3.996   0.540   5.700  0.3307 -0.4552  0.4202
  130OSM   H11S14019   4.085   0.601   5.724 -2.1458  2.8791  1.9515
  130OSM   H11T14020   3.921   0.622   5.693 -0.1234 -0.9329 -0.5300
  130OSM   C12S14021   4.005   0.466   5.564  0.6539 -0.1126 -0.0872
  130OSM   H12S14022   3.926   0.389   5.554 -0.6490  0.8742  1.9490
  130OSM   H12T14023   4.101   0.411   5.557  0.1029 -1.0329 -0.4714
  130OSM   C13S14024   3.989   0.566   5.449  0.0412 -0.2502 -0.2897
  130OSM   H13S14025   3.892   0.619   5.462  0.8440  1.1176  0.3324
  130OSM   H13T14026   3.975   0.497   5.363 -0.7837  2.1038 -2.1339
  130OSM   C14S14027   4.106   0.661   5.423 -0.0918  0.1240  0.5117
  130OSM   H14S14028   4.197   0.608   5.459 -0.0217  1.0424  1.7477
  130OSM   H14T14029   4.094   0.744   5.495  0.9042 -0.1833  1.0512
  130OSM   C15S14030   4.122   0.683   5.271 -0.3034 -0.4774 -0.2820
  130OSM   H15S14031   4.046   0.761   5.248 -0.9183 -0.4763  1.5448
  130OSM   H15T14032   4.095   0.588   5.221 -0.3329 -1.3686  1.3511
  130OSM   C16S14033   4.259   0.721   5.234 -0.3718 -0.1227 -0.0855
  130OSM   H16S14034   4.335   0.640   5.228  1.3288  1.3751  0.2533
  130OSM   H16T14035   4.296   0.794   5.309  0.4735 -0.1570 -0.4526
  130OSM   C17S14036   4.271   0.804   5.102 -0.4247 -0.0660 -0.0110
  130OSM   H17S14037   4.190   0.880   5.101 -0.3671  0.0260  1.0536
  130OSM   H17T14038   4.258   0.736   5.016  1.9342 -0.7581  0.1122
  130OSM   C18S14039   4.395   0.895   5.084  0.1994  0.0159 -0.1047
  130OSM   H18S14040   4.488   0.856   5.132 -0.1370 -0.7740 -0.0683
  130OSM   H18T14041   4.371   0.987   5.141 -1.6148  0.3058 -1.2687
  130OSM   H18U14042   4.415   0.921   4.978  0.5526 -0.3545 -0.1324
  130OSM    C1F14043   3.394   0.774   6.344 -0.1674 -0.2726 -0.4890
  130OSM     OF14044   3.381   0.893   6.358  0.5426 -0.0604 -0.1679
  130OSM    C2F14045   3.290   0.690   6.280 -0.1699  0.2388  0.8419
  130OSM    H2F14046   3.190   0.724   6.315  0.1710 -0.7709  2.9121
  130OSM    H2G14047   3.289   0.584   6.312  0.4906 -0.4569 -1.2685
  130OSM    C3F14048   3.290   0.691   6.124 -0.3399 -1.3067  0.4289
  130OSM    H3F14049   3.303   0.797   6.093 -1.0652 -1.5152 -0.6403
  130OSM    H3G14050   3.195   0.652   6.083 -0.4460 -0.1458 -0.4611
  130OSM    C4F14051   3.403   0.617   6.053  0.2430 -0.5184  0.3090
  130OSM    H4F14052   3.394   0.513   6.091 -0.4378 -0.5018  0.2157
  130OSM    H4G14053   3.506   0.648   6.080  0.3618 -0.9903  0.4107
  130OSM    C5F14054   3.381   0.617   5.900 -0.2019 -0.7126 -0.5047
  130OSM    H5F14055   3.378   0.726   5.879 -1.9972 -0.3735  1.2932
  130OSM    H5G14056   3.283   0.568   5.881 -0.7102 -0.1114  0.4827
  130OSM    C6F14057   3.489   0.543   5.807 -0.6731 -0.1271  0.4651
  130OSM    H6F14058   3.484   0.433   5.818 -1.9335 -0.0480  0.9606
  130OSM    H6G14059   3.590   0.579   5.836  0.0155 -0.2545 -1.6450
  130OSM    C7F14060   3.469   0.580   5.663 -0.9685 -0.4092  0.5434
  130OSM    H7F14061   3.489   0.689   5.653 -0.5831 -0.4714  0.6228
  130OSM    H7G14062   3.362   0.563   5.635 -0.9756  1.1828 -0.5800
  130OSM    C8F14063   3.566   0.514   5.563 -0.1841  0.8129  1.0528
  130OSM    H8F14064   3.562   0.404   5.579 -2.4864  0.4805 -1.2558
  130OSM    H8G14065   3.673   0.544   5.569 -0.1165  0.9311 -0.4502
  130OSM    C9F14066   3.507   0.542   5.422  0.7505 -0.3727 -0.2992
  130OSM    H9F14067   3.469   0.642   5.399 -0.6286 -1.2224 -1.9532
  130OSM   C10F14068   3.516   0.461   5.319 -0.4260 -0.5488 -0.3954
  130OSM   H10F14069   3.483   0.500   5.222 -0.2648 -0.9056 -0.5959
  130OSM   C11F14070   3.576   0.322   5.321 -0.4825  0.4738  0.7171
  130OSM   H11F14071   3.524   0.255   5.248 -0.7866  0.7243  0.7033
  130OSM   H11G14072   3.577   0.288   5.427  5.2858 -0.6702  0.6293
  130OSM   C12F14073   3.724   0.335   5.275  0.2032 -0.2315  0.2194
  130OSM   H12F14074   3.770   0.234   5.274  0.7380  0.0064  0.4690
  130OSM   H12G14075   3.794   0.391   5.340 -0.5746 -0.1215  0.9780
  130OSM   C13F14076   3.747   0.401   5.139 -0.4055 -0.2729 -0.5762
  130OSM   H13F14077   3.712   0.506   5.144  0.6527  0.0384  0.9738
  130OSM   H13G14078   3.683   0.345   5.067  0.3979 -1.6764 -0.2475
  130OSM   C14F14079   3.893   0.398   5.085 -0.0898  0.3936 -0.1257
  130OSM   H14F14080   3.920   0.291   5.073 -0.6616  0.4550 -2.6312
  130OSM   H14G14081   3.950   0.446   5.167  0.2997 -0.9328  0.4030
  130OSM   C15F14082   3.913   0.457   4.949 -0.0333  0.3196 -0.0637
  130OSM   H15F14083   3.879   0.562   4.947  1.7360  0.9829  1.4958
  130OSM   H15G14084   3.847   0.410   4.873 -1.3082  0.7733  0.7251
  130OSM   C16F14085   4.067   0.481   4.930  1.0867  0.3631 -0.0798
  130OSM   H16F14086   4.107   0.380   4.954 -0.8577 -1.1534 -2.6358
  130OSM   H16G14087   4.104   0.537   5.018  1.6519 -0.8282  0.4679
  130OSM   C17F14088   4.109   0.529   4.796  0.1870 -0.2728 -0.3354
  130OSM   H17F14089   4.216   0.554   4.784 -0.0274  0.3139 -1.1385
  130OSM   H17G14090   4.054   0.626   4.788  1.4575  0.6246  1.3240
  130OSM   C18F14091   4.077   0.431   4.677 -0.7945  0.1630  0.2423
  130OSM   H18F14092   3.979   0.465   4.639 -0.0879  1.6781 -0.3176
  130OSM   H18G14093   4.079   0.329   4.721  0.4047  0.8783  1.9826
  130OSM   H18H14094   4.150   0.443   4.594 -0.1013  0.3235  0.8563
  131OSM      N14095   6.012   4.162   6.679  0.3009  0.2587  0.7401
  131OSM    C1514096   6.089   4.037   6.701  0.0360  0.3052  0.5600
  131OSM   H15A14097   6.171   4.020   6.632  0.5643 -1.2300  1.4909
  131OSM   H15B14098   6.025   3.950   6.689 -0.0225  0.3160  0.7915
  131OSM   H15C14099   6.137   4.049   6.797  2.4528  3.0871 -0.8319
  131OSM    C1414100   5.973   4.167   6.533  0.0610  0.1822  0.7103
  131OSM   H14A14101   6.060   4.157   6.470  0.3563  0.9337  0.9806
  131OSM   H14B14102   5.914   4.253   6.503  1.7358  0.1431 -3.3361
  131OSM   H14C14103   5.919   4.080   6.501 -2.9801  2.2211 -0.0902
  131OSM    C1314104   5.884   4.163   6.759  0.5551 -0.2028 -0.0953
  131OSM   H13A14105   5.844   4.261   6.780 -1.5982 -0.6047 -2.0038
  131OSM   H13B14106   5.885   4.108   6.852  0.4404  2.3038  1.4634
  131OSM   H13C14107   5.810   4.105   6.705  1.4447  0.3761 -2.0373
  131OSM    C1214108   6.092   4.287   6.725 -0.3435  0.1711  0.3173
  131OSM   H12A14109   6.026   4.371   6.711 -0.2831  0.0496 -0.8596
  131OSM   H12B14110   6.163   4.286   6.643 -0.8705 -0.3986 -0.1463
  131OSM    C1114111   6.162   4.284   6.855  0.3947  0.0899 -0.2718
  131OSM   H11A14112   6.091   4.250   6.934  0.6388 -2.4438 -1.0531
  131OSM   H11B14113   6.182   4.386   6.896 -0.6790 -0.0619  0.7027
  131OSM      P14114   6.410   4.248   6.821 -0.0373 -0.1842  0.4715
  131OSM    O1314115   6.435   4.383   6.879  0.1152 -0.0066  0.0150
  131OSM    O1414116   6.504   4.141   6.854 -0.6581 -0.0573  0.4862
  131OSM    O1114117   6.406   4.258   6.660  0.3884 -1.1919 -0.3793
  131OSM    O1214118   6.267   4.196   6.855 -0.2265  0.0486  0.3494
  131OSM    C1S14119   6.449   4.149   6.584  0.1734 -0.1039 -0.2102
  131OSM    H1S14120   6.396   4.057   6.615  1.4635 -1.0000 -0.6033
  131OSM    H1T14121   6.557   4.127   6.598  0.2547  1.6681  3.1747
  131OSM     NF14122   6.432   4.045   6.355 -0.6301  0.5662  0.2209
  131OSM    HNF14123   6.524   4.024   6.324 -0.4746  0.5623  0.6794
  131OSM    C2S14124   6.424   4.171   6.429  0.7470  0.5557  0.9783
  131OSM    H2S14125   6.318   4.200   6.415  0.4631 -0.3922  1.1319
  131OSM    C3S14126   6.512   4.287   6.379 -0.1404  0.4335 -0.1315
  131OSM    H3S14127   6.618   4.255   6.389 -0.0777  0.6600 -0.0751
  131OSM     O314128   6.485   4.403   6.465 -0.0307  0.1831 -0.4367
  131OSM    HO314129   6.461   4.355   6.544 -0.8930  0.1272 -0.7288
  131OSM    C4S14130   6.486   4.315   6.230 -0.3825  0.2221 -0.5368
  131OSM    H4S14131   6.390   4.358   6.198  0.0073  0.0250 -2.0335
  131OSM    C5S14132   6.579   4.286   6.138 -0.1109  0.6561  0.3825
  131OSM    H5S14133   6.680   4.253   6.166 -0.3498 -0.6611 -0.2263
  131OSM    C6S14134   6.568   4.293   5.984  0.2152 -0.5211  0.1335
  131OSM    H6S14135   6.585   4.187   5.956  1.9464  0.2654 -2.1213
  131OSM    H6T14136   6.643   4.367   5.948  0.0093 -0.4549 -0.1615
  131OSM    C7S14137   6.433   4.336   5.927  0.0794 -0.0905 -0.3132
  131OSM    H7S14138   6.397   4.428   5.979 -2.5783 -0.8852 -0.6115
  131OSM    H7T14139   6.358   4.263   5.965 -0.0672 -0.4078 -1.1837
  131OSM    C8S14140   6.436   4.344   5.772 -0.3794  0.3393 -0.3189
  131OSM    H8S14141   6.334   4.358   5.729 -0.0457 -1.0226 -1.6464
  131OSM    H8T14142   6.469   4.244   5.736 -2.6645 -0.7590  0.4239
  131OSM    C9S14143   6.530   4.457   5.729 -0.4235  0.3703 -0.5142
  131OSM    H9S14144   6.632   4.420   5.752 -1.1882 -0.3988  1.9903
  131OSM    H9T14145   6.506   4.536   5.804 -0.1305 -2.7871  3.1899
  131OSM   C10S14146   6.510   4.504   5.585  0.1100  0.0792  0.0541
  131OSM   H10S14147   6.560   4.603   5.579  0.7924 -0.2854 -0.3925
  131OSM   H10T14148   6.404   4.514   5.552  0.3560 -0.6846 -1.0192
  131OSM   C11S14149   6.561   4.419   5.466  0.0379  0.4004  0.2105
  131OSM   H11S14150   6.507   4.323   5.479  1.4090 -0.0908  3.0881
  131OSM   H11T14151   6.668   4.401   5.491  0.3639  0.8975 -0.7553
  131OSM   C12S14152   6.553   4.481   5.320 -0.1360  0.2632 -0.2961
  131OSM   H12S14153   6.599   4.581   5.332 -0.8804  0.4259  1.5394
  131OSM   H12T14154   6.449   4.503   5.289  0.0525  0.5069 -0.7731
  131OSM   C13S14155   6.632   4.393   5.221 -0.4236 -0.1980 -0.1354
  131OSM   H13S14156   6.599   4.292   5.253 -2.8057  0.6527  0.3150
  131OSM   H13T14157   6.743   4.397   5.232 -0.3551  0.1507 -0.8709
  131OSM   C14S14158   6.592   4.408   5.069 -0.3031 -0.5634 -0.0299
  131OSM   H14S14159   6.598   4.513   5.033 -4.3665  0.4055  1.5373
  131OSM   H14T14160   6.482   4.393   5.074 -0.3779  0.3727  1.8726
  131OSM   C15S14161   6.675   4.318   4.969  0.4858 -0.1535  0.1999
  131OSM   H15S14162   6.647   4.211   4.979  1.2291 -0.2156  1.9155
  131OSM   H15T14163   6.778   4.324   5.012 -0.3483 -0.2769  2.3406
  131OSM   C16S14164   6.664   4.368   4.825 -0.8043  0.4081 -0.5670
  131OSM   H16S14165   6.711   4.468   4.820 -0.9335  0.8611  3.4813
  131OSM   H16T14166   6.557   4.368   4.798 -0.7392  0.8655 -0.8228
  131OSM   C17S14167   6.746   4.270   4.740 -0.7442  0.4215 -0.3493
  131OSM   H17S14168   6.693   4.173   4.745 -0.3599  0.2160 -0.2235
  131OSM   H17T14169   6.848   4.265   4.785 -1.4608 -1.8909  1.2019
  131OSM   C18S14170   6.756   4.310   4.591  0.6272  0.4972 -0.7674
  131OSM   H18S14171   6.665   4.293   4.530  0.5776  1.9174 -1.1442
  131OSM   H18T14172   6.836   4.244   4.554 -0.7218 -1.2884 -0.6251
  131OSM   H18U14173   6.786   4.415   4.569 -0.6689  0.9948 -0.3036
  131OSM    C1F14174   6.335   3.953   6.353  0.1168 -0.2584  0.7212
  131OSM     OF14175   6.231   3.971   6.414  0.0869 -0.5125 -0.4869
  131OSM    C2F14176   6.355   3.826   6.282  0.5712 -0.6265 -0.2975
  131OSM    H2F14177   6.333   3.742   6.352  0.2125 -1.6554 -1.6203
  131OSM    H2G14178   6.461   3.822   6.251  0.5374 -3.5886 -0.2717
  131OSM    C3F14179   6.247   3.804   6.167 -0.4799 -1.1593 -0.2196
  131OSM    H3F14180   6.273   3.880   6.090 -0.3731  0.8531  1.6832
  131OSM    H3G14181   6.141   3.820   6.197 -1.1760  0.1090 -3.0365
  131OSM    C4F14182   6.254   3.671   6.093  0.2773 -0.0863 -0.7347
  131OSM    H4F14183   6.243   3.582   6.158  0.5815  0.2423 -0.2328
  131OSM    H4G14184   6.352   3.658   6.044 -0.6965 -1.7555 -2.3895
  131OSM    C5F14185   6.149   3.671   5.981  0.6040 -0.7944 -0.3955
  131OSM    H5F14186   6.162   3.753   5.907  0.8547  1.6057  2.1706
  131OSM    H5G14187   6.044   3.681   6.018  0.1513 -4.5750 -0.2929
  131OSM    C6F14188   6.142   3.539   5.905  0.1444 -0.5794 -0.4186
  131OSM    H6F14189   6.129   3.453   5.975  2.3078 -0.5030  0.1561
  131OSM    H6G14190   6.242   3.523   5.860  0.1849  1.2822 -1.0717
  131OSM    C7F14191   6.027   3.535   5.804 -0.7864 -0.3954  0.0829
  131OSM    H7F14192   6.032   3.614   5.727 -2.7495 -0.1249  0.1890
  131OSM    H7G14193   5.927   3.555   5.847 -0.6503  0.5271 -0.0208
  131OSM    C8F14194   6.018   3.404   5.717  0.2173 -0.3174 -0.0074
  131OSM    H8F14195   5.950   3.439   5.637  1.8656  0.2631 -1.2041
  131OSM    H8G14196   5.970   3.324   5.777 -1.2806 -0.1036 -0.8597
  131OSM    C9F14197   6.155   3.375   5.656  0.1174 -0.5270 -0.4349
  131OSM    H9F14198   6.228   3.345   5.733 -0.0691  0.8615  0.3058
  131OSM   C10F14199   6.204   3.401   5.538 -0.3417 -0.6265 -0.1343
  131OSM   H10F14200   6.307   3.376   5.507 -1.5514 -2.8352 -2.9303
  131OSM   C11F14201   6.121   3.451   5.425  0.1359 -0.9057 -0.5881
  131OSM   H11F14202   6.193   3.516   5.371  1.5738 -2.5725 -0.7678
  131OSM   H11G14203   6.034   3.514   5.456 -0.6154 -1.8373 -0.7473
  131OSM   C12F14204   6.064   3.335   5.341  1.3065 -0.5498 -0.3979
  131OSM   H12F14205   5.989   3.273   5.395  1.1512 -0.0449 -0.0259
  131OSM   H12G14206   6.151   3.268   5.326 -0.1381 -2.5011 -0.3360
  131OSM   C13F14207   5.996   3.373   5.207 -0.7147 -0.8527 -0.2309
  131OSM   H13F14208   5.937   3.466   5.220  0.4251 -0.2391  0.7451
  131OSM   H13G14209   5.944   3.283   5.166 -2.0158  0.7601 -2.2738
  131OSM   C14F14210   6.099   3.415   5.094  0.2437  0.2714 -0.3743
  131OSM   H14F14211   6.173   3.332   5.088  0.0259  0.1667 -1.9573
  131OSM   H14G14212   6.165   3.501   5.121 -0.2477  0.4040  0.4346
  131OSM   C15F14213   6.035   3.425   4.953 -0.0977 -0.3897  0.2789
  131OSM   H15F14214   5.943   3.363   4.953  0.1671 -0.8179  1.7254
  131OSM   H15G14215   6.105   3.386   4.876 -1.4323 -1.6399 -0.3439
  131OSM   C16F14216   6.011   3.571   4.913 -0.1523 -0.0230 -0.1412
  131OSM   H16F14217   6.107   3.623   4.892  0.5900 -0.3334  2.1525
  131OSM   H16G14218   5.955   3.623   4.994  0.8911  1.4403 -0.3250
  131OSM   C17F14219   5.932   3.588   4.781  0.0575 -0.1940  0.4514
  131OSM   H17F14220   5.833   3.541   4.765  0.4371 -0.0186 -3.0751
  131OSM   H17G14221   6.002   3.533   4.714  0.8142 -0.2976  1.3023
  131OSM   C18F14222   5.916   3.732   4.737 -0.2628 -0.3327 -0.5584
  131OSM   H18F14223   5.855   3.783   4.815 -1.5523 -1.5940 -0.6970
  131OSM   H18G14224   5.865   3.732   4.639  1.6848 -0.1825 -1.6195
  131OSM   H18H14225   6.011   3.788   4.727 -0.2531  0.1247  1.5841
  132OSM      N14226   1.936   4.837   6.676  0.5471 -0.0754 -0.5094
  132OSM    C1514227   1.893   4.925   6.790 -0.6826 -0.3593  0.1964
  132OSM   H15A14228   1.963   5.004   6.814 -0.6571 -0.4832  0.5293
  132OSM   H15B14229   1.899   4.860   6.876  1.0561 -1.6666 -0.8600
  132OSM   H15C14230   1.790   4.956   6.784 -0.7825 -0.8181 -0.6816
  132OSM    C1414231   1.838   4.720   6.679 -0.6009 -0.2929  0.3097
  132OSM   H14A14232   1.847   4.653   6.763 -1.0747 -1.2527 -0.3773
  132OSM   H14B14233   1.868   4.664   6.591  0.5195  2.3200 -1.0727
  132OSM   H14C14234   1.737   4.758   6.672  0.0111  1.4018  0.2436
  132OSM    C1314235   1.929   4.917   6.553 -0.1917  0.2256 -0.3206
  132OSM   H13A14236   1.974   5.015   6.562 -3.5415  1.7879  1.2792
  132OSM   H13B14237   1.828   4.937   6.523  0.9865  2.3046 -3.4291
  132OSM   H13C14238   1.969   4.868   6.465 -1.6537  0.9996 -1.4452
  132OSM    C1214239   2.080   4.786   6.695  0.5972  0.7707  0.4226
  132OSM   H12A14240   2.092   4.722   6.781  0.4252 -2.7591 -1.9805
  132OSM   H12B14241   2.149   4.867   6.714  1.2039  0.5425 -0.7113
  132OSM    C1114242   2.137   4.687   6.584  0.5256 -0.1970 -0.2957
  132OSM   H11A14243   2.247   4.688   6.600  0.2713  0.8292  1.8100
  132OSM   H11B14244   2.127   4.744   6.490  1.1270 -0.9569 -0.8302
  132OSM      P14245   2.091   4.471   6.442  0.3946  0.7072 -0.2472
  132OSM    O1314246   2.088   4.327   6.477  0.3837  0.5798 -0.2089
  132OSM    O1414247   2.003   4.515   6.333 -0.2012  0.0096 -0.2866
  132OSM    O1114248   2.243   4.508   6.408 -0.4157  0.8104 -0.0335
  132OSM    O1214249   2.071   4.562   6.575  0.2117 -0.0498  0.0669
  132OSM    C1S14250   2.305   4.475   6.281  0.6428  0.9394 -0.7435
  132OSM    H1S14251   2.270   4.377   6.243  0.5063  1.5409 -2.2495
  132OSM    H1T14252   2.415   4.475   6.296  0.3087  1.1007  2.2960
  132OSM     NF14253   2.317   4.535   6.042  0.1822  0.5522 -0.2152
  132OSM    HNF14254   2.407   4.559   6.008  0.2718  1.2212  0.4574
  132OSM    C2S14255   2.280   4.579   6.176  0.0587 -0.3086  0.7156
  132OSM    H2S14256   2.172   4.602   6.180  0.2686  0.8936  0.0539
  132OSM    C3S14257   2.350   4.717   6.207 -0.4377  0.5562 -0.0363
  132OSM    H3S14258   2.459   4.694   6.204 -0.7431 -1.0013  0.3051
  132OSM     O314259   2.324   4.767   6.333 -0.5362 -0.6773  0.3359
  132OSM    HO314260   2.290   4.695   6.386  1.5949 -1.0443  1.3106
  132OSM    C4S14261   2.319   4.820   6.104 -0.3957 -0.4055 -0.5013
  132OSM    H4S14262   2.210   4.833   6.089 -0.6460 -1.5137  0.2111
  132OSM    C5S14263   2.410   4.899   6.038  0.4554 -0.4081 -0.5704
  132OSM    H5S14264   2.513   4.885   6.073 -0.5097  0.3082  2.8780
  132OSM    C6S14265   2.376   4.989   5.918  0.6963 -0.2884  0.0574
  132OSM    H6S14266   2.458   5.000   5.845  0.0755  1.1543 -0.4689
  132OSM    H6T14267   2.360   5.091   5.960  1.0161  0.0884 -0.7152
  132OSM    C7S14268   2.248   4.967   5.843 -0.4111  0.3565 -0.2109
  132OSM    H7S14269   2.164   4.965   5.915 -0.2542  0.6968 -0.0132
  132OSM    H7T14270   2.258   4.865   5.800 -1.4543  0.1397  0.0416
  132OSM    C8S14271   2.222   5.060   5.727  0.3389 -0.4280  0.0161
  132OSM    H8S14272   2.283   5.022   5.643 -0.2490 -1.8946  0.2255
  132OSM    H8T14273   2.260   5.161   5.753  2.0512 -0.8386 -0.7642
  132OSM    C9S14274   2.076   5.040   5.680  0.3107 -0.6951  0.1830
  132OSM    H9S14275   2.008   5.069   5.763  0.1078 -2.8592  0.8203
  132OSM    H9T14276   2.055   4.932   5.670 -1.2097 -0.5722  1.6791
  132OSM   C10S14277   2.037   5.126   5.566  0.1014 -0.3551  1.3085
  132OSM   H10S14278   2.111   5.123   5.484 -0.5069  2.3777  0.5509
  132OSM   H10T14279   2.049   5.231   5.600  0.8071 -0.2152  0.6396
  132OSM   C11S14280   1.888   5.099   5.508 -0.0246  0.1764 -0.5520
  132OSM   H11S14281   1.822   5.154   5.578 -1.0286 -1.8908  0.2090
  132OSM   H11T14282   1.855   4.993   5.518  0.2772  0.1267 -0.0541
  132OSM   C12S14283   1.860   5.151   5.366  0.3133 -0.4258  0.3314
  132OSM   H12S14284   1.901   5.068   5.305  0.6919 -0.6625  0.8954
  132OSM   H12T14285   1.928   5.237   5.351 -0.5294  0.5679  1.9823
  132OSM   C13S14286   1.715   5.187   5.336 -0.0995  0.1006  0.3839
  132OSM   H13S14287   1.724   5.227   5.233  2.3956  1.3527  1.0195
  132OSM   H13T14288   1.675   5.266   5.404 -1.0866 -0.5261  0.5480
  132OSM   C14S14289   1.614   5.076   5.351 -0.2697  0.2440  0.2565
  132OSM   H14S14290   1.620   5.041   5.456  0.0802  0.6113  0.3617
  132OSM   H14T14291   1.633   4.999   5.273  0.5927  1.4251 -0.7645
  132OSM   C15S14292   1.466   5.122   5.330  0.5205 -0.7063  0.6627
  132OSM   H15S14293   1.471   5.200   5.251  0.4198 -0.4687  0.8906
  132OSM   H15T14294   1.418   5.178   5.413  0.4562  0.9427 -0.4522
  132OSM   C16S14295   1.367   5.011   5.290 -0.3420  0.4706  0.3197
  132OSM   H16S14296   1.417   4.946   5.215  0.2242  2.1580 -0.8118
  132OSM   H16T14297   1.267   5.046   5.258 -2.2540 -1.7012  3.3446
  132OSM   C17S14298   1.333   4.928   5.416  0.1895 -0.2032  0.9139
  132OSM   H17S14299   1.368   4.974   5.512  2.0460  1.1823 -0.3428
  132OSM   H17T14300   1.398   4.838   5.410  0.4124  0.0274 -0.3713
  132OSM   C18S14301   1.185   4.891   5.429  0.1781 -0.3519  0.7058
  132OSM   H18S14302   1.153   4.847   5.525 -2.0385  0.0121  0.1807
  132OSM   H18T14303   1.163   4.808   5.359  0.2923 -0.7606  1.1547
  132OSM   H18U14304   1.121   4.981   5.420 -0.8390 -1.0119  1.1717
  132OSM    C1F14305   2.240   4.456   5.970 -0.7806 -0.2490 -0.1703
  132OSM     OF14306   2.142   4.407   6.021 -0.0893  0.3841  0.0746
  132OSM    C2F14307   2.290   4.420   5.834 -0.2170 -0.3327 -0.3249
  132OSM    H2F14308   2.321   4.314   5.827  0.6319 -0.0982 -0.2720
  132OSM    H2G14309   2.374   4.486   5.802  0.8664 -1.3497  0.3440
  132OSM    C3F14310   2.182   4.454   5.728  0.1502 -0.4653  0.7215
  132OSM    H3F14311   2.176   4.564   5.717  1.9967 -0.3859  0.2007
  132OSM    H3G14312   2.085   4.406   5.752 -0.6895 -0.7116 -2.5860
  132OSM    C4F14313   2.206   4.391   5.585  1.1028  0.3320 -0.1835
  132OSM    H4F14314   2.115   4.394   5.521  0.8828  2.1215  0.1677
  132OSM    H4G14315   2.233   4.284   5.597 -1.5400 -0.3026  0.6678
  132OSM    C5F14316   2.314   4.460   5.500  0.5293  0.2550 -0.0203
  132OSM    H5F14317   2.415   4.452   5.546  0.2613 -0.3361  0.4722
  132OSM    H5G14318   2.285   4.567   5.508  0.8243  0.2299  1.5602
  132OSM    C6F14319   2.328   4.408   5.359  0.4576 -0.5550  0.5398
  132OSM    H6F14320   2.235   4.428   5.301  1.3434  1.7535 -0.1791
  132OSM    H6G14321   2.342   4.298   5.353 -0.2295 -0.8332  2.8952
  132OSM    C7F14322   2.443   4.483   5.282  0.2003 -0.1295 -0.4655
  132OSM    H7F14323   2.539   4.460   5.333  0.8425 -1.7029 -2.2577
  132OSM    H7G14324   2.430   4.593   5.286  0.7773 -0.0405  3.8312
  132OSM    C8F14325   2.452   4.415   5.140  0.7780 -0.0517 -0.4396
  132OSM    H8F14326   2.361   4.451   5.089 -1.2354 -1.3991  1.9824
  132OSM    H8G14327   2.432   4.306   5.146  0.8579 -0.0457  0.0143
  132OSM    C9F14328   2.582   4.454   5.075  0.2099  0.2299  0.8977
  132OSM    H9F14329   2.635   4.545   5.108  1.0388  1.1644 -2.5571
  132OSM   C10F14330   2.651   4.381   4.985 -0.2995  0.1874 -0.3013
  132OSM   H10F14331   2.747   4.427   4.957  0.9269  0.2188  3.3931
  132OSM   C11F14332   2.605   4.250   4.924  0.0516  0.4634 -0.3777
  132OSM   H11F14333   2.561   4.183   5.002 -0.4908  2.9012  1.5386
  132OSM   H11G14334   2.686   4.206   4.863 -1.6425 -0.2970 -2.2026
  132OSM   C12F14335   2.485   4.281   4.824  0.3262  0.3876 -0.0208
  132OSM   H12F14336   2.410   4.339   4.883 -0.5212  0.5880 -1.2709
  132OSM   H12G14337   2.436   4.187   4.790 -0.3113 -0.1148  2.1122
  132OSM   C13F14338   2.512   4.375   4.710 -0.1366  0.6032  0.0539
  132OSM   H13F14339   2.610   4.342   4.669 -1.4291 -2.0057 -1.1891
  132OSM   H13G14340   2.525   4.476   4.754  0.4335 -0.1771  1.7554
  132OSM   C14F14341   2.406   4.377   4.590  0.0711  0.1928  0.0645
  132OSM   H14F14342   2.397   4.271   4.559  0.0331  0.1561  0.2031
  132OSM   H14G14343   2.443   4.449   4.514 -0.3506 -0.2620 -0.5816
  132OSM   C15F14344   2.265   4.425   4.628  0.9788  0.5949 -0.0662
  132OSM   H15F14345   2.303   4.522   4.667  1.2748  1.3829 -2.1838
  132OSM   H15G14346   2.221   4.369   4.713  0.2951 -0.6430 -1.1893
  132OSM   C16F14347   2.159   4.424   4.514  0.9268  0.7960  0.4592
  132OSM   H16F14348   2.060   4.459   4.549 -1.0328 -0.7598 -3.0066
  132OSM   H16G14349   2.145   4.317   4.487  1.4052  1.4108 -2.5157
  132OSM   C17F14350   2.191   4.501   4.389  0.2268  0.9556 -0.1794
  132OSM   H17F14351   2.108   4.489   4.316 -1.6954  0.5902  1.9632
  132OSM   H17G14352   2.287   4.461   4.350 -0.2948 -0.1483 -0.3824
  132OSM   C18F14353   2.199   4.644   4.404 -1.3140  0.1518  0.0378
  132OSM   H18F14354   2.109   4.674   4.461 -0.5517  0.8901  0.8978
  132OSM   H18G14355   2.201   4.699   4.307 -0.5582 -2.6157 -1.6336
  132OSM   H18H14356   2.282   4.689   4.463 -0.6482  0.4720 -1.0957
  133OSM      N14357   4.176   6.028   6.748 -0.0634 -0.0638  0.3329
  133OSM    C1514358   4.032   6.057   6.712  0.3303  0.1229 -0.4200
  133OSM   H15A14359   4.018   6.134   6.637 -1.3818 -0.3942 -0.6723
  133OSM   H15B14360   3.983   6.100   6.798 -0.3483  1.0776 -1.2541
  133OSM   H15C14361   3.980   5.965   6.690  1.6861 -0.2173 -2.5177
  133OSM    C1414362   4.240   6.145   6.816  0.0890 -0.0769  0.7111
  133OSM   H14A14363   4.256   6.207   6.729  4.4610  0.8475  1.9273
  133OSM   H14B14364   4.331   6.118   6.867 -0.1981  0.9387  1.8078
  133OSM   H14C14365   4.173   6.195   6.886  1.8180 -1.3877  3.4848
  133OSM    C1314366   4.177   5.914   6.848  0.1166  0.7516 -0.0050
  133OSM   H13A14367   4.277   5.890   6.880 -0.4358 -1.1823  0.4711
  133OSM   H13B14368   4.120   5.838   6.797  0.8255 -0.6253  1.1764
  133OSM   H13C14369   4.125   5.943   6.938 -0.7916  0.2572 -0.3474
  133OSM    C1214370   4.252   5.980   6.629 -0.0688  0.3246  0.1121
  133OSM   H12A14371   4.229   5.876   6.612  1.1596 -0.0882  0.8545
  133OSM   H12B14372   4.354   5.960   6.659  0.0369 -1.5188 -1.3216
  133OSM    C1114373   4.265   6.074   6.506  0.2295 -0.4804 -0.5317
  133OSM   H11A14374   4.165   6.117   6.480  0.2973 -0.2589 -0.4258
  133OSM   H11B14375   4.299   6.023   6.413  1.2651  0.6615 -0.8157
  133OSM      P14376   4.502   6.193   6.531 -0.3325 -0.4978 -0.5015
  133OSM    O1314377   4.551   6.316   6.592  0.5824 -0.0629 -0.3263
  133OSM    O1414378   4.546   6.064   6.592 -0.0594  0.0586  0.3481
  133OSM    O1114379   4.544   6.189   6.382 -0.2296 -0.4290 -0.8266
  133OSM    O1214380   4.349   6.196   6.532 -0.0115  0.3692 -0.0966
  133OSM    C1S14381   4.628   6.288   6.332 -0.4064 -0.0257 -0.0324
  133OSM    H1S14382   4.731   6.251   6.350 -0.4392 -0.2174 -0.2387
  133OSM    H1T14383   4.622   6.392   6.373  0.2669 -0.5728  1.5337
  133OSM     NF14384   4.729   6.388   6.130  0.0003  0.1833 -0.1447
  133OSM    HNF14385   4.708   6.486   6.121 -1.2819  0.2947  2.8346
  133OSM    C2S14386   4.621   6.304   6.178 -0.3405  0.0195 -0.7534
  133OSM    H2S14387   4.630   6.199   6.141 -1.3196 -0.3708  0.0771
  133OSM    C3S14388   4.476   6.350   6.146 -0.4751 -0.6403 -0.8879
  133OSM    H3S14389   4.448   6.437   6.209 -0.5790 -1.4983  0.2803
  133OSM     O314390   4.371   6.262   6.187 -0.2689  0.2187  0.5502
  133OSM    HO314391   4.410   6.212   6.259 -1.6318  0.6002  1.5974
  133OSM    C4S14392   4.466   6.388   5.998  0.1754 -0.1570 -0.1698
  133OSM    H4S14393   4.461   6.497   5.982  2.1599  0.1849  1.0798
  133OSM    C5S14394   4.450   6.303   5.897 -1.3478  0.0576 -0.9403
  133OSM    H5S14395   4.454   6.198   5.929 -1.1928  0.6168  1.0467
  133OSM    C6S14396   4.439   6.352   5.753  0.0163  0.7322  0.5355
  133OSM    H6S14397   4.499   6.273   5.702  0.1053 -1.2070  3.4103
  133OSM    H6T14398   4.493   6.448   5.738  0.9165  0.0116 -1.0305
  133OSM    C7S14399   4.294   6.353   5.699 -0.6980  0.3370  0.0621
  133OSM    H7S14400   4.230   6.405   5.774 -3.1717  0.9445 -2.3264
  133OSM    H7T14401   4.250   6.253   5.680  2.5897 -1.1203 -0.7705
  133OSM    C8S14402   4.291   6.433   5.565  0.0722  0.2243 -0.0965
  133OSM    H8S14403   4.350   6.526   5.575  0.8917 -0.4266  1.6328
  133OSM    H8T14404   4.185   6.458   5.549 -0.6944 -3.0441 -0.9867
  133OSM    C9S14405   4.333   6.349   5.447 -0.3023 -0.7950 -0.2573
  133OSM    H9S14406   4.262   6.263   5.439  0.7672 -1.5263 -3.4284
  133OSM    H9T14407   4.438   6.321   5.469  0.1554  0.4932 -0.6917
  133OSM   C10S14408   4.323   6.431   5.316 -0.4721  0.1940 -0.0632
  133OSM   H10S14409   4.389   6.521   5.313  2.2588 -1.7105 -0.6277
  133OSM   H10T14410   4.214   6.452   5.309 -0.5048  1.0924  2.2143
  133OSM   C11S14411   4.355   6.337   5.199  0.4250  0.5119  0.1212
  133OSM   H11S14412   4.284   6.252   5.194  0.0028  0.8359  0.5546
  133OSM   H11T14413   4.455   6.290   5.205  0.4091 -0.0137 -2.4508
  133OSM   C12S14414   4.352   6.413   5.067 -0.5347 -0.3732 -0.4751
  133OSM   H12S14415   4.357   6.520   5.096  0.3547 -0.2530 -1.0525
  133OSM   H12T14416   4.251   6.396   5.025  0.5218 -0.8291 -2.9783
  133OSM   C13S14417   4.469   6.378   4.969 -0.1385 -0.5845 -0.4464
  133OSM   H13S14418   4.461   6.268   4.951 -2.4083 -0.2915 -1.5295
  133OSM   H13T14419   4.557   6.397   5.034  0.7025  4.1749 -2.6216
  133OSM   C14S14420   4.470   6.432   4.824  0.4165  0.0299 -0.3753
  133OSM   H14S14421   4.488   6.541   4.835  1.6697 -0.4041  3.4143
  133OSM   H14T14422   4.382   6.398   4.766 -0.6970  1.1132  0.6360
  133OSM   C15S14423   4.591   6.375   4.755  0.4364  0.5283  0.0909
  133OSM   H15S14424   4.599   6.264   4.765  2.0038  0.7114  1.1724
  133OSM   H15T14425   4.673   6.421   4.814 -0.6783  2.3357  0.3133
  133OSM   C16S14426   4.606   6.411   4.610  0.3973  0.4930 -0.0917
  133OSM   H16S14427   4.509   6.391   4.560 -0.9500  1.1331  2.1530
  133OSM   H16T14428   4.675   6.338   4.561  0.2129  0.1837  0.1038
  133OSM   C17S14429   4.652   6.558   4.581  0.2209 -0.4157 -0.6541
  133OSM   H17S14430   4.572   6.629   4.608 -0.6669 -0.8650 -1.9821
  133OSM   H17T14431   4.645   6.563   4.470 -1.3318  1.0457 -0.5218
  133OSM   C18S14432   4.795   6.588   4.635  0.1262  0.2000  0.4730
  133OSM   H18S14433   4.864   6.516   4.586 -0.0035  0.3375  0.0897
  133OSM   H18T14434   4.799   6.588   4.746  1.6345  1.1640  0.4343
  133OSM   H18U14435   4.831   6.690   4.610  0.7051 -0.3632 -1.0658
  133OSM    C1F14436   4.858   6.341   6.125 -0.0155  0.0011 -0.4288
  133OSM     OF14437   4.892   6.224   6.158  0.4846  0.3628 -0.2177
  133OSM    C2F14438   4.950   6.452   6.075  0.7095 -0.3281 -0.2310
  133OSM    H2F14439   5.018   6.467   6.162 -1.3246  0.1783  1.3544
  133OSM    H2G14440   4.901   6.543   6.035  1.3473 -0.9869 -2.6491
  133OSM    C3F14441   5.027   6.390   5.957  0.1695 -0.6665  0.8476
  133OSM    H3F14442   5.079   6.296   5.982  0.0932 -0.2300  2.7551
  133OSM    H3G14443   5.110   6.458   5.928  0.0038 -1.7914 -2.8051
  133OSM    C4F14444   4.942   6.387   5.826 -0.0605  0.5486 -0.3268
  133OSM    H4F14445   4.918   6.490   5.790 -1.5572  0.4039  0.1769
  133OSM    H4G14446   4.842   6.341   5.835 -1.0730  2.5947 -0.5258
  133OSM    C5F14447   5.021   6.309   5.716 -0.3606  0.3676 -0.0275
  133OSM    H5F14448   5.082   6.231   5.767 -1.5200 -0.2504  0.4407
  133OSM    H5G14449   5.100   6.371   5.667  0.0666 -1.7162 -2.1307
  133OSM    C6F14450   4.933   6.251   5.609  0.2354  0.1707  0.2094
  133OSM    H6F14451   4.855   6.185   5.652  0.2286  0.9996  1.5216
  133OSM    H6G14452   5.003   6.183   5.556  3.3844  1.7564  2.0887
  133OSM    C7F14453   4.885   6.356   5.503  0.4207  0.3460 -1.2181
  133OSM    H7F14454   4.967   6.376   5.432 -0.3511 -0.4734 -2.3846
  133OSM    H7G14455   4.881   6.445   5.569  0.3395 -0.0310 -0.7020
  133OSM    C8F14456   4.758   6.308   5.446  0.0166  0.4082 -0.2664
  133OSM    H8F14457   4.683   6.319   5.527 -0.2690 -0.2248 -0.4375
  133OSM    H8G14458   4.759   6.199   5.426 -1.5533  0.5318 -1.2274
  133OSM    C9F14459   4.727   6.396   5.328  0.1473 -0.7735  0.8002
  133OSM    H9F14460   4.659   6.480   5.344 -0.2533 -0.7321 -0.9396
  133OSM   C10F14461   4.783   6.383   5.208  1.2131  0.0832 -0.3819
  133OSM   H10F14462   4.752   6.450   5.126 -1.6722  0.0729  0.6106
  133OSM   C11F14463   4.876   6.281   5.158  0.4982  0.1934  0.5563
  133OSM   H11F14464   4.865   6.185   5.213 -1.6708 -0.6441 -1.1963
  133OSM   H11G14465   4.980   6.314   5.175  0.8110 -1.4729  2.2907
  133OSM   C12F14466   4.859   6.239   5.006  0.2712 -0.0958 -0.0412
  133OSM   H12F14467   4.752   6.237   4.976  1.3882  0.0273 -4.7546
  133OSM   H12G14468   4.897   6.139   4.975  0.6511  0.3226 -0.9621
  133OSM   C13F14469   4.919   6.338   4.911  0.7490 -0.7432  0.6933
  133OSM   H13F14470   4.885   6.437   4.950 -0.5626 -1.4322  1.3466
  133OSM   H13G14471   4.884   6.307   4.810  0.9908  0.6277  0.1592
  133OSM   C14F14472   5.071   6.338   4.915 -0.5712 -0.7345  0.3455
  133OSM   H14F14473   5.113   6.238   4.940  0.3700 -0.5291 -0.3346
  133OSM   H14G14474   5.112   6.408   4.991 -2.5068  1.9355 -0.8867
  133OSM   C15F14475   5.137   6.373   4.775  0.8515 -0.3201  0.0491
  133OSM   H15F14476   5.238   6.412   4.800  1.0990 -1.0436  0.2012
  133OSM   H15G14477   5.086   6.456   4.722  1.3007 -0.6864 -0.9864
  133OSM   C16F14478   5.147   6.252   4.682  0.1740 -0.5543  0.6223
  133OSM   H16F14479   5.052   6.197   4.701  1.0380 -1.6725  1.8779
  133OSM   H16G14480   5.227   6.186   4.721 -0.7065 -1.1471  1.4549
  133OSM   C17F14481   5.184   6.288   4.532  0.2021 -0.7839  0.0172
  133OSM   H17F14482   5.260   6.366   4.553 -2.9123  1.6211  3.7164
  133OSM   H17G14483   5.101   6.341   4.481 -1.1988 -2.3040  0.6217
  133OSM   C18F14484   5.223   6.174   4.437 -0.1563 -0.3601  0.6425
  133OSM   H18F14485   5.144   6.097   4.426 -0.0027 -0.4713  0.2904
  133OSM   H18G14486   5.320   6.128   4.467  0.3658  1.2720  1.5577
  133OSM   H18H14487   5.241   6.209   4.333 -1.8566 -0.8216  0.1631
  134OSM      N14488   3.623   5.521   6.693  0.3109 -0.5523  0.3575
  134OSM    C1514489   3.591   5.671   6.704  0.3235  0.3541 -0.0646
  134OSM   H15A14490   3.676   5.733   6.678  1.4131  0.4238  3.2092
  134OSM   H15B14491   3.554   5.697   6.802 -2.1212  1.1404 -1.1195
  134OSM   H15C14492   3.507   5.702   6.644  0.2925 -1.4115 -0.9748
  134OSM    C1414493   3.719   5.487   6.800 -0.3557 -1.0663 -0.2520
  134OSM   H14A14494   3.770   5.397   6.770  0.6085 -0.7836  0.4818
  134OSM   H14B14495   3.671   5.484   6.896  0.3644  1.0697  0.2202
  134OSM   H14C14496   3.793   5.565   6.797  0.3641 -1.7538 -0.7889
  134OSM    C1314497   3.497   5.452   6.721  0.5960 -0.0530  0.0624
  134OSM   H13A14498   3.432   5.474   6.637 -0.9299  2.1476  1.7207
  134OSM   H13B14499   3.434   5.488   6.801 -0.3227  1.5951 -1.3320
  134OSM   H13C14500   3.515   5.346   6.730  1.0450  0.0198  0.0128
  134OSM    C1214501   3.673   5.479   6.556 -0.2998 -0.3054  0.2918
  134OSM   H12A14502   3.595   5.465   6.483 -0.6881 -1.3639  0.8966
  134OSM   H12B14503   3.720   5.382   6.564  0.1789 -0.1068 -0.0487
  134OSM    C1114504   3.775   5.581   6.487  0.2559  1.1674  0.7277
  134OSM   H11A14505   3.729   5.681   6.476  1.2788  1.7163  1.3368
  134OSM   H11B14506   3.781   5.537   6.385  0.5997  0.4060  1.0695
  134OSM      P14507   3.958   5.712   6.618 -0.3249 -0.2849 -0.1327
  134OSM    O1314508   3.855   5.821   6.641 -0.1988  0.3817 -0.4940
  134OSM    O1414509   4.029   5.669   6.736  0.3498  0.0833  0.1090
  134OSM    O1114510   4.067   5.764   6.513 -0.0126  0.0686 -0.1937
  134OSM    O1214511   3.904   5.585   6.549  0.1108 -0.4216  0.0123
  134OSM    C1S14512   4.160   5.691   6.433 -0.0153  0.0261 -0.2702
  134OSM    H1S14513   4.186   5.600   6.492  2.8961  1.8711  1.5121
  134OSM    H1T14514   4.250   5.755   6.431 -0.7822  1.1161 -1.7382
  134OSM     NF14515   4.219   5.591   6.221 -0.5098  0.3228  0.1703
  134OSM    HNF14516   4.281   5.637   6.158  1.3672 -0.7511  1.1472
  134OSM    C2S14517   4.115   5.672   6.285 -0.1424 -0.0457  0.3632
  134OSM    H2S14518   4.027   5.604   6.285  0.9402 -1.5140  0.8117
  134OSM    C3S14519   4.071   5.800   6.217 -0.2982  0.6036  0.0825
  134OSM    H3S14520   4.161   5.864   6.204  0.7390 -0.4688  1.6409
  134OSM     O314521   3.990   5.889   6.297  0.0121  0.1589 -0.4003
  134OSM    HO314522   4.014   5.861   6.386  1.7468  4.3877  0.6772
  134OSM    C4S14523   4.014   5.782   6.080  0.1084  0.5128 -0.3412
  134OSM    H4S14524   4.086   5.807   6.000  1.4987 -1.0547  0.3727
  134OSM    C5S14525   3.900   5.721   6.039  1.0504  0.2733 -0.0163
  134OSM    H5S14526   3.844   5.662   6.114 -0.4692  0.8511 -0.6531
  134OSM    C6S14527   3.844   5.686   5.902  0.6321 -0.3525  0.0543
  134OSM    H6S14528   3.734   5.689   5.918  0.8096 -0.0446  1.3152
  134OSM    H6T14529   3.855   5.580   5.871 -2.8013 -0.9087  0.3178
  134OSM    C7S14530   3.867   5.780   5.781  0.5868 -0.2742 -0.6854
  134OSM    H7S14531   3.971   5.784   5.743  1.0080  2.2176  0.5351
  134OSM    H7T14532   3.843   5.882   5.817 -1.0781 -0.2629 -1.7187
  134OSM    C8S14533   3.783   5.750   5.660  0.3247  0.2624  0.1204
  134OSM    H8S14534   3.676   5.766   5.684  0.5421  2.3943 -0.1248
  134OSM    H8T14535   3.795   5.640   5.650 -1.0285  0.1354 -0.2828
  134OSM    C9S14536   3.816   5.819   5.527  0.0862 -0.3975 -0.6886
  134OSM    H9S14537   3.927   5.821   5.518  0.2152  0.0703  0.7576
  134OSM    H9T14538   3.798   5.928   5.526 -1.2994 -0.6065 -0.2339
  134OSM   C10S14539   3.742   5.755   5.410  0.0389 -0.1558 -0.8092
  134OSM   H10S14540   3.648   5.708   5.443 -0.6319  1.4441 -0.3644
  134OSM   H10T14541   3.807   5.668   5.386  1.5187  0.2180  1.5784
  134OSM   C11S14542   3.716   5.850   5.291  0.3701  0.4812 -0.5271
  134OSM   H11S14543   3.802   5.862   5.222  0.9604 -0.7765 -0.0443
  134OSM   H11T14544   3.690   5.951   5.330  3.8339  0.1159  3.5184
  134OSM   C12S14545   3.603   5.782   5.210 -0.1733 -0.7695  0.9122
  134OSM   H12S14546   3.516   5.810   5.272 -0.4219  2.9753 -0.8658
  134OSM   H12T14547   3.617   5.672   5.200  1.6439 -0.4035 -1.5857
  134OSM   C13S14548   3.594   5.851   5.076 -0.3442  0.5458  0.4261
  134OSM   H13S14549   3.625   5.958   5.076  0.8853  0.2092 -0.7012
  134OSM   H13T14550   3.486   5.850   5.050 -0.4542 -1.3345  0.8323
  134OSM   C14S14551   3.680   5.786   4.962 -0.0074 -0.5856  0.0944
  134OSM   H14S14552   3.614   5.709   4.917  0.1128 -0.3497 -0.4934
  134OSM   H14T14553   3.767   5.734   5.009  0.8226  0.1586 -0.5829
  134OSM   C15S14554   3.740   5.886   4.859  0.1309  0.1578  0.6496
  134OSM   H15S14555   3.815   5.947   4.915  0.6343 -3.4508  4.3837
  134OSM   H15T14556   3.656   5.941   4.812  0.3685 -1.1705 -1.4613
  134OSM   C16S14557   3.803   5.813   4.751  0.3056  1.7399 -0.0843
  134OSM   H16S14558   3.722   5.759   4.697  1.2652 -0.8294  0.8733
  134OSM   H16T14559   3.862   5.735   4.805  0.3423  0.4736 -1.8532
  134OSM   C17S14560   3.885   5.899   4.657  0.8218 -0.5240 -0.2564
  134OSM   H17S14561   3.966   5.937   4.723  0.5116  0.2369 -0.2944
  134OSM   H17T14562   3.823   5.987   4.628  0.9146  0.8903  3.3462
  134OSM   C18S14563   3.937   5.824   4.531  0.3799 -0.5531  0.4122
  134OSM   H18S14564   4.015   5.885   4.479 -1.2134  2.4750  1.3294
  134OSM   H18T14565   3.855   5.815   4.457  0.4484  0.4040  0.2010
  134OSM   H18U14566   3.966   5.719   4.548 -2.2887 -1.4766 -0.2803
  134OSM    C1F14567   4.241   5.457   6.248  0.3661 -0.5717 -0.8584
  134OSM     OF14568   4.182   5.395   6.333  0.3429  0.2278  0.4604
  134OSM    C2F14569   4.345   5.383   6.168 -0.2549 -0.1385  0.5922
  134OSM    H2F14570   4.336   5.273   6.178  0.4171 -0.3470 -0.9311
  134OSM    H2G14571   4.446   5.399   6.212 -1.0176  2.3589  1.5970
  134OSM    C3F14572   4.347   5.434   6.028  0.6221  0.1736  0.4669
  134OSM    H3F14573   4.422   5.393   5.956  0.0524 -1.4763  0.7696
  134OSM    H3G14574   4.363   5.543   6.016  0.4872  0.0666 -0.9091
  134OSM    C4F14575   4.217   5.394   5.953 -0.1423  0.2451  0.4992
  134OSM    H4F14576   4.129   5.429   6.010 -0.6370  0.7314 -0.5537
  134OSM    H4G14577   4.210   5.283   5.951 -0.7728  0.2988 -0.6936
  134OSM    C5F14578   4.211   5.463   5.812  0.3114  0.6178  0.0480
  134OSM    H5F14579   4.304   5.430   5.760  0.1623 -0.1649  0.2729
  134OSM    H5G14580   4.223   5.574   5.811  1.4868  0.5160 -1.3335
  134OSM    C6F14581   4.087   5.424   5.723 -0.3956  0.0345  0.8899
  134OSM    H6F14582   4.000   5.480   5.764 -0.0361  0.5583  0.9465
  134OSM    H6G14583   4.068   5.315   5.726  0.1255 -0.0389  2.1375
  134OSM    C7F14584   4.093   5.483   5.581 -0.0009 -0.1719 -0.0026
  134OSM    H7F14585   4.193   5.465   5.536 -0.7438  0.7826 -2.1656
  134OSM    H7G14586   4.082   5.592   5.601 -1.3667 -0.4428  0.8851
  134OSM    C8F14587   3.982   5.441   5.484  0.1127 -0.1009 -0.0150
  134OSM    H8F14588   3.884   5.484   5.514  0.4138  0.1024  0.7101
  134OSM    H8G14589   3.984   5.330   5.484 -1.3404 -0.1778 -2.1598
  134OSM    C9F14590   4.026   5.495   5.355 -0.6686 -0.7075  0.1465
  134OSM    H9F14591   4.089   5.584   5.369  0.7763 -1.2993 -2.0263
  134OSM   C10F14592   4.022   5.444   5.227  0.5072 -0.9160 -0.3029
  134OSM   H10F14593   4.054   5.500   5.137 -0.1970 -0.6730 -0.4056
  134OSM   C11F14594   3.960   5.314   5.195  0.3915 -0.0630  0.4591
  134OSM   H11F14595   3.954   5.247   5.284  1.4043  0.9613  1.3301
  134OSM   H11G14596   4.032   5.260   5.130  0.4717  0.4727  0.1027
  134OSM   C12F14597   3.826   5.341   5.125 -0.3538 -0.4338  0.6674
  134OSM   H12F14598   3.759   5.423   5.159 -1.2398 -0.2687 -1.3163
  134OSM   H12G14599   3.773   5.246   5.146  0.8367 -0.5515  3.5661
  134OSM   C13F14600   3.845   5.369   4.973  0.1863  0.0389  0.9912
  134OSM   H13F14601   3.910   5.292   4.925 -1.1514  0.5679 -1.8382
  134OSM   H13G14602   3.893   5.469   4.959 -1.1373  0.8476  2.0654
  134OSM   C14F14603   3.710   5.388   4.893 -0.5775  0.2462 -1.1481
  134OSM   H14F14604   3.656   5.458   4.961  0.9716  0.3438  0.0597
  134OSM   H14G14605   3.652   5.294   4.902 -2.3103  1.3960  0.6873
  134OSM   C15F14606   3.733   5.413   4.742  0.9753 -0.6541 -0.3258
  134OSM   H15F14607   3.798   5.333   4.700  4.4994  1.5075  0.5931
  134OSM   H15G14608   3.803   5.499   4.736  2.0022 -1.3256  1.3558
  134OSM   C16F14609   3.605   5.442   4.671  0.2635 -0.0871  0.3790
  134OSM   H16F14610   3.566   5.535   4.717 -2.4888 -0.6312 -0.6816
  134OSM   H16G14611   3.531   5.364   4.700  1.0180 -0.0622  2.6328
  134OSM   C17F14612   3.614   5.470   4.521  0.5478  0.0120  0.8164
  134OSM   H17F14613   3.684   5.556   4.510  0.4105  0.0164 -0.1413
  134OSM   H17G14614   3.519   5.499   4.473  2.1538 -0.2677 -2.9123
  134OSM   C18F14615   3.661   5.353   4.432 -0.8338 -1.0396  0.1289
  134OSM   H18F14616   3.675   5.386   4.327 -1.3878 -2.5660 -0.4495
  134OSM   H18G14617   3.594   5.265   4.439 -1.0114 -0.8241  1.2514
  134OSM   H18H14618   3.764   5.321   4.461 -0.5491 -1.6460 -1.4491
  135OSM      N14619   1.967   3.401   6.749  0.3863  0.2220  0.4954
  135OSM    C1514620   1.880   3.347   6.857  0.0702 -0.5295 -0.4375
  135OSM   H15A14621   1.849   3.247   6.831  1.3210 -0.9856 -0.2347
  135OSM   H15B14622   1.791   3.408   6.866  1.2220  1.0292  1.3162
  135OSM   H15C14623   1.929   3.354   6.953 -0.3238  1.5104 -0.3438
  135OSM    C1414624   2.004   3.543   6.776  0.1151  0.5278  0.2358
  135OSM   H14A14625   2.064   3.559   6.865  1.8564  0.6613 -0.9135
  135OSM   H14B14626   1.917   3.606   6.783 -2.4093 -2.5187 -1.6232
  135OSM   H14C14627   2.067   3.586   6.699 -0.6525  1.0696 -0.1031
  135OSM    C1314628   2.086   3.315   6.746 -0.3566  0.3170 -0.5934
  135OSM   H13A14629   2.151   3.342   6.665  0.6330  0.4637  0.2373
  135OSM   H13B14630   2.054   3.213   6.729 -1.1100  0.7863 -2.1888
  135OSM   H13C14631   2.148   3.334   6.832  0.1398 -0.0291 -0.8670
  135OSM    C1214632   1.897   3.389   6.617  0.1712 -0.1893  0.1349
  135OSM   H12A14633   1.831   3.474   6.615 -0.5372 -0.6826  1.6079
  135OSM   H12B14634   1.837   3.299   6.606 -3.6332  2.3067 -1.7142
  135OSM    C1114635   1.982   3.390   6.490 -0.7136 -0.0358  1.3025
  135OSM   H11A14636   1.914   3.388   6.403  0.0655  0.4199  0.6710
  135OSM   H11B14637   2.044   3.297   6.487  0.2717  0.6218 -0.5732
  135OSM      P14638   2.021   3.643   6.415  0.1305  0.3283 -0.1042
  135OSM    O1314639   1.996   3.741   6.526  0.9095  0.0955  0.5862
  135OSM    O1414640   2.122   3.677   6.316 -0.2466 -0.1987  0.1149
  135OSM    O1114641   1.881   3.610   6.344 -0.3906  0.4042 -0.3988
  135OSM    O1214642   2.073   3.506   6.473 -0.3477  0.2118 -0.0097
  135OSM    C1S14643   1.830   3.695   6.242 -0.0787  0.1810  0.5335
  135OSM    H1S14644   1.873   3.797   6.243 -2.7084  1.3551 -0.2124
  135OSM    H1T14645   1.722   3.708   6.264 -0.3286 -0.4461 -0.2810
  135OSM     NF14646   1.800   3.743   5.990 -0.2818  0.0318 -0.5790
  135OSM    HNF14647   1.703   3.748   5.966 -0.5426 -2.1690 -0.2000
  135OSM    C2S14648   1.836   3.641   6.092  0.7358 -0.1557  0.1890
  135OSM    H2S14649   1.944   3.621   6.073  0.6951  0.4582 -0.7824
  135OSM    C3S14650   1.755   3.508   6.079  0.0860  0.0594 -0.0582
  135OSM    H3S14651   1.645   3.524   6.075  0.4542  2.8194 -1.1214
  135OSM     O314652   1.774   3.415   6.189  0.4312 -0.1530 -0.0988
  135OSM    HO314653   1.822   3.464   6.256 -2.7913  2.5710  0.4487
  135OSM    C4S14654   1.782   3.444   5.944 -0.0090 -0.2272  0.6256
  135OSM    H4S14655   1.723   3.484   5.860  0.2673 -1.5493 -0.2189
  135OSM    C5S14656   1.880   3.356   5.923 -0.1669 -0.1301  0.1374
  135OSM    H5S14657   1.936   3.327   6.013 -0.2058  2.2088  0.9730
  135OSM    C6S14658   1.927   3.291   5.795 -0.3910  0.1808  0.6670
  135OSM    H6S14659   1.920   3.181   5.788  1.4550  0.1474 -2.0227
  135OSM    H6T14660   2.035   3.308   5.775 -0.3720 -0.8390 -0.1623
  135OSM    C7S14661   1.855   3.341   5.667 -0.4660 -0.5694 -0.5721
  135OSM    H7S14662   1.837   3.448   5.690  2.3910  0.0169 -0.6537
  135OSM    H7T14663   1.756   3.292   5.667 -0.3972 -0.9195  2.5607
  135OSM    C8S14664   1.935   3.333   5.542 -0.0662  0.1021  0.6383
  135OSM    H8S14665   1.961   3.227   5.524 -1.0915 -0.1339  0.4730
  135OSM    H8T14666   2.031   3.386   5.560  0.2363 -0.2125 -0.0135
  135OSM    C9S14667   1.870   3.390   5.413  0.4200 -0.3684 -0.4420
  135OSM    H9S14668   1.861   3.500   5.421 -1.7623 -0.6587  2.9684
  135OSM    H9T14669   1.770   3.342   5.418  0.5241 -0.5460  0.0192
  135OSM   C10S14670   1.941   3.345   5.284 -0.2786 -0.2196 -0.8809
  135OSM   H10S14671   1.953   3.235   5.290 -0.6464 -0.2781 -1.1850
  135OSM   H10T14672   2.044   3.386   5.283  0.0673 -0.9662  0.7568
  135OSM   C11S14673   1.871   3.386   5.162 -0.3262 -0.1289  0.8020
  135OSM   H11S14674   1.871   3.497   5.162 -1.0153 -0.1177  0.1642
  135OSM   H11T14675   1.764   3.354   5.158  0.4083 -2.7887  0.6151
  135OSM   C12S14676   1.951   3.345   5.038 -0.5172  0.7580  0.4492
  135OSM   H12S14677   1.945   3.235   5.043  1.1830  0.6093 -0.0513
  135OSM   H12T14678   2.058   3.375   5.027 -0.4799  1.1729  1.7216
  135OSM   C13S14679   1.873   3.393   4.916 -0.5251 -0.5674  0.2789
  135OSM   H13S14680   1.825   3.493   4.916  0.1884 -0.1480 -2.5637
  135OSM   H13T14681   1.788   3.326   4.891  0.4770 -1.0802 -2.0733
  135OSM   C14S14682   1.957   3.379   4.785 -0.5869 -0.2895  0.2471
  135OSM   H14S14683   1.970   3.271   4.766  1.3809 -0.1029  0.2830
  135OSM   H14T14684   2.058   3.425   4.798 -0.7415 -0.3675  2.0359
  135OSM   C15S14685   1.890   3.461   4.672  0.0579  0.0374 -0.1868
  135OSM   H15S14686   1.894   3.566   4.707  1.0845  0.0165 -0.2200
  135OSM   H15T14687   1.787   3.421   4.663  0.3630 -0.7859 -0.1330
  135OSM   C16S14688   1.964   3.453   4.531  0.1220  0.5332 -0.1276
  135OSM   H16S14689   1.904   3.514   4.460 -0.2455 -0.5145 -0.7230
  135OSM   H16T14690   1.957   3.345   4.508  1.0273  0.5336 -0.4295
  135OSM   C17S14691   2.112   3.503   4.536 -0.2425 -0.3172  0.2405
  135OSM   H17S14692   2.164   3.450   4.618 -1.5954 -0.3515  1.1135
  135OSM   H17T14693   2.108   3.612   4.559 -1.0183 -0.0514 -1.0534
  135OSM   C18S14694   2.189   3.511   4.403  0.8398  0.3916  1.6632
  135OSM   H18S14695   2.297   3.530   4.420  2.1737 -4.2341 -0.1598
  135OSM   H18T14696   2.148   3.597   4.346  0.5011 -1.9237 -1.8709
  135OSM   H18U14697   2.176   3.421   4.340  3.5146  1.5874 -0.7864
  135OSM    C1F14698   1.882   3.845   5.958  0.1314  0.2416 -0.2791
  135OSM     OF14699   1.996   3.835   6.007 -0.0389 -0.3357 -0.3990
  135OSM    C2F14700   1.824   3.955   5.871  0.7102 -0.6522  1.0854
  135OSM    H2F14701   1.719   3.957   5.908  0.4758 -1.0223  0.4692
  135OSM    H2G14702   1.817   3.912   5.769 -1.4454  2.3892 -0.1891
  135OSM    C3F14703   1.896   4.083   5.870  0.4008 -0.1303  0.1861
  135OSM    H3F14704   2.007   4.068   5.871  0.6214  0.2411  4.8219
  135OSM    H3G14705   1.886   4.129   5.971  3.4143 -0.6617  0.8445
  135OSM    C4F14706   1.843   4.186   5.771  0.4596 -0.0572  0.3035
  135OSM    H4F14707   1.735   4.209   5.772  0.5346  0.3063  0.3123
  135OSM    H4G14708   1.906   4.277   5.781  0.1426  0.2062 -0.0847
  135OSM    C5F14709   1.865   4.154   5.621  0.4678 -0.0278 -0.3171
  135OSM    H5F14710   1.815   4.057   5.596  1.6103  0.3184 -4.7613
  135OSM    H5G14711   1.971   4.128   5.600 -0.3569 -3.0340 -1.2466
  135OSM    C6F14712   1.803   4.246   5.517  0.0312 -0.8723  0.3069
  135OSM    H6F14713   1.830   4.352   5.538  0.5469 -0.9725  0.1591
  135OSM    H6G14714   1.695   4.261   5.541  0.4308  0.3681  1.5020
  135OSM    C7F14715   1.821   4.218   5.369 -1.2366 -0.5441  1.0038
  135OSM    H7F14716   1.788   4.112   5.362  2.8450 -1.8760 -0.8682
  135OSM    H7G14717   1.931   4.228   5.355 -1.2277 -1.0671  0.6778
  135OSM    C8F14718   1.732   4.299   5.273  0.5166  0.3216  0.1061
  135OSM    H8F14719   1.762   4.406   5.280  0.9395  0.2075  0.0626
  135OSM    H8G14720   1.633   4.285   5.320  1.0438 -1.6330  0.7134
  135OSM    C9F14721   1.754   4.249   5.133 -0.5335  0.4813 -0.0114
  135OSM    H9F14722   1.855   4.274   5.099  0.5219 -2.0141  1.0790
  135OSM   C10F14723   1.659   4.184   5.060  0.1254  0.2631  0.6332
  135OSM   H10F14724   1.695   4.160   4.959 -1.5084  2.2506 -0.5030
  135OSM   C11F14725   1.522   4.146   5.093 -0.2822 -0.4845 -0.0607
  135OSM   H11F14726   1.453   4.194   5.020  0.5294  2.7692  1.1677
  135OSM   H11G14727   1.499   4.187   5.194  0.1266  1.0195 -0.5547
  135OSM   C12F14728   1.516   3.992   5.076  0.3145 -0.5175 -0.0450
  135OSM   H12F14729   1.611   3.946   5.110  1.6886  0.4580 -2.3770
  135OSM   H12G14730   1.505   3.982   4.966 -0.4053 -1.5956  0.1030
  135OSM   C13F14731   1.398   3.923   5.141 -1.1615  0.1323 -0.3991
  135OSM   H13F14732   1.411   3.817   5.111  1.8750  0.2463  0.1562
  135OSM   H13G14733   1.303   3.955   5.092 -0.4064  3.0646 -0.1889
  135OSM   C14F14734   1.381   3.920   5.295 -0.9901 -0.2987 -0.3013
  135OSM   H14F14735   1.302   3.847   5.322  0.2964 -1.7360 -0.2753
  135OSM   H14G14736   1.345   4.019   5.331  0.0913  0.7633 -1.9914
  135OSM   C15F14737   1.504   3.873   5.385 -0.6949 -0.3796  0.3043
  135OSM   H15F14738   1.578   3.955   5.378 -0.6273 -0.4711 -0.0410
  135OSM   H15G14739   1.551   3.779   5.347  3.1913  0.8721  1.5377
  135OSM   C16F14740   1.468   3.861   5.534 -0.2379 -0.2508 -0.6008
  135OSM   H16F14741   1.390   3.789   5.566 -0.3316 -0.6568 -1.7165
  135OSM   H16G14742   1.419   3.959   5.554 -0.4749 -0.1194 -1.7335
  135OSM   C17F14743   1.590   3.823   5.616  0.0816 -0.2692 -0.1201
  135OSM   H17F14744   1.563   3.863   5.716  0.6115  0.9283 -0.4349
  135OSM   H17G14745   1.674   3.890   5.589 -0.6689  0.3185 -1.0684
  135OSM   C18F14746   1.645   3.677   5.616 -0.5485 -0.0094 -0.3306
  135OSM   H18F14747   1.684   3.656   5.514 -3.2077  0.9877 -1.6630
  135OSM   H18G14748   1.566   3.602   5.634  0.3521 -0.6359  1.1297
  135OSM   H18H14749   1.721   3.675   5.697  1.6841  2.0672 -2.1949
  136OSM      N14750   0.506   3.217   6.935 -0.3445  0.2986 -0.2165
  136OSM    C1514751   0.402   3.256   6.847 -0.0518 -0.0785  0.5955
  136OSM   H15A14752   0.392   3.362   6.865 -0.3676  0.1809 -0.9640
  136OSM   H15B14753   0.306   3.211   6.870  0.5567 -0.5497  2.4009
  136OSM   H15C14754   0.420   3.239   6.742  1.9593  1.7490  0.5794
  136OSM    C1414755   0.496   3.296   7.065 -0.0231  0.4122  0.2059
  136OSM   H14A14756   0.402   3.282   7.115 -0.5555 -0.9568 -1.1256
  136OSM   H14B14757   0.500   3.403   7.051  2.0327  0.4647  0.8227
  136OSM   H14C14758   0.576   3.279   7.135 -0.5589 -0.9842  0.4963
  136OSM    C1314759   0.492   3.067   6.962  0.3883  0.0811  0.1785
  136OSM   H13A14760   0.408   3.041   7.024  0.1808 -0.3611 -0.2832
  136OSM   H13B14761   0.586   3.033   7.002  1.3457  0.8095 -1.3713
  136OSM   H13C14762   0.471   3.019   6.868  3.3728  0.3364 -0.7235
  136OSM    C1214763   0.646   3.251   6.875  0.0596 -0.1869  0.1001
  136OSM   H12A14764   0.724   3.247   6.950  0.4169  1.7666 -0.0861
  136OSM   H12B14765   0.630   3.357   6.857 -1.5066 -0.1028  1.7215
  136OSM    C1114766   0.680   3.185   6.740  0.0916  0.7054 -0.0688
  136OSM   H11A14767   0.670   3.075   6.740 -3.5191  0.8983  0.1074
  136OSM   H11B14768   0.786   3.212   6.719 -0.1678  1.1714 -0.8476
  136OSM      P14769   0.647   3.371   6.562 -0.2295 -0.2143  0.1430
  136OSM    O1314770   0.534   3.416   6.486  0.0904 -0.2693  0.3113
  136OSM    O1414771   0.692   3.459   6.675 -0.3657  0.2395  0.3880
  136OSM    O1114772   0.765   3.323   6.469 -0.1542 -0.5339  0.0129
  136OSM    O1214773   0.598   3.237   6.634 -0.4399  0.0107  0.6865
  136OSM    C1S14774   0.748   3.203   6.390  0.7676  0.0480 -0.8160
  136OSM    H1S14775   0.677   3.125   6.426  1.0726  0.0024 -0.3037
  136OSM    H1T14776   0.845   3.150   6.404  0.8006  0.2083 -0.4312
  136OSM     NF14777   0.682   3.105   6.171 -0.5801 -0.5416  0.1105
  136OSM    HNF14778   0.766   3.059   6.145  0.8192  3.5474 -3.8850
  136OSM    C2S14779   0.716   3.234   6.238 -0.1365  0.4018  0.1846
  136OSM    H2S14780   0.622   3.294   6.235 -2.3969 -2.8064  1.3788
  136OSM    C3S14781   0.821   3.319   6.159  0.4654  0.6261  0.0514
  136OSM    H3S14782   0.916   3.261   6.163 -0.5597 -1.0974  0.2715
  136OSM     O314783   0.847   3.447   6.217 -0.0607 -0.0326 -0.0040
  136OSM    HO314784   0.798   3.435   6.299  0.1445 -2.4332 -0.1760
  136OSM    C4S14785   0.788   3.327   6.016 -0.2503 -0.2936  0.4507
  136OSM    H4S14786   0.848   3.252   5.963 -0.3515  0.2934 -0.5085
  136OSM    C5S14787   0.712   3.417   5.949 -0.6023 -0.0583  0.7767
  136OSM    H5S14788   0.653   3.485   6.011 -0.0505 -0.5963  1.9344
  136OSM    C6S14789   0.694   3.439   5.801 -0.4950  0.4985 -0.4844
  136OSM    H6S14790   0.731   3.542   5.782 -1.5296  1.2860  1.5193
  136OSM    H6T14791   0.586   3.434   5.774 -0.4080 -3.0822 -0.6336
  136OSM    C7S14792   0.768   3.335   5.712  0.2157 -0.4458 -0.1081
  136OSM    H7S14793   0.741   3.232   5.742 -0.8101 -0.3046 -0.5119
  136OSM    H7T14794   0.873   3.362   5.739 -0.1310  2.1902 -1.1284
  136OSM    C8S14795   0.734   3.363   5.563  0.5375  0.1291  0.0308
  136OSM    H8S14796   0.759   3.467   5.535 -0.9081  0.8735  1.3289
  136OSM    H8T14797   0.625   3.352   5.547  0.4994  0.4841  0.0491
  136OSM    C9S14798   0.772   3.249   5.464 -0.3787  0.4996 -0.6985
  136OSM    H9S14799   0.717   3.160   5.502 -1.2276  1.4409  0.3383
  136OSM    H9T14800   0.881   3.229   5.474 -0.2920  0.3370 -1.8412
  136OSM   C10S14801   0.735   3.293   5.326  0.1736 -0.1561  0.1678
  136OSM   H10S14802   0.788   3.385   5.292  0.5556 -0.2644  0.4622
  136OSM   H10T14803   0.627   3.316   5.326  0.0693 -0.5513  1.4709
  136OSM   C11S14804   0.763   3.172   5.233 -0.0744  0.0495  0.5610
  136OSM   H11S14805   0.723   3.074   5.266  0.0992 -0.7939 -1.5450
  136OSM   H11T14806   0.871   3.164   5.208 -0.4616 -1.2875 -0.8309
  136OSM   C12S14807   0.690   3.187   5.093 -0.3521  0.0662 -0.3436
  136OSM   H12S14808   0.729   3.274   5.037  3.2614 -0.5083  0.9620
  136OSM   H12T14809   0.582   3.210   5.104 -0.4732 -0.7798  0.4096
  136OSM   C13S14810   0.696   3.052   5.015 -0.6096 -0.4569 -0.3481
  136OSM   H13S14811   0.628   2.984   5.072  0.3192 -2.3865 -1.4391
  136OSM   H13T14812   0.800   3.014   5.021  0.4410  1.9806 -1.7055
  136OSM   C14S14813   0.645   3.069   4.871 -0.7151  0.4457  0.5712
  136OSM   H14S14814   0.668   2.975   4.817 -0.2230  1.0103 -0.2254
  136OSM   H14T14815   0.703   3.157   4.837  0.4245 -0.5509 -0.1464
  136OSM   C15S14816   0.498   3.100   4.858 -0.2491  0.5299  0.1037
  136OSM   H15S14817   0.461   3.189   4.912  1.1790  0.8942  0.5053
  136OSM   H15T14818   0.444   3.011   4.898 -0.8997  0.2573 -1.3004
  136OSM   C16S14819   0.450   3.115   4.717  0.2315 -0.5759  0.0921
  136OSM   H16S14820   0.339   3.125   4.718  0.3644  1.6318 -1.2410
  136OSM   H16T14821   0.482   3.038   4.643  2.4957 -0.8481  1.2807
  136OSM   C17S14822   0.491   3.246   4.662 -0.1777 -0.4697  0.0613
  136OSM   H17S14823   0.464   3.265   4.556  1.9121  1.0907 -0.2547
  136OSM   H17T14824   0.601   3.256   4.667 -0.1750 -1.0495  1.9088
  136OSM   C18S14825   0.437   3.367   4.744 -0.1269  0.3036  0.2076
  136OSM   H18S14826   0.454   3.460   4.686  0.9581 -0.1858 -0.2981
  136OSM   H18T14827   0.494   3.382   4.839 -0.5628  1.1122  0.3461
  136OSM   H18U14828   0.330   3.359   4.772 -0.3770  0.1682 -0.7524
  136OSM    C1F14829   0.567   3.050   6.205 -0.2051  0.3697 -0.2209
  136OSM     OF14830   0.490   3.107   6.280  0.0432 -0.6900 -0.2975
  136OSM    C2F14831   0.549   2.911   6.159  0.2122 -0.1421  0.0838
  136OSM    H2F14832   0.528   2.841   6.243  0.5079 -0.7555 -0.3477
  136OSM    H2G14833   0.644   2.876   6.113  0.8785  2.3620 -0.5861
  136OSM    C3F14834   0.423   2.910   6.068 -0.4880 -0.0963 -0.2045
  136OSM    H3F14835   0.439   2.988   5.991  1.6215  3.1880  3.2603
  136OSM    H3G14836   0.334   2.930   6.132 -0.2921  0.0895  0.0097
  136OSM    C4F14837   0.405   2.778   5.984 -0.5305 -0.4258  0.9609
  136OSM    H4F14838   0.298   2.747   5.978 -0.4077 -0.5443 -1.1164
  136OSM    H4G14839   0.442   2.694   6.047  0.3687  1.1379  2.6085
  136OSM    C5F14840   0.476   2.783   5.845 -1.3265 -0.2472 -0.4048
  136OSM    H5F14841   0.490   2.678   5.810  2.6813  0.1160 -0.2744
  136OSM    H5G14842   0.577   2.827   5.857 -1.3079 -0.4222  0.1068
  136OSM    C6F14843   0.400   2.877   5.743 -0.4233 -0.4087 -0.0356
  136OSM    H6F14844   0.398   2.981   5.783  0.9251  0.7744 -2.8033
  136OSM    H6G14845   0.299   2.835   5.725 -0.1512 -1.7840  1.3430
  136OSM    C7F14846   0.470   2.898   5.605  0.1464  0.3540  0.0710
  136OSM    H7F14847   0.481   2.796   5.561 -1.7673  0.0158  0.2920
  136OSM    H7G14848   0.566   2.955   5.611 -0.0166  0.5031  1.3910
  136OSM    C8F14849   0.378   2.976   5.502 -0.2981 -0.2609 -0.2899
  136OSM    H8F14850   0.386   3.085   5.524  0.6316 -0.0166 -1.7004
  136OSM    H8G14851   0.273   2.948   5.528 -0.5709  0.5289 -0.5083
  136OSM    C9F14852   0.431   2.967   5.357  0.0322 -0.1463 -0.3646
  136OSM    H9F14853   0.528   3.017   5.345  0.0727  0.6796  2.5652
  136OSM   C10F14854   0.384   2.899   5.252  0.0086 -0.8697  0.4881
  136OSM   H10F14855   0.438   2.902   5.156 -2.1062  0.5851 -0.7296
  136OSM   C11F14856   0.262   2.818   5.256  0.2365 -0.2578 -0.2993
  136OSM   H11F14857   0.176   2.888   5.264 -2.1347 -2.7385 -2.0970
  136OSM   H11G14858   0.277   2.762   5.350  0.3552  0.6571  0.2392
  136OSM   C12F14859   0.217   2.730   5.141  0.1791  0.0511 -0.1608
  136OSM   H12F14860   0.114   2.693   5.162 -0.4231  0.1277 -2.6750
  136OSM   H12G14861   0.284   2.641   5.135 -0.0230 -0.2377  1.4915
  136OSM   C13F14862   0.212   2.807   5.008  1.2523  0.0954 -0.0871
  136OSM   H13F14863   0.302   2.819   4.944  1.7057 -0.4248  0.4438
  136OSM   H13G14864   0.190   2.913   5.034  1.9265  0.2994 -0.3326
  136OSM   C14F14865   0.092   2.760   4.928 -0.1193  0.0651 -0.1445
  136OSM   H14F14866  -0.001   2.809   4.965  0.1214 -0.5168  1.2976
  136OSM   H14G14867   0.072   2.653   4.952  1.0737 -0.5791 -1.8624
  136OSM   C15F14868   0.101   2.790   4.782 -0.2553 -0.2954 -0.0953
  136OSM   H15F14869   0.196   2.751   4.740  0.3148 -0.9985  1.7517
  136OSM   H15G14870   0.110   2.900   4.770 -0.3977 -0.3571 -0.8137
  136OSM   C16F14871  -0.030   2.762   4.705 -0.1561 -0.4053  0.0454
  136OSM   H16F14872  -0.096   2.852   4.710  0.2930  0.0271 -1.4599
  136OSM   H16G14873  -0.078   2.684   4.768 -2.5139  2.2432  1.7655
  136OSM   C17F14874  -0.004   2.738   4.552  0.0368 -0.4904 -0.3819
  136OSM   H17F14875  -0.090   2.750   4.483  0.4033  1.6686 -0.5279
  136OSM   H17G14876   0.033   2.636   4.530 -0.5969 -0.1555 -3.4877
  136OSM   C18F14877   0.110   2.827   4.494  0.2321  0.3178 -0.1081
  136OSM   H18F14878   0.111   2.835   4.384  0.2995  1.3940 -0.0400
  136OSM   H18G14879   0.207   2.788   4.532  0.0772 -2.1041 -1.9717
  136OSM   H18H14880   0.096   2.932   4.529  0.6776 -0.2824  2.0455
  137OSM      N14881   0.869   1.929   6.553  0.3998 -0.9836 -0.6731
  137OSM    C1514882   0.865   2.040   6.450 -0.0665 -0.1178 -0.2459
  137OSM   H15A14883   0.815   2.023   6.356 -1.0819  1.0514  0.0571
  137OSM   H15B14884   0.968   2.069   6.432  0.1507 -0.6652  0.0909
  137OSM   H15C14885   0.812   2.128   6.485 -2.6158 -1.7543  0.2934
  137OSM    C1414886   0.933   1.975   6.679  0.3709 -0.2627  0.1852
  137OSM   H14A14887   0.892   2.073   6.701  0.5027  0.3626 -2.0665
  137OSM   H14B14888   1.040   1.989   6.669  0.3923 -0.6294 -0.1144
  137OSM   H14C14889   0.905   1.910   6.760 -0.5823  0.6727  0.6320
  137OSM    C1314890   0.726   1.902   6.590  0.1613 -0.1105  0.1416
  137OSM   H13A14891   0.677   1.842   6.515  1.4460 -1.5210  0.3772
  137OSM   H13B14892   0.678   1.999   6.596  0.2057 -0.1814  2.2308
  137OSM   H13C14893   0.709   1.852   6.684 -0.2425 -1.1155 -0.4505
  137OSM    C1214894   0.934   1.806   6.498  0.2056 -0.3383 -0.4240
  137OSM   H12A14895   0.903   1.795   6.395  0.0733 -0.5099 -0.3657
  137OSM   H12B14896   0.894   1.720   6.549 -1.4776  0.8709  0.3827
  137OSM    C1114897   1.086   1.794   6.505  0.3221  0.0531 -0.2663
  137OSM   H11A14898   1.134   1.891   6.479  1.4057 -0.7134 -1.2112
  137OSM   H11B14899   1.121   1.730   6.422  1.2862  0.7866 -0.4419
  137OSM      P14900   1.268   1.785   6.706  0.1290 -0.4742  0.0653
  137OSM    O1314901   1.254   1.908   6.787  0.3599  0.3091  0.6397
  137OSM    O1414902   1.312   1.661   6.776 -0.1080  0.4567  0.0164
  137OSM    O1114903   1.366   1.807   6.584  0.1136 -0.3105  0.0937
  137OSM    O1214904   1.127   1.753   6.637  0.2481  0.0705 -0.4571
  137OSM    C1S14905   1.424   1.701   6.507 -0.4704  0.4340 -0.0512
  137OSM    H1S14906   1.358   1.612   6.498 -0.4841  0.3778  0.5310
  137OSM    H1T14907   1.519   1.669   6.555 -1.0214 -0.6488  0.3623
  137OSM     NF14908   1.513   1.641   6.290  0.3917  0.2480  0.3959
  137OSM    HNF14909   1.612   1.630   6.291  0.4190  0.4265 -0.0400
  137OSM    C2S14910   1.457   1.751   6.369 -0.7196 -0.3151  0.4249
  137OSM    H2S14911   1.366   1.792   6.319 -0.7379  0.5714  1.1537
  137OSM    C3S14912   1.555   1.874   6.379 -0.3078 -0.7012 -0.7241
  137OSM    H3S14913   1.645   1.856   6.441 -0.9425  0.5840  0.6253
  137OSM     O314914   1.498   1.991   6.436  0.0754 -0.1422  0.4315
  137OSM    HO314915   1.416   1.963   6.477  0.6704 -1.0490  1.0153
  137OSM    C4S14916   1.605   1.908   6.242 -0.3917 -0.2068  0.4126
  137OSM    H4S14917   1.683   1.833   6.221 -2.3374 -2.8352  1.8264
  137OSM    C5S14918   1.576   2.013   6.153 -0.0967  0.1358  0.5589
  137OSM    H5S14919   1.504   2.093   6.177 -1.4880 -0.5062 -1.2717
  137OSM    C6S14920   1.623   2.027   6.008  0.2718 -0.4693 -0.1046
  137OSM    H6S14921   1.711   2.093   5.991 -0.4263  0.7123  0.7436
  137OSM    H6T14922   1.543   2.070   5.944 -0.1622  1.2184  1.5102
  137OSM    C7S14923   1.672   1.889   5.949  0.1013 -0.5587 -0.2519
  137OSM    H7S14924   1.583   1.830   5.918 -0.7313  0.4705  0.0942
  137OSM    H7T14925   1.723   1.824   6.022 -1.0263 -1.3003 -0.1070
  137OSM    C8S14926   1.762   1.910   5.824  0.9679  0.6115  0.1416
  137OSM    H8S14927   1.806   1.809   5.807  0.8757  0.5932  0.0086
  137OSM    H8T14928   1.854   1.971   5.829  1.7677 -0.5070 -0.4126
  137OSM    C9S14929   1.700   1.966   5.698 -0.4100 -0.4654 -0.0851
  137OSM    H9S14930   1.696   2.076   5.714 -1.2218 -0.6726  1.2932
  137OSM    H9T14931   1.593   1.938   5.697 -0.6980  0.5926 -1.0629
  137OSM   C10S14932   1.787   1.922   5.577  0.1445 -0.4657 -0.1851
  137OSM   H10S14933   1.781   1.811   5.570  1.1072 -0.5015 -0.5952
  137OSM   H10T14934   1.893   1.944   5.602 -0.0257 -1.4400  1.5116
  137OSM   C11S14935   1.763   1.989   5.442 -0.1727 -0.7808  1.0612
  137OSM   H11S14936   1.769   2.099   5.449  0.9239 -0.6410 -1.3031
  137OSM   H11T14937   1.656   1.972   5.415 -0.0966 -1.5244  1.2012
  137OSM   C12S14938   1.856   1.945   5.337 -0.1085 -0.0343 -0.2322
  137OSM   H12S14939   1.850   1.835   5.320 -1.2227  0.0736 -0.6134
  137OSM   H12T14940   1.962   1.971   5.358  0.2973 -2.6732  1.4435
  137OSM   C13S14941   1.820   2.014   5.204 -0.3139  0.9841 -0.3387
  137OSM   H13S14942   1.791   2.120   5.223  0.4214  1.3665 -1.2718
  137OSM   H13T14943   1.728   1.967   5.164  0.5627 -0.4813 -0.7081
  137OSM   C14S14944   1.937   2.013   5.108 -0.1995  0.0752 -0.8896
  137OSM   H14S14945   1.962   1.913   5.066 -1.4149 -0.2866 -0.7921
  137OSM   H14T14946   2.031   2.053   5.152  0.4907 -1.1201 -1.2431
  137OSM   C15S14947   1.911   2.081   4.973 -0.0818  0.4363  0.2466
  137OSM   H15S14948   1.882   2.185   4.998  0.2174  0.6028 -0.0920
  137OSM   H15T14949   1.823   2.030   4.927 -1.1463  0.9620  1.6174
  137OSM   C16S14950   2.030   2.073   4.877  0.6645 -0.3694  0.7256
  137OSM   H16S14951   2.058   1.965   4.870  2.1901 -0.0696  1.6220
  137OSM   H16T14952   2.116   2.132   4.916 -0.0909  0.2915  1.4288
  137OSM   C17S14953   1.984   2.119   4.732 -0.1889 -0.1947 -0.4325
  137OSM   H17S14954   1.946   2.224   4.733 -0.1983 -0.1755  1.9449
  137OSM   H17T14955   1.889   2.067   4.711  0.0471 -0.6059 -0.4978
  137OSM   C18S14956   2.080   2.086   4.619 -0.1957 -0.2783 -0.2779
  137OSM   H18S14957   2.154   2.168   4.633 -2.3395  1.8262 -0.6623
  137OSM   H18T14958   2.058   2.106   4.512  0.4337  2.0617 -0.0421
  137OSM   H18U14959   2.131   1.988   4.609  0.9242  0.3486 -0.9166
  137OSM    C1F14960   1.431   1.545   6.241 -0.1125  0.2289  0.2188
  137OSM     OF14961   1.307   1.548   6.250 -0.2541 -0.3409  0.1442
  137OSM    C2F14962   1.497   1.428   6.174  0.3783  0.5694  0.3564
  137OSM    H2F14963   1.425   1.344   6.160  1.4352 -0.4115  0.5803
  137OSM    H2G14964   1.569   1.388   6.249  0.7871  0.9021  0.1415
  137OSM    C3F14965   1.576   1.477   6.058 -0.2966 -0.0346  0.0317
  137OSM    H3F14966   1.655   1.401   6.041 -0.2593 -0.3259  1.3839
  137OSM    H3G14967   1.630   1.574   6.069 -1.4260  0.6945 -0.6058
  137OSM    C4F14968   1.485   1.498   5.934 -0.0687  0.2947 -0.2856
  137OSM    H4F14969   1.407   1.577   5.936 -1.6206 -1.1605 -0.3936
  137OSM    H4G14970   1.432   1.401   5.917 -2.9802  1.0982  3.0642
  137OSM    C5F14971   1.567   1.515   5.798 -0.1112 -0.6654  0.0293
  137OSM    H5F14972   1.618   1.417   5.782 -0.4457 -0.8903  0.3359
  137OSM    H5G14973   1.639   1.599   5.809  0.9271 -1.5118 -0.0334
  137OSM    C6F14974   1.484   1.538   5.668  0.4758  0.0338 -1.0540
  137OSM    H6F14975   1.414   1.624   5.673 -0.1253 -0.4348 -1.2114
  137OSM    H6G14976   1.433   1.442   5.643  0.1978 -0.3709  0.8777
  137OSM    C7F14977   1.583   1.558   5.550  0.2657 -0.2209  0.3097
  137OSM    H7F14978   1.636   1.463   5.528 -2.5469 -1.7230 -0.4920
  137OSM    H7G14979   1.646   1.645   5.579 -0.2659  1.5425 -3.3298
  137OSM    C8F14980   1.517   1.607   5.416 -0.0546  0.6996  0.2224
  137OSM    H8F14981   1.478   1.710   5.430 -0.0954  0.8151 -0.6875
  137OSM    H8G14982   1.428   1.542   5.403  0.5025 -0.1906  0.7715
  137OSM    C9F14983   1.610   1.601   5.302 -0.3230 -0.3661  0.9672
  137OSM    H9F14984   1.697   1.668   5.307  0.4162 -0.9355 -2.1288
  137OSM   C10F14985   1.613   1.525   5.186  0.5569 -0.2660 -0.2246
  137OSM   H10F14986   1.712   1.536   5.139  1.4363  0.0675  1.5964
  137OSM   C11F14987   1.523   1.412   5.145 -0.8302  0.2214 -1.0383
  137OSM   H11F14988   1.463   1.436   5.055 -2.6391  1.5741  0.4608
  137OSM   H11G14989   1.442   1.390   5.217 -1.7485 -1.6282 -2.5364
  137OSM   C12F14990   1.602   1.279   5.140  0.0435 -0.0464 -0.3273
  137OSM   H12F14991   1.650   1.283   5.240 -1.2637  0.2715  0.3070
  137OSM   H12G14992   1.688   1.286   5.070 -0.6571 -0.6780 -1.2609
  137OSM   C13F14993   1.510   1.159   5.123 -0.0345  0.0747 -0.0498
  137OSM   H13F14994   1.425   1.156   5.196 -1.0287  0.8303 -1.1428
  137OSM   H13G14995   1.567   1.066   5.143 -1.1259 -0.6597 -0.2175
  137OSM   C14F14996   1.448   1.157   4.983  0.2245 -0.1632 -0.0091
  137OSM   H14F14997   1.522   1.166   4.901 -1.5765  2.5737 -1.5092
  137OSM   H14G14998   1.391   1.251   4.965  0.6591 -0.2257 -1.8646
  137OSM   C15F14999   1.370   1.029   4.959  0.4497  0.5190 -0.6379
  137OSM   H15F15000   1.288   1.014   5.033  0.4090 -0.0975 -0.8019
  137OSM   H15G15001   1.430   0.938   4.979  1.0022  0.9996 -0.0809
  137OSM   C16F15002   1.308   1.019   4.827  0.7708 -0.2036  0.2028
  137OSM   H16F15003   1.291   0.913   4.800  0.2087 -0.5459  1.8453
  137OSM   H16G15004   1.382   1.060   4.754  1.5555  1.7810  2.0129
  137OSM   C17F15005   1.171   1.097   4.831  0.1407  0.3757 -0.4745
  137OSM   H17F15006   1.202   1.191   4.882 -0.6894 -0.8550  2.5697
  137OSM   H17G15007   1.100   1.048   4.901  1.5908 -0.9373  0.1225
  137OSM   C18F15008   1.093   1.113   4.702  0.5230 -0.5415 -0.5215
  137OSM   H18F15009   1.100   1.025   4.635  0.3866  2.3259 -4.6460
  137OSM   H18G15010   1.133   1.198   4.642  1.9454 -0.9520 -0.1981
  137OSM   H18H15011   0.988   1.144   4.722  0.9364  1.0413 -0.6741
  138OSM      N15012   5.780   2.939   6.970 -0.7861  0.3068 -0.4843
  138OSM    C1515013   5.675   2.833   7.018 -0.0987 -0.7033 -0.2845
  138OSM   H15A15014   5.698   2.733   6.984 -0.8505 -0.9471 -0.0980
  138OSM   H15B15015   5.575   2.860   6.989 -0.3541  1.2248  2.1512
  138OSM   H15C15016   5.664   2.824   7.125  2.8491 -1.7568  0.0316
  138OSM    C1415017   5.731   3.078   6.995  0.0162 -0.1710  0.1563
  138OSM   H14A15018   5.679   3.099   7.088 -1.5082  0.2500 -0.7608
  138OSM   H14B15019   5.671   3.113   6.912 -1.9001 -2.1239  0.6051
  138OSM   H14C15020   5.822   3.135   6.986  1.9423 -2.5183  2.7194
  138OSM    C1315021   5.898   2.916   7.056  0.7479 -1.2463  0.6975
  138OSM   H13A15022   5.860   2.904   7.157 -3.6276 -1.4603 -0.7424
  138OSM   H13B15023   5.971   2.993   7.034 -1.1197  0.3805 -0.1688
  138OSM   H13C15024   5.940   2.821   7.030  1.0591 -0.8327 -0.3585
  138OSM    C1215025   5.818   2.912   6.828  0.3324 -0.0526 -0.1483
  138OSM   H12A15026   5.732   2.924   6.764 -0.1708  1.4446  0.7545
  138OSM   H12B15027   5.848   2.809   6.815  2.0958  0.5508 -1.0946
  138OSM    C1115028   5.922   3.011   6.763  0.2292 -0.1410  0.1181
  138OSM   H11A15029   5.939   2.976   6.659 -0.2108  0.9278 -0.3343
  138OSM   H11B15030   6.018   3.005   6.820  0.8523 -2.8247 -1.0597
  138OSM      P15031   5.783   3.183   6.639  0.0576 -0.0766 -0.4342
  138OSM    O1315032   5.683   3.080   6.618  0.2738  0.3856  0.4336
  138OSM    O1415033   5.725   3.315   6.661  0.7097  0.2817 -0.4210
  138OSM    O1115034   5.884   3.183   6.519  0.3385 -0.5627  0.6402
  138OSM    O1215035   5.870   3.145   6.762  0.2314  0.3449  0.1475
  138OSM    C1S15036   5.837   3.192   6.385 -0.1546 -0.2675  0.3326
  138OSM    H1S15037   5.767   3.278   6.382  0.2819  0.1232  1.0877
  138OSM    H1T15038   5.795   3.096   6.348  3.2221 -1.4233 -0.8810
  138OSM     NF15039   5.911   3.240   6.155 -0.2307  0.0139  0.0695
  138OSM    HNF15040   5.961   3.180   6.093  1.7592  1.7259 -0.0965
  138OSM    C2S15041   5.953   3.230   6.293  0.3669  0.1835  0.0032
  138OSM    H2S15042   5.981   3.335   6.317 -0.2537  0.3168  0.1586
  138OSM    C3S15043   6.082   3.141   6.319  0.4952  0.3233 -0.0337
  138OSM    H3S15044   6.053   3.042   6.276 -0.1381  0.3655  0.2740
  138OSM     O315045   6.122   3.113   6.457  0.0745 -0.5614 -0.4926
  138OSM    HO315046   6.041   3.136   6.503 -0.0006  1.5152 -1.5482
  138OSM    C4S15047   6.197   3.200   6.250  0.2216 -0.0831 -0.6269
  138OSM    H4S15048   6.228   3.305   6.264  0.9422 -0.4892  1.0998
  138OSM    C5S15049   6.287   3.136   6.177  0.1393 -0.4459  0.9662
  138OSM    H5S15050   6.277   3.032   6.144  1.6043  0.2361 -1.9778
  138OSM    C6S15051   6.415   3.202   6.123  0.4732 -0.7592 -0.3637
  138OSM    H6S15052   6.506   3.145   6.150  0.5946 -1.3614 -1.9386
  138OSM    H6T15053   6.430   3.310   6.146 -0.6913 -0.1014 -2.4121
  138OSM    C7S15054   6.414   3.198   5.969 -0.0430  0.3808 -0.2544
  138OSM    H7S15055   6.498   3.260   5.929 -0.2083 -1.2803 -3.5063
  138OSM    H7T15056   6.323   3.247   5.930  0.3733 -1.1146 -3.4590
  138OSM    C8S15057   6.416   3.053   5.909  0.7196 -0.2715 -0.5721
  138OSM    H8S15058   6.312   3.028   5.881  0.8430 -0.4664 -0.8633
  138OSM    H8T15059   6.452   2.986   5.990  0.8870  0.9333  0.3835
  138OSM    C9S15060   6.511   3.033   5.795  0.2313 -0.0994 -0.0797
  138OSM    H9S15061   6.511   2.925   5.772  3.4829 -0.5253  1.2673
  138OSM    H9T15062   6.619   3.055   5.808  0.8246 -1.6780 -1.8504
  138OSM   C10S15063   6.456   3.117   5.676 -0.4179 -0.3360  0.2778
  138OSM   H10S15064   6.467   3.227   5.687  0.2781 -0.4277  0.6174
  138OSM   H10T15065   6.348   3.100   5.662 -0.2528 -1.0483 -0.1815
  138OSM   C11S15066   6.510   3.067   5.534  0.0270 -0.2447  0.2412
  138OSM   H11S15067   6.466   2.969   5.507 -1.4241  0.4108  0.1320
  138OSM   H11T15068   6.620   3.081   5.526  0.3651 -2.1418  0.9416
  138OSM   C12S15069   6.450   3.167   5.416 -0.0472 -0.0219 -0.0997
  138OSM   H12S15070   6.482   3.272   5.436 -1.5385  0.6191 -0.9351
  138OSM   H12T15071   6.341   3.168   5.434 -0.5432  2.6914 -2.4848
  138OSM   C13S15072   6.478   3.118   5.275 -0.1512  0.9447  0.7315
  138OSM   H13S15073   6.461   3.009   5.270  2.8966  0.4238 -1.0870
  138OSM   H13T15074   6.589   3.118   5.268  0.0776 -0.8332  3.2244
  138OSM   C14S15075   6.401   3.182   5.158  0.2897  0.0174  0.1406
  138OSM   H14S15076   6.402   3.292   5.174 -2.2362  0.1123  0.0468
  138OSM   H14T15077   6.299   3.141   5.175  0.7407 -0.8240  0.9084
  138OSM   C15S15078   6.454   3.149   5.016 -0.1767  0.2500 -0.5923
  138OSM   H15S15079   6.452   3.038   5.008 -0.9060  0.2347 -0.3060
  138OSM   H15T15080   6.558   3.186   5.001  0.0612  0.3803  1.2642
  138OSM   C16S15081   6.357   3.204   4.912 -0.0938  0.2555 -0.2486
  138OSM   H16S15082   6.350   3.315   4.921 -1.6424  0.0624  1.7438
  138OSM   H16T15083   6.252   3.166   4.918  0.1513 -1.0912 -2.9030
  138OSM   C17S15084   6.410   3.187   4.770  0.5390 -0.1045 -0.3626
  138OSM   H17S15085   6.415   3.080   4.742 -0.4726 -0.1824 -0.2894
  138OSM   H17T15086   6.514   3.224   4.777  0.4709  0.2414 -1.1218
  138OSM   C18S15087   6.340   3.264   4.658 -0.2052  0.0066 -0.3437
  138OSM   H18S15088   6.232   3.277   4.679  0.2819  1.5039  1.4859
  138OSM   H18T15089   6.347   3.210   4.561 -0.7822  0.7376 -0.8011
  138OSM   H18U15090   6.388   3.364   4.648  1.5876 -1.0373 -4.5749
  138OSM    C1F15091   5.817   3.325   6.110  0.7120  0.6644  0.5227
  138OSM     OF15092   5.782   3.430   6.172 -0.5050  0.3054  0.1232
  138OSM    C2F15093   5.768   3.297   5.969 -0.2175 -0.5429  0.7093
  138OSM    H2F15094   5.824   3.211   5.929  0.7278  0.0039  0.8299
  138OSM    H2G15095   5.804   3.380   5.905 -0.1603 -1.5778 -0.6411
  138OSM    C3F15096   5.611   3.282   5.952 -0.0876 -0.0572  0.1240
  138OSM    H3F15097   5.560   3.356   6.017 -1.2870 -0.1687 -0.6612
  138OSM    H3G15098   5.579   3.182   5.988  0.3053  0.3109  1.5836
  138OSM    C4F15099   5.577   3.291   5.800 -0.3338 -0.2379  0.1311
  138OSM    H4F15100   5.591   3.396   5.770 -2.0818  0.6047  1.9601
  138OSM    H4G15101   5.469   3.269   5.782 -0.3551  1.3118 -1.9375
  138OSM    C5F15102   5.658   3.196   5.717 -0.0720 -0.0653  0.6301
  138OSM    H5F15103   5.653   3.096   5.765  0.3690 -0.6814 -0.5616
  138OSM    H5G15104   5.764   3.227   5.721 -0.1722  0.3754  0.0560
  138OSM    C6F15105   5.618   3.198   5.569 -0.2193  0.4585 -0.2258
  138OSM    H6F15106   5.624   3.305   5.540 -0.3076  0.9893  1.6112
  138OSM    H6G15107   5.512   3.165   5.559 -0.8200  2.0406  0.6251
  138OSM    C7F15108   5.723   3.119   5.476 -0.5211  0.5312  0.0607
  138OSM    H7F15109   5.728   3.013   5.508  1.0304  0.2644 -0.9575
  138OSM    H7G15110   5.828   3.151   5.492 -0.9499  1.5891  0.8084
  138OSM    C8F15111   5.696   3.122   5.325 -0.2640  0.2503  0.3678
  138OSM    H8F15112   5.775   3.055   5.283 -0.1650 -0.7892  2.0984
  138OSM    H8G15113   5.713   3.218   5.272 -2.5884  1.1542  1.1152
  138OSM    C9F15114   5.560   3.070   5.286 -0.5788 -0.2169  0.2149
  138OSM    H9F15115   5.479   3.141   5.309 -0.6545 -0.6628  1.3733
  138OSM   C10F15116   5.520   2.956   5.227  1.1391 -0.0780  0.0809
  138OSM   H10F15117   5.412   2.949   5.211  0.6848 -0.7809  2.9060
  138OSM   C11F15118   5.614   2.846   5.188  0.0588  0.1738 -0.4317
  138OSM   H11F15119   5.606   2.750   5.242  1.0236 -0.3391 -1.1777
  138OSM   H11G15120   5.718   2.878   5.209  0.9006 -3.2580  1.2542
  138OSM   C12F15121   5.602   2.816   5.033 -0.3170 -0.2067 -0.5881
  138OSM   H12F15122   5.610   2.911   4.976 -0.1970 -0.6240 -1.2652
  138OSM   H12G15123   5.497   2.783   5.019 -0.4805 -1.2332  2.3653
  138OSM   C13F15124   5.698   2.712   4.978 -0.5629  0.0212  0.1257
  138OSM   H13F15125   5.686   2.613   5.028 -0.6958 -0.6357 -1.1669
  138OSM   H13G15126   5.803   2.743   4.993 -0.3599 -0.3516 -0.4918
  138OSM   C14F15127   5.674   2.690   4.829  0.1284 -0.1179  0.5876
  138OSM   H14F15128   5.665   2.790   4.780 -2.6062 -0.4592  0.2020
  138OSM   H14G15129   5.577   2.644   4.800  0.5552  1.3909 -4.0389
  138OSM   C15F15130   5.788   2.618   4.759 -0.2032 -0.2483 -0.1675
  138OSM   H15F15131   5.819   2.528   4.816 -1.6889 -0.0113  1.0971
  138OSM   H15G15132   5.878   2.682   4.774  0.1051 -1.2327  3.0690
  138OSM   C16F15133   5.758   2.594   4.615  0.1779 -0.4082  0.3619
  138OSM   H16F15134   5.847   2.548   4.567 -0.9467 -0.3319 -1.9315
  138OSM   H16G15135   5.740   2.688   4.560  1.0583  0.7025  1.9096
  138OSM   C17F15136   5.647   2.494   4.594 -0.0653 -0.5556  0.2142
  138OSM   H17F15137   5.550   2.546   4.613  0.0706 -0.3148  0.2442
  138OSM   H17G15138   5.667   2.419   4.673  0.2076 -1.8409 -1.0412
  138OSM   C18F15139   5.649   2.438   4.455 -0.8718 -0.5354 -0.9932
  138OSM   H18F15140   5.622   2.516   4.381 -1.9209 -0.3214 -0.4166
  138OSM   H18G15141   5.577   2.355   4.437  1.1880 -2.8620  0.6939
  138OSM   H18H15142   5.745   2.388   4.433 -0.5063 -0.1150 -0.3785
  139OSM      N15143   1.087   3.401   6.654 -0.3685  0.1536 -0.1538
  139OSM    C1515144   0.989   3.484   6.731 -0.5861  0.0996 -0.0210
  139OSM   H15A15145   1.020   3.490   6.835 -0.5448 -0.2781 -0.0116
  139OSM   H15B15146   0.887   3.448   6.719  0.2944 -2.2013 -1.1429
  139OSM   H15C15147   0.978   3.575   6.675  1.2359  0.2194 -0.2413
  139OSM    C1415148   1.222   3.456   6.691  0.1348 -0.0224  0.0195
  139OSM   H14A15149   1.227   3.563   6.677  1.2814 -0.0423  0.1270
  139OSM   H14B15150   1.294   3.414   6.622 -1.7437 -2.5791 -0.5505
  139OSM   H14C15151   1.250   3.436   6.793  0.0818  2.6270  0.6108
  139OSM    C1315152   1.084   3.259   6.694 -0.4300  0.2585  0.0845
  139OSM   H13A15153   1.002   3.213   6.642 -0.2213  0.3595 -0.3381
  139OSM   H13B15154   1.080   3.245   6.801  0.1474 -1.1044 -0.0547
  139OSM   H13C15155   1.178   3.215   6.663 -0.9767  0.1833 -1.5561
  139OSM    C1215156   1.061   3.421   6.504 -0.2181  0.8641  0.9414
  139OSM   H12A15157   1.073   3.526   6.483  1.8244  0.6101  0.6040
  139OSM   H12B15158   0.957   3.400   6.484 -0.3068  2.3684 -0.3312
  139OSM    C1115159   1.158   3.353   6.400 -0.5882  0.1068 -0.3208
  139OSM   H11A15160   1.096   3.356   6.308  0.8631  0.8893 -1.3089
  139OSM   H11B15161   1.196   3.255   6.437  1.3826  1.7712  2.4570
  139OSM      P15162   1.410   3.411   6.331  0.0965  0.3596 -0.2121
  139OSM    O1315163   1.495   3.525   6.371 -0.1926 -0.6934 -0.5763
  139OSM    O1415164   1.455   3.282   6.383  0.0575  0.3116 -0.2418
  139OSM    O1115165   1.387   3.411   6.175  0.4497 -0.2050 -0.1001
  139OSM    O1215166   1.268   3.444   6.387 -0.2813  0.4586 -0.0450
  139OSM    C1S15167   1.345   3.538   6.125 -0.1261 -0.1235 -0.4961
  139OSM    H1S15168   1.430   3.607   6.146  0.3918 -0.6288 -0.9038
  139OSM    H1T15169   1.253   3.571   6.179  1.9805 -1.0130  4.0933
  139OSM     NF15170   1.325   3.690   5.921 -0.3866  0.3360  0.1129
  139OSM    HNF15171   1.241   3.721   5.875  0.9354  1.6194 -1.5790
  139OSM    C2S15172   1.335   3.551   5.972  0.4918  0.4912 -0.0308
  139OSM    H2S15173   1.430   3.510   5.931  0.1090 -0.9808  0.4925
  139OSM    C3S15174   1.225   3.451   5.921 -0.0824  0.7588 -0.6049
  139OSM    H3S15175   1.130   3.470   5.975  0.4594 -0.7716  0.9625
  139OSM     O315176   1.240   3.309   5.961  0.1632  0.1085  0.9394
  139OSM    HO315177   1.304   3.313   6.033  0.2542  1.7561  0.8037
  139OSM    C4S15178   1.194   3.464   5.773 -0.4730  0.4804 -0.0720
  139OSM    H4S15179   1.155   3.565   5.751 -2.7710  0.0826  1.6809
  139OSM    C5S15180   1.234   3.384   5.673  0.9162  0.3156 -0.0724
  139OSM    H5S15181   1.281   3.289   5.701 -0.1929 -0.2191 -0.0078
  139OSM    C6S15182   1.205   3.418   5.530  0.1070 -0.6514  0.0711
  139OSM    H6S15183   1.149   3.513   5.517 -0.2763 -0.9477 -0.4726
  139OSM    H6T15184   1.143   3.340   5.481 -1.0629  0.2150  0.1345
  139OSM    C7S15185   1.337   3.419   5.441 -0.4580 -0.3582  0.0709
  139OSM    H7S15186   1.388   3.320   5.444  0.4538  0.1235  0.7051
  139OSM    H7T15187   1.415   3.487   5.479 -0.4749  0.4241 -1.2419
  139OSM    C8S15188   1.306   3.444   5.297 -0.0188  0.3202 -0.5446
  139OSM    H8S15189   1.244   3.536   5.297 -1.4437 -0.5339  1.8173
  139OSM    H8T15190   1.249   3.354   5.265  0.6059 -0.4429  0.4091
  139OSM    C9S15191   1.429   3.447   5.208  0.2309 -0.2726 -0.0527
  139OSM    H9S15192   1.474   3.346   5.221 -1.4034 -1.0552 -0.2794
  139OSM    H9T15193   1.499   3.524   5.247  0.6184 -1.1985  1.1446
  139OSM   C10S15194   1.399   3.505   5.072  0.4797  0.5033  0.5720
  139OSM   H10S15195   1.353   3.605   5.086  0.8989  0.5016  2.1379
  139OSM   H10T15196   1.330   3.435   5.021  0.9823  0.4207 -0.0076
  139OSM   C11S15197   1.531   3.520   4.995 -0.4146  0.1026 -0.3218
  139OSM   H11S15198   1.597   3.436   5.023 -0.5570  0.3760  0.9076
  139OSM   H11T15199   1.573   3.614   5.038  0.5816 -1.3078  1.9680
  139OSM   C12S15200   1.513   3.544   4.841 -0.0586 -0.0246 -0.3887
  139OSM   H12S15201   1.428   3.493   4.791  0.3101  1.7971 -3.0830
  139OSM   H12T15202   1.595   3.483   4.798 -1.3134 -0.2184 -2.6625
  139OSM   C13S15203   1.530   3.680   4.778  0.3829  0.1095  0.0072
  139OSM   H13S15204   1.559   3.662   4.673  0.1533 -0.7113  0.0710
  139OSM   H13T15205   1.620   3.724   4.825 -2.0272  3.0475  2.2856
  139OSM   C14S15206   1.404   3.764   4.793 -0.3767 -0.0131  0.3929
  139OSM   H14S15207   1.396   3.802   4.897 -0.3987  1.3056 -0.0790
  139OSM   H14T15208   1.317   3.696   4.774 -0.1872 -0.0193 -0.5230
  139OSM   C15S15209   1.414   3.888   4.693 -0.5511  0.1926  0.2919
  139OSM   H15S15210   1.397   3.865   4.586  0.6882  1.4636 -0.2062
  139OSM   H15T15211   1.513   3.937   4.699 -1.6865  2.5207  1.9400
  139OSM   C16S15212   1.315   3.994   4.747  0.1801  0.7864 -0.1179
  139OSM   H16S15213   1.308   3.992   4.858  0.5968  1.0299 -0.0828
  139OSM   H16T15214   1.214   3.980   4.703  0.5635 -0.9836 -0.5375
  139OSM   C17S15215   1.364   4.128   4.703 -0.0275  0.1296  0.6031
  139OSM   H17S15216   1.401   4.130   4.598 -0.5495 -2.5824  0.2954
  139OSM   H17T15217   1.460   4.148   4.756  0.0887 -1.0659  0.8768
  139OSM   C18S15218   1.274   4.249   4.718  0.6388 -0.4001 -0.1995
  139OSM   H18S15219   1.328   4.344   4.699  0.7290 -0.1403  1.2346
  139OSM   H18T15220   1.244   4.250   4.825 -0.1803  0.5860 -0.4167
  139OSM   H18U15221   1.180   4.232   4.661 -0.0951  1.9084  0.2129
  139OSM    C1F15222   1.409   3.789   5.944 -0.1144  0.4819  0.0691
  139OSM     OF15223   1.524   3.772   5.987  0.1831  0.0277 -0.3885
  139OSM    C2F15224   1.353   3.920   5.894 -0.2161  0.1134 -0.4426
  139OSM    H2F15225   1.250   3.933   5.936 -0.5374  0.2226 -1.2572
  139OSM    H2G15226   1.344   3.909   5.784  0.5742 -0.0035 -0.5006
  139OSM    C3F15227   1.426   4.048   5.943  0.1992 -0.2885 -0.3469
  139OSM    H3F15228   1.529   4.042   5.904  0.2210  0.4854 -0.4106
  139OSM    H3G15229   1.426   4.049   6.054 -2.3130  0.6134 -0.2778
  139OSM    C4F15230   1.362   4.182   5.903 -0.0961  0.0220 -0.0808
  139OSM    H4F15231   1.426   4.262   5.946  2.2031 -2.1585  0.7215
  139OSM    H4G15232   1.261   4.190   5.949 -0.9648  0.3929 -1.9482
  139OSM    C5F15233   1.342   4.198   5.750 -0.1443  0.4271 -0.3340
  139OSM    H5F15234   1.246   4.146   5.728  1.1998 -1.5862 -1.7668
  139OSM    H5G15235   1.410   4.127   5.698  0.1316  1.5106 -1.5036
  139OSM    C6F15236   1.332   4.339   5.705  0.4793  0.4872  0.3887
  139OSM    H6F15237   1.428   4.395   5.714  0.4236  0.6994 -0.2848
  139OSM    H6G15238   1.259   4.391   5.770 -1.6158 -0.4069 -1.1442
  139OSM    C7F15239   1.281   4.348   5.564  0.0189  0.0595  0.6586
  139OSM    H7F15240   1.175   4.316   5.550  1.3105 -4.4473 -0.3620
  139OSM    H7G15241   1.343   4.291   5.491 -1.0284 -0.6548  0.2867
  139OSM    C8F15242   1.278   4.495   5.506  0.2695  0.1403 -0.9183
  139OSM    H8F15243   1.222   4.569   5.567  1.4062  0.0188  0.2955
  139OSM    H8G15244   1.221   4.488   5.410 -1.5817  0.8197  0.0775
  139OSM    C9F15245   1.415   4.557   5.491 -0.7245 -0.1887  0.0165
  139OSM    H9F15246   1.461   4.607   5.577 -0.7173  1.4877 -0.9267
  139OSM   C10F15247   1.482   4.568   5.373 -0.3952 -0.1887 -0.0722
  139OSM   H10F15248   1.584   4.607   5.363  0.5971 -3.0990 -3.5534
  139OSM   C11F15249   1.436   4.521   5.240 -0.1364  0.1279 -0.4500
  139OSM   H11F15250   1.329   4.489   5.241 -0.2274  0.4332 -0.4639
  139OSM   H11G15251   1.487   4.430   5.201  0.7714 -0.2082  1.3852
  139OSM   C12F15252   1.455   4.628   5.137 -0.0598  0.0059 -0.0061
  139OSM   H12F15253   1.563   4.657   5.141 -0.2720  1.4514 -2.6997
  139OSM   H12G15254   1.385   4.711   5.162 -0.9062 -0.0686 -1.9902
  139OSM   C13F15255   1.414   4.598   4.999 -0.4192 -0.1407 -0.1376
  139OSM   H13F15256   1.305   4.576   4.990 -0.6547  1.0082 -0.1306
  139OSM   H13G15257   1.463   4.505   4.963  0.8460 -0.3242  1.9195
  139OSM   C14F15258   1.443   4.715   4.899 -0.0663  0.2059 -0.3583
  139OSM   H14F15259   1.551   4.742   4.910  0.9652 -3.6130  0.5739
  139OSM   H14G15260   1.392   4.805   4.938  0.1771 -0.5778  1.9547
  139OSM   C15F15261   1.382   4.695   4.759 -0.5625  0.0537  0.0917
  139OSM   H15F15262   1.278   4.731   4.760 -1.3443 -2.0287  1.1632
  139OSM   H15G15263   1.363   4.585   4.753 -1.3814  0.1626  0.5720
  139OSM   C16F15264   1.469   4.757   4.646  0.2662 -0.2765 -0.0180
  139OSM   H16F15265   1.563   4.698   4.638  0.0718 -0.4261 -1.4569
  139OSM   H16G15266   1.501   4.857   4.681 -3.0740  1.1862 -0.8531
  139OSM   C17F15267   1.392   4.782   4.520 -0.7480 -0.0555 -0.3624
  139OSM   H17F15268   1.453   4.859   4.467 -0.4520  0.4666  0.7115
  139OSM   H17G15269   1.293   4.831   4.538 -0.6490  1.6264 -3.5351
  139OSM   C18F15270   1.379   4.666   4.427 -0.3270  0.7602 -0.8255
  139OSM   H18F15271   1.315   4.684   4.338  1.3449  1.5289 -1.9188
  139OSM   H18G15272   1.335   4.580   4.481  2.4522 -0.1269  0.1902
  139OSM   H18H15273   1.480   4.636   4.393  0.6249  2.3746  0.4420
  140OSM      N15274   1.419   2.709   6.508  0.2776 -1.0885  0.0428
  140OSM    C1515275   1.559   2.762   6.460  1.0251  0.3748 -0.0869
  140OSM   H15A15276   1.632   2.750   6.539 -0.2878 -2.0261  0.8860
  140OSM   H15B15277   1.557   2.866   6.431 -2.4198  0.6971  0.8399
  140OSM   H15C15278   1.582   2.696   6.378 -0.2671 -1.9534  1.3032
  140OSM    C1415279   1.427   2.567   6.556 -0.2223  0.6571  0.0866
  140OSM   H14A15280   1.501   2.543   6.631  1.3395  1.8104 -1.0311
  140OSM   H14B15281   1.445   2.496   6.476  0.2318  0.1532  0.6249
  140OSM   H14C15282   1.329   2.532   6.586 -0.3605 -1.0784 -2.0895
  140OSM    C1315283   1.395   2.793   6.631  0.0572 -0.4251 -0.0046
  140OSM   H13A15284   1.289   2.801   6.652 -0.0010  0.7016 -0.6681
  140OSM   H13B15285   1.420   2.896   6.611  1.8880 -1.1270 -1.6034
  140OSM   H13C15286   1.452   2.746   6.710  0.1883  0.8548  0.6781
  140OSM    C1215287   1.320   2.734   6.401  0.5767  0.7054 -0.4153
  140OSM   H12A15288   1.357   2.685   6.312 -2.6266 -1.0189 -0.9655
  140OSM   H12B15289   1.313   2.840   6.382 -2.9698  0.5282 -0.8459
  140OSM    C1115290   1.173   2.688   6.410 -0.2034 -0.2814 -0.0936
  140OSM   H11A15291   1.177   2.582   6.442 -1.3262 -1.2544 -2.8828
  140OSM   H11B15292   1.119   2.690   6.313 -2.6264 -1.1292  1.1566
  140OSM      P15293   1.050   2.902   6.493 -0.0197 -0.3557 -0.0724
  140OSM    O1315294   0.910   2.909   6.539 -0.1376  0.7130  0.2996
  140OSM    O1415295   1.144   2.997   6.562 -0.1750  1.0503 -0.4268
  140OSM    O1115296   1.055   2.928   6.343  0.5002 -0.0664  0.3058
  140OSM    O1215297   1.110   2.754   6.510  0.3464 -0.2890  0.4021
  140OSM    C1S15298   1.147   3.025   6.276  0.2842 -0.6866  0.3007
  140OSM    H1S15299   1.244   3.046   6.326  1.6972 -0.3375 -2.3884
  140OSM    H1T15300   1.093   3.122   6.269  0.1746 -0.7575  0.1605
  140OSM     NF15301   1.297   3.061   6.080 -0.1185 -0.0356 -0.3817
  140OSM    HNF15302   1.290   3.136   6.015 -1.3480 -0.7795 -1.1630
  140OSM    C2S15303   1.186   2.986   6.128 -0.0137 -0.2039  0.2380
  140OSM    H2S15304   1.212   2.879   6.113  1.3534  0.2474 -0.8568
  140OSM    C3S15305   1.060   3.013   6.039  0.6918  0.1682 -0.1286
  140OSM    H3S15306   1.051   3.122   6.017  3.7381  0.5931  0.3202
  140OSM     O315307   0.933   2.983   6.100  0.6573  0.2509 -0.2968
  140OSM    HO315308   0.948   2.960   6.192  2.6158  1.3659 -0.2749
  140OSM    C4S15309   1.073   2.946   5.902  1.2891  0.1707 -1.2772
  140OSM    H4S15310   1.034   2.844   5.891  1.2479  0.0600 -0.1848
  140OSM    C5S15311   1.112   3.014   5.795  1.3760  0.3324  0.6597
  140OSM    H5S15312   1.122   3.124   5.803 -3.8354  1.3352 -2.1699
  140OSM    C6S15313   1.094   2.945   5.661 -0.5191 -0.2993  0.1767
  140OSM    H6S15314   0.993   2.903   5.641  0.2055 -1.2243 -1.9287
  140OSM    H6T15315   1.144   2.846   5.667  1.3292  0.6650  1.5879
  140OSM    C7S15316   1.140   3.038   5.551 -0.0965  0.1045  0.3150
  140OSM    H7S15317   1.244   3.073   5.567 -0.3254  0.7561  0.3870
  140OSM    H7T15318   1.085   3.133   5.542  0.0926  0.0667 -1.6084
  140OSM    C8S15319   1.138   2.958   5.421  0.3275 -0.2683 -0.4532
  140OSM    H8S15320   1.041   2.904   5.428  1.1976 -1.8373  0.1794
  140OSM    H8T15321   1.221   2.884   5.416  1.8902  1.4434 -0.6052
  140OSM    C9S15322   1.161   3.051   5.305  0.2273  0.2179  0.6661
  140OSM    H9S15323   1.257   3.102   5.331 -0.1329  0.6075  1.2361
  140OSM    H9T15324   1.072   3.117   5.302 -1.0520 -1.4074 -2.7784
  140OSM   C10S15325   1.174   2.981   5.167  0.3139 -0.5861  0.2984
  140OSM   H10S15326   1.088   2.912   5.159  0.6193 -0.7212 -4.0278
  140OSM   H10T15327   1.264   2.917   5.180 -1.4334 -2.7694  2.4578
  140OSM   C11S15328   1.163   3.084   5.051 -0.3947  0.3148 -0.6917
  140OSM   H11S15329   1.241   3.160   5.074 -1.0185  0.6608  0.3681
  140OSM   H11T15330   1.063   3.129   5.070 -0.2985 -0.2983  1.6075
  140OSM   C12S15331   1.178   3.022   4.911  0.0672 -0.9816  0.0485
  140OSM   H12S15332   1.137   2.919   4.907  1.5305 -1.5465 -1.5584
  140OSM   H12T15333   1.287   3.016   4.894  0.2125  0.5250  0.3011
  140OSM   C13S15334   1.125   3.110   4.798 -0.1295 -1.0203  0.1013
  140OSM   H13S15335   1.014   3.107   4.805 -0.3202  1.4925 -0.8312
  140OSM   H13T15336   1.177   3.062   4.712  2.6633  1.0902  0.4714
  140OSM   C14S15337   1.182   3.257   4.805 -0.1323  0.1639  0.1256
  140OSM   H14S15338   1.293   3.263   4.815 -0.1193 -1.3908  1.2952
  140OSM   H14T15339   1.137   3.303   4.895  1.0523 -0.5121  1.1046
  140OSM   C15S15340   1.164   3.347   4.683  0.6070  0.0086  0.1871
  140OSM   H15S15341   1.230   3.308   4.602  0.3664 -0.4211  0.1966
  140OSM   H15T15342   1.195   3.451   4.707 -1.4226  0.7032 -0.0547
  140OSM   C16S15343   1.023   3.343   4.619 -0.1287 -0.3145 -0.0765
  140OSM   H16S15344   0.956   3.378   4.700  0.6770  0.0152  0.4690
  140OSM   H16T15345   0.994   3.243   4.581  0.4062 -0.6138  0.2739
  140OSM   C17S15346   1.003   3.447   4.506 -0.2272 -0.2909  0.0626
  140OSM   H17S15347   1.080   3.432   4.427 -0.2227 -1.4270  0.2655
  140OSM   H17T15348   1.044   3.545   4.540  3.5485 -1.9998  0.9038
  140OSM   C18S15349   0.867   3.453   4.441 -0.5345  0.0021  0.7760
  140OSM   H18S15350   0.861   3.378   4.358  1.1002  0.5339  0.1260
  140OSM   H18T15351   0.853   3.555   4.399  1.5682 -0.0565 -0.2116
  140OSM   H18U15352   0.785   3.427   4.511 -0.7318 -0.5276  0.3554
  140OSM    C1F15353   1.422   3.034   6.131  0.9705 -0.5686 -0.2595
  140OSM     OF15354   1.448   2.932   6.201  0.3583 -0.3329  0.5798
  140OSM    C2F15355   1.524   3.133   6.099 -0.3565 -0.5005  0.6916
  140OSM    H2F15356   1.567   3.171   6.194 -0.1597  1.0923 -0.0125
  140OSM    H2G15357   1.485   3.223   6.047  0.5180 -0.3986  0.1932
  140OSM    C3F15358   1.635   3.065   6.007  0.3901  0.4258  0.7954
  140OSM    H3F15359   1.660   2.964   6.047  0.4457 -0.3796 -1.1687
  140OSM    H3G15360   1.728   3.117   6.040  0.4433  1.7371 -1.2349
  140OSM    C4F15361   1.625   3.064   5.852  0.5416  0.5593 -0.6234
  140OSM    H4F15362   1.715   3.008   5.819 -0.6849 -1.9498  0.0183
  140OSM    H4G15363   1.627   3.172   5.824  2.3111  0.6640 -0.2264
  140OSM    C5F15364   1.502   3.004   5.792 -0.4004 -0.5290  0.4904
  140OSM    H5F15365   1.426   3.085   5.794  1.1188  0.9401  1.2321
  140OSM    H5G15366   1.474   2.914   5.851 -2.9796 -1.4144 -1.8585
  140OSM    C6F15367   1.529   2.952   5.649  0.0810  0.3444  0.8260
  140OSM    H6F15368   1.433   2.906   5.616 -0.3450  2.6257 -1.4148
  140OSM    H6G15369   1.605   2.872   5.660  1.3246  1.3843  0.0981
  140OSM    C7F15370   1.568   3.058   5.546  0.4360  0.1967 -0.6688
  140OSM    H7F15371   1.667   3.100   5.575  0.5461 -1.2164  1.2373
  140OSM    H7G15372   1.501   3.146   5.544 -1.0367 -0.8782 -0.2415
  140OSM    C8F15373   1.584   2.993   5.406 -0.1339 -0.8309 -0.3296
  140OSM    H8F15374   1.494   2.939   5.370 -1.2883  1.0436 -0.3451
  140OSM    H8G15375   1.662   2.914   5.411 -0.7133 -1.3665  0.5030
  140OSM    C9F15376   1.620   3.109   5.312  0.1723  0.3272  0.2517
  140OSM    H9F15377   1.629   3.203   5.369  0.8871 -0.2360  1.0878
  140OSM   C10F15378   1.629   3.102   5.182  0.0394 -0.2722 -0.2738
  140OSM   H10F15379   1.650   3.197   5.130  0.3648  0.1685  0.6473
  140OSM   C11F15380   1.635   2.983   5.092  0.5679  0.3246  0.3667
  140OSM   H11F15381   1.534   2.938   5.089 -0.4753  2.5579 -0.0219
  140OSM   H11G15382   1.682   2.891   5.133 -1.5692 -2.3562 -2.7052
  140OSM   C12F15383   1.678   3.010   4.947  0.6925 -0.3430 -0.2998
  140OSM   H12F15384   1.682   2.910   4.899  2.0360  0.4062 -1.8778
  140OSM   H12G15385   1.778   3.059   4.944  0.2196  0.7576 -4.3249
  140OSM   C13F15386   1.574   3.096   4.868 -0.4603 -0.6488 -0.0846
  140OSM   H13F15387   1.567   3.204   4.895  1.6507 -0.7476  1.0157
  140OSM   H13G15388   1.470   3.059   4.886 -0.6055 -0.8453 -1.2498
  140OSM   C14F15389   1.580   3.083   4.715  0.1398 -0.4966  0.6216
  140OSM   H14F15390   1.547   2.979   4.696 -1.5787 -0.0846  1.2277
  140OSM   H14G15391   1.686   3.093   4.682  0.4548  1.7078  2.0907
  140OSM   C15F15392   1.495   3.179   4.627  0.1166  0.1406 -0.5898
  140OSM   H15F15393   1.522   3.283   4.653 -0.5087  0.7246 -2.1343
  140OSM   H15G15394   1.388   3.168   4.657  0.9186 -1.3096  2.1408
  140OSM   C16F15395   1.495   3.153   4.476  0.2300 -0.9580 -0.4481
  140OSM   H16F15396   1.400   3.164   4.420 -0.1655  0.7178  0.5002
  140OSM   H16G15397   1.519   3.044   4.467  0.3966 -1.1899  2.0644
  140OSM   C17F15398   1.613   3.233   4.415 -0.0233 -0.5741  0.1602
  140OSM   H17F15399   1.704   3.178   4.449  0.7348 -0.3113 -1.3193
  140OSM   H17G15400   1.608   3.338   4.451  0.5760 -0.6058  0.3487
  140OSM   C18F15401   1.601   3.238   4.264  0.2463 -0.5952  0.6897
  140OSM   H18F15402   1.696   3.262   4.212  0.4440  1.2614  1.8169
  140OSM   H18G15403   1.524   3.313   4.237  2.9195  2.3559  0.7339
  140OSM   H18H15404   1.574   3.133   4.241  1.0372 -0.7819  0.5958
  141OSM      N15405   6.410   1.235   6.936 -0.2128 -0.5295  0.5858
  141OSM    C1515406   6.395   1.258   6.783  0.6184 -0.1661  0.0870
  141OSM   H15A15407   6.479   1.311   6.740 -0.7119  0.9786 -1.1951
  141OSM   H15B15408   6.315   1.330   6.781 -1.4608 -2.1743  2.9081
  141OSM   H15C15409   6.376   1.166   6.729  1.5231 -0.4313  0.1978
  141OSM    C1415410   6.536   1.150   6.951 -0.9491 -0.5198  0.6349
  141OSM   H14A15411   6.626   1.197   6.913 -0.7528 -1.8650 -0.6478
  141OSM   H14B15412   6.529   1.055   6.901 -0.3244  0.0941 -0.6668
  141OSM   H14C15413   6.542   1.136   7.058 -0.0647 -1.3663  0.4881
  141OSM    C1315414   6.430   1.366   6.992 -0.1210  0.0911 -0.2460
  141OSM   H13A15415   6.338   1.414   7.021  0.8662  1.5397  0.5857
  141OSM   H13B15416   6.480   1.434   6.925  0.8629 -0.9049 -0.5734
  141OSM   H13C15417   6.482   1.351   7.085 -1.2232 -2.2935  0.0699
  141OSM    C1215418   6.289   1.169   6.990  0.5112 -0.1747 -0.1853
  141OSM   H12A15419   6.298   1.154   7.097 -1.3127  1.5370  0.2519
  141OSM   H12B15420   6.273   1.068   6.954  1.8634 -0.3001 -0.4905
  141OSM    C1115421   6.155   1.245   6.974  0.0522  0.3008 -0.7939
  141OSM   H11A15422   6.145   1.349   7.013 -1.2597 -0.3897  0.8076
  141OSM   H11B15423   6.085   1.190   7.040  2.2474 -1.5135  0.1951
  141OSM      P15424   5.973   1.310   6.797 -0.0712 -0.1473  0.1080
  141OSM    O1315425   5.862   1.226   6.850 -1.5372 -0.0210  0.0748
  141OSM    O1415426   5.965   1.451   6.841  0.9792 -0.2252 -0.5130
  141OSM    O1115427   5.963   1.312   6.638 -0.6524 -0.7479  0.0222
  141OSM    O1215428   6.110   1.238   6.839  0.1319  0.2277 -0.2978
  141OSM    C1S15429   6.059   1.251   6.555 -0.3640 -0.0132 -0.3729
  141OSM    H1S15430   6.059   1.141   6.565 -1.3847 -0.0498 -0.6602
  141OSM    H1T15431   6.164   1.285   6.567  0.6215 -2.9824  0.2368
  141OSM     NF15432   6.141   1.233   6.319 -0.3418  0.4803 -0.5808
  141OSM    HNF15433   6.214   1.288   6.281 -1.2566  0.8693 -1.8365
  141OSM    C2S15434   6.039   1.297   6.409 -0.6535 -0.4891 -0.1173
  141OSM    H2S15435   5.938   1.256   6.389 -1.9757  0.9214  3.0351
  141OSM    C3S15436   6.022   1.448   6.385 -0.6229 -0.2671  0.4267
  141OSM    H3S15437   6.112   1.510   6.406 -2.1601  2.6816 -0.9829
  141OSM     O315438   5.915   1.502   6.466  0.3419 -0.2149  0.3782
  141OSM    HO315439   5.900   1.433   6.531  2.3753 -0.4471  0.6681
  141OSM    C4S15440   5.990   1.470   6.234  0.3247  0.4813 -0.0458
  141OSM    H4S15441   6.072   1.511   6.173  1.7684 -1.2924  0.6164
  141OSM    C5S15442   5.873   1.438   6.175  0.3090 -0.5890  0.0616
  141OSM    H5S15443   5.791   1.386   6.226  1.5400 -1.5978  1.0860
  141OSM    C6S15444   5.843   1.458   6.026 -0.7706  0.0853  0.2431
  141OSM    H6S15445   5.856   1.560   5.985 -2.7702 -0.6062 -2.3303
  141OSM    H6T15446   5.737   1.427   6.012 -1.1483  0.6473  1.7234
  141OSM    C7S15447   5.930   1.372   5.933 -0.5650 -0.1841  0.2623
  141OSM    H7S15448   6.038   1.399   5.940 -1.0157  1.8629  0.0654
  141OSM    H7T15449   5.896   1.402   5.832  0.3283 -1.2873 -0.3957
  141OSM    C8S15450   5.914   1.222   5.943  0.1111  0.1438 -0.0912
  141OSM    H8S15451   5.814   1.195   5.903  0.2989 -2.6536  1.1349
  141OSM    H8T15452   5.929   1.192   6.048  1.2831  2.9954  0.6451
  141OSM    C9S15453   6.005   1.141   5.860  0.2237  0.0439  0.1166
  141OSM    H9S15454   5.994   1.033   5.886 -0.0011 -0.5937 -2.3667
  141OSM    H9T15455   6.112   1.167   5.876  0.0723  1.6378 -1.2845
  141OSM   C10S15456   5.983   1.145   5.713  0.2818 -0.7546 -0.0240
  141OSM   H10S15457   6.021   1.240   5.669 -2.3305  0.5987  0.4199
  141OSM   H10T15458   5.873   1.137   5.701  0.0314  1.0509  0.7591
  141OSM   C11S15459   6.076   1.045   5.645  0.4599 -0.2707  0.0052
  141OSM   H11S15460   6.041   0.947   5.685 -1.3864 -0.6923 -2.3692
  141OSM   H11T15461   6.178   1.066   5.681 -0.3303  2.5862  0.8038
  141OSM   C12S15462   6.062   1.046   5.496  0.5457 -0.7788  0.3428
  141OSM   H12S15463   6.103   1.147   5.471 -0.1063 -0.6172 -0.1114
  141OSM   H12T15464   5.954   1.044   5.470  0.4292 -2.3876  0.8751
  141OSM   C13S15465   6.131   0.930   5.415  0.4282 -0.0049  0.3033
  141OSM   H13S15466   6.071   0.837   5.426 -0.1661  0.1158 -1.6426
  141OSM   H13T15467   6.229   0.908   5.463 -0.1368 -1.1394  0.9685
  141OSM   C14S15468   6.148   0.965   5.261  0.6373  0.2759 -0.4344
  141OSM   H14S15469   6.145   1.074   5.240 -2.2829  0.3488 -0.0190
  141OSM   H14T15470   6.063   0.913   5.212  0.9792 -0.7885  0.0564
  141OSM   C15S15471   6.273   0.909   5.189  0.1523  0.6607  0.2818
  141OSM   H15S15472   6.282   0.800   5.211 -1.4109 -0.0602 -2.2796
  141OSM   H15T15473   6.366   0.957   5.225  0.5885 -0.2275  0.3833
  141OSM   C16S15474   6.259   0.934   5.035 -0.5418 -0.0671 -0.0679
  141OSM   H16S15475   6.364   0.928   4.999 -0.5370 -0.6984  0.0295
  141OSM   H16T15476   6.223   1.037   5.016  1.8443  0.8387  0.0113
  141OSM   C17S15477   6.182   0.835   4.955  0.1976  0.1418 -0.2905
  141OSM   H17S15478   6.072   0.828   4.966  0.3536 -2.9053  0.2848
  141OSM   H17T15479   6.225   0.736   4.984 -1.1679 -0.4095 -0.0794
  141OSM   C18S15480   6.209   0.851   4.807  0.4459 -0.0888  0.2383
  141OSM   H18S15481   6.310   0.811   4.785  0.5426 -1.4229  2.7427
  141OSM   H18T15482   6.193   0.955   4.771 -0.5033 -0.1593  0.4303
  141OSM   H18U15483   6.136   0.784   4.758 -0.3163  1.4011 -0.7636
  141OSM    C1F15484   6.148   1.100   6.295  0.9292  0.5630 -0.4146
  141OSM     OF15485   6.080   1.016   6.353  0.4239  0.9276  0.0128
  141OSM    C2F15486   6.251   1.058   6.202 -0.6126  0.2226  0.1152
  141OSM    H2F15487   6.212   0.980   6.134  0.9856  0.0643 -0.6528
  141OSM    H2G15488   6.344   1.012   6.242 -1.2036 -1.9085 -0.8446
  141OSM    C3F15489   6.313   1.174   6.116 -0.4928  0.0166 -0.5912
  141OSM    H3F15490   6.384   1.236   6.176 -2.5713  0.3233  1.7230
  141OSM    H3G15491   6.241   1.249   6.079  0.9232  1.7902  0.1230
  141OSM    C4F15492   6.375   1.125   5.991  0.0432  0.2299 -0.2942
  141OSM    H4F15493   6.427   1.202   5.930  1.4646  0.7420  1.4780
  141OSM    H4G15494   6.297   1.086   5.922 -1.2712  1.2629  0.5587
  141OSM    C5F15495   6.485   1.013   6.019  0.2998 -0.2390  0.3260
  141OSM    H5F15496   6.453   0.918   6.067  0.0762 -0.1380  0.3797
  141OSM    H5G15497   6.559   1.059   6.088  0.1222 -0.7510  0.8704
  141OSM    C6F15498   6.572   0.976   5.899  0.1515  0.1103 -0.0032
  141OSM    H6F15499   6.663   0.919   5.926 -0.5911 -0.1835  2.0181
  141OSM    H6G15500   6.615   1.075   5.873  1.3957 -0.5437 -0.5625
  141OSM    C7F15501   6.494   0.910   5.790 -0.1496 -0.0733  0.0825
  141OSM    H7F15502   6.387   0.925   5.816  0.3372  1.4296  1.4271
  141OSM    H7G15503   6.502   0.800   5.803  2.6068  0.0759  0.1685
  141OSM    C8F15504   6.527   0.955   5.648 -0.1292  0.6376 -0.1979
  141OSM    H8F15505   6.533   1.065   5.659 -0.0166  0.8988 -2.5196
  141OSM    H8G15506   6.441   0.920   5.588 -1.9728 -1.6168  3.3906
  141OSM    C9F15507   6.659   0.879   5.615 -0.2231  0.2553  0.3078
  141OSM    H9F15508   6.723   0.886   5.704  2.0377  0.4681 -1.2709
  141OSM   C10F15509   6.687   0.795   5.509 -0.6330 -0.5312  1.0546
  141OSM   H10F15510   6.791   0.767   5.490 -0.8410  0.3828 -1.9261
  141OSM   C11F15511   6.593   0.773   5.393 -0.4203 -0.4999  0.1877
  141OSM   H11F15512   6.525   0.860   5.385 -0.3882 -0.6166 -2.0227
  141OSM   H11G15513   6.538   0.679   5.414 -0.9716 -0.5443 -1.3107
  141OSM   C12F15514   6.672   0.772   5.258  0.2463 -0.8172  0.7234
  141OSM   H12F15515   6.740   0.685   5.276  0.2546 -0.8288  0.6381
  141OSM   H12G15516   6.738   0.861   5.261 -0.2316 -0.4084 -0.3457
  141OSM   C13F15517   6.595   0.775   5.123 -0.4599 -0.1587  0.9831
  141OSM   H13F15518   6.578   0.878   5.084 -0.6429  0.2639  2.1283
  141OSM   H13G15519   6.496   0.728   5.141 -0.1250 -1.2505  0.0475
  141OSM   C14F15520   6.668   0.696   5.017  0.2538  0.4304  0.1425
  141OSM   H14F15521   6.674   0.588   5.041 -0.6689 -0.3979 -2.8727
  141OSM   H14G15522   6.771   0.739   5.021  1.9471 -3.2488 -0.2782
  141OSM   C15F15523   6.600   0.718   4.878  0.2984 -0.4337  0.2203
  141OSM   H15F15524   6.593   0.826   4.853 -0.5878 -0.5993 -0.3175
  141OSM   H15G15525   6.495   0.679   4.881 -0.2424  0.4074 -3.6135
  141OSM   C16F15526   6.678   0.656   4.765 -0.0417 -0.4673 -0.2411
  141OSM   H16F15527   6.652   0.548   4.774  0.5302 -0.4841  1.6863
  141OSM   H16G15528   6.786   0.665   4.787  0.5728 -2.6454 -1.9344
  141OSM   C17F15529   6.634   0.717   4.637 -0.0949 -0.3171 -0.4180
  141OSM   H17F15530   6.657   0.825   4.637 -0.1327 -0.3089 -0.2293
  141OSM   H17G15531   6.524   0.700   4.634 -0.2300  0.3452  0.3594
  141OSM   C18F15532   6.703   0.661   4.521  0.1101  0.2743  0.7995
  141OSM   H18F15533   6.809   0.694   4.518 -0.0643  0.8434  0.8372
  141OSM   H18G15534   6.674   0.697   4.420  2.1666 -1.1540 -0.3737
  141OSM   H18H15535   6.709   0.550   4.515  0.7766  0.2914  1.1096
  142OSM      N15536   1.554   0.932   6.821 -0.5704 -0.1660  0.4061
  142OSM    C1515537   1.503   0.900   6.681 -0.4632 -0.6431  0.4968
  142OSM   H15A15538   1.550   0.815   6.633  0.7852 -0.1126  0.7552
  142OSM   H15B15539   1.529   0.984   6.620  1.2194 -0.6106  1.2173
  142OSM   H15C15540   1.396   0.889   6.668 -1.1834  4.1326  0.5300
  142OSM    C1415541   1.501   0.842   6.926 -0.5219  0.1608  0.1770
  142OSM   H14A15542   1.549   0.856   7.022  0.1171 -1.0150  0.0505
  142OSM   H14B15543   1.528   0.745   6.887 -0.6275  0.0254  0.4409
  142OSM   H14C15544   1.393   0.845   6.934 -0.5895 -0.7153 -0.2548
  142OSM    C1315545   1.710   0.928   6.816 -0.3861  0.1541  0.1470
  142OSM   H13A15546   1.749   0.963   6.910  0.0090 -1.4758  0.6190
  142OSM   H13B15547   1.734   1.002   6.740 -1.4969 -0.8744 -1.2642
  142OSM   H13C15548   1.741   0.828   6.791 -1.1019 -0.8242  2.8251
  142OSM    C1215549   1.519   1.073   6.846  0.1775 -0.4874 -0.5716
  142OSM   H12A15550   1.520   1.092   6.953 -2.3425  1.9253 -0.8584
  142OSM   H12B15551   1.416   1.082   6.815  0.2832  0.7478 -0.6098
  142OSM    C1115552   1.591   1.190   6.779 -0.4458  0.2198  0.0992
  142OSM   H11A15553   1.693   1.202   6.821  0.1945 -0.2273 -1.2640
  142OSM   H11B15554   1.548   1.288   6.808 -2.4015 -0.2353 -1.0861
  142OSM      P15555   1.569   1.274   6.525 -0.5928  0.1593 -0.4928
  142OSM    O1315556   1.428   1.252   6.491 -0.3021  0.1329 -0.0441
  142OSM    O1415557   1.618   1.406   6.560 -0.2541  0.1359  0.0165
  142OSM    O1115558   1.663   1.235   6.403 -0.6662 -1.0476 -0.3168
  142OSM    O1215559   1.605   1.169   6.641 -0.4467  0.9082 -0.4636
  142OSM    C1S15560   1.730   1.115   6.396 -0.8215 -0.8718 -0.1715
  142OSM    H1S15561   1.681   1.033   6.454 -0.0074 -0.7677  0.7113
  142OSM    H1T15562   1.829   1.133   6.445 -0.4204 -1.0441 -0.9100
  142OSM     NF15563   1.825   0.923   6.263  0.4285  0.2274 -0.3466
  142OSM    HNF15564   1.924   0.916   6.274  0.2186 -0.2935  1.4556
  142OSM    C2S15565   1.766   1.061   6.251  0.4038 -0.1056  0.2176
  142OSM    H2S15566   1.673   1.067   6.191  0.0854  0.0041  0.7229
  142OSM    C3S15567   1.857   1.160   6.178  0.2491 -0.0055 -0.2869
  142OSM    H3S15568   1.960   1.142   6.217 -0.4969 -1.8808  0.9839
  142OSM     O315569   1.834   1.294   6.200  0.2654  0.1643  0.1382
  142OSM    HO315570   1.772   1.282   6.272 -0.2874  1.3247 -0.1089
  142OSM    C4S15571   1.855   1.119   6.029 -0.7617  0.6461  0.1375
  142OSM    H4S15572   1.929   1.038   6.020 -1.9840 -0.4728 -0.1094
  142OSM    C5S15573   1.776   1.144   5.920 -0.6125  0.6584  0.4884
  142OSM    H5S15574   1.695   1.218   5.926 -1.4471 -0.2256  0.3078
  142OSM    C6S15575   1.792   1.071   5.786 -0.8393 -0.0382 -0.1917
  142OSM    H6S15576   1.850   1.121   5.705 -0.5348 -0.2309 -0.0915
  142OSM    H6T15577   1.691   1.053   5.743 -0.4590  0.1291 -1.1894
  142OSM    C7S15578   1.852   0.929   5.805  0.4345  0.5406 -0.5718
  142OSM    H7S15579   1.780   0.863   5.857  1.0323  0.1181 -0.2719
  142OSM    H7T15580   1.945   0.924   5.866 -1.1860  0.7533  2.0707
  142OSM    C8S15581   1.875   0.862   5.667 -0.3727  0.1988  0.1693
  142OSM    H8S15582   1.963   0.922   5.637  0.5377 -0.0230  2.2226
  142OSM    H8T15583   1.795   0.886   5.594 -1.1758  0.1117  0.9948
  142OSM    C9S15584   1.913   0.717   5.677 -0.7757  0.4051 -0.3871
  142OSM    H9S15585   1.818   0.660   5.668  0.2050 -1.3847  0.0999
  142OSM    H9T15586   1.959   0.687   5.774  0.4677  1.4458 -0.6217
  142OSM   C10S15587   2.018   0.687   5.569 -0.5833 -0.1704 -0.2103
  142OSM   H10S15588   2.074   0.596   5.600  1.5667  1.0020 -0.4864
  142OSM   H10T15589   2.098   0.762   5.585  1.0497 -1.8560 -0.1214
  142OSM   C11S15590   1.975   0.682   5.424 -0.0249 -0.6828  0.2517
  142OSM   H11S15591   1.872   0.641   5.418 -0.9087  1.4232  0.2099
  142OSM   H11T15592   2.046   0.615   5.371  0.3882  0.9998 -1.4101
  142OSM   C12S15593   1.985   0.819   5.346 -0.1547 -1.0836  0.3173
  142OSM   H12S15594   2.089   0.848   5.372 -0.7259 -0.6169  2.2405
  142OSM   H12T15595   1.912   0.895   5.381  1.5213  0.8064 -0.0987
  142OSM   C13S15596   1.949   0.798   5.199  1.0024 -0.4748 -0.3466
  142OSM   H13S15597   1.857   0.738   5.191  0.7695  0.1181 -3.2097
  142OSM   H13T15598   2.025   0.738   5.144  1.5139 -1.4862  1.3783
  142OSM   C14S15599   1.910   0.928   5.135  0.1297  1.0495  0.5073
  142OSM   H14S15600   1.988   1.006   5.127  1.5433 -0.4246 -0.6414
  142OSM   H14T15601   1.829   0.981   5.191 -1.4554 -1.5483  0.8343
  142OSM   C15S15602   1.865   0.914   4.987  1.2903  0.2807  0.2490
  142OSM   H15S15603   1.777   0.847   4.977 -0.2065  2.2746 -0.5364
  142OSM   H15T15604   1.941   0.859   4.928  2.2126 -1.0038  2.4850
  142OSM   C16S15605   1.830   1.044   4.915  0.6440  0.4933 -0.0182
  142OSM   H16S15606   1.917   1.112   4.899 -0.2343  2.3332  2.3560
  142OSM   H16T15607   1.763   1.106   4.979 -1.7917 -1.1179 -0.8620
  142OSM   C17S15608   1.743   1.013   4.792  1.0463 -0.0143 -0.3437
  142OSM   H17S15609   1.641   0.992   4.829  2.4297 -3.0382  2.1691
  142OSM   H17T15610   1.790   0.932   4.733  0.7528  0.7917 -1.7175
  142OSM   C18S15611   1.731   1.137   4.692 -0.1209 -0.2258  0.6913
  142OSM   H18S15612   1.834   1.168   4.666 -0.3958 -1.2592 -1.9084
  142OSM   H18T15613   1.685   1.227   4.737 -2.4495 -1.0952  0.2107
  142OSM   H18U15614   1.673   1.107   4.602  3.3890  0.7462 -2.1054
  142OSM    C1F15615   1.744   0.816   6.283  0.4634 -0.2262 -0.5680
  142OSM     OF15616   1.620   0.828   6.282 -0.0880  0.6658  0.1426
  142OSM    C2F15617   1.808   0.688   6.324  0.0172 -0.3910  0.1617
  142OSM    H2F15618   1.793   0.679   6.434 -2.0338  3.0604  0.3113
  142OSM    H2G15619   1.915   0.690   6.296 -0.0774 -1.5299 -0.3442
  142OSM    C3F15620   1.751   0.560   6.253 -0.4901  0.5881 -0.7647
  142OSM    H3F15621   1.654   0.524   6.292 -0.0523 -0.6736 -0.8081
  142OSM    H3G15622   1.819   0.478   6.285 -2.6165 -0.4643  1.3849
  142OSM    C4F15623   1.750   0.547   6.102 -0.4703 -0.0711  0.3998
  142OSM    H4F15624   1.761   0.441   6.068  1.6125  0.9907 -2.7099
  142OSM    H4G15625   1.840   0.601   6.066 -0.7222  1.4615  1.9581
  142OSM    C5F15626   1.639   0.624   6.031 -0.3855 -0.8100 -0.6677
  142OSM    H5F15627   1.664   0.732   6.036  0.0711 -0.9672  1.1627
  142OSM    H5G15628   1.545   0.615   6.090  0.8776  0.7381  1.7414
  142OSM    C6F15629   1.620   0.582   5.882 -0.2509 -0.1276  0.2177
  142OSM    H6F15630   1.620   0.471   5.876 -3.3287 -0.1660 -2.1600
  142OSM    H6G15631   1.700   0.629   5.821 -0.2417  1.8512  1.6839
  142OSM    C7F15632   1.496   0.635   5.816  0.3901  0.1360  0.9265
  142OSM    H7F15633   1.480   0.739   5.853  0.0681 -0.0082  1.1953
  142OSM    H7G15634   1.405   0.580   5.847  0.0842 -0.0125 -0.2183
  142OSM    C8F15635   1.503   0.649   5.661 -0.5083  0.0336  0.5619
  142OSM    H8F15636   1.526   0.545   5.628 -0.0654  0.6240 -1.1311
  142OSM    H8G15637   1.588   0.717   5.638 -0.9586  0.0816 -1.1378
  142OSM    C9F15638   1.374   0.700   5.590  0.3058  0.9347 -0.3879
  142OSM    H9F15639   1.278   0.671   5.635  1.3209 -2.3922 -0.0907
  142OSM   C10F15640   1.363   0.765   5.472  0.2587 -0.2319 -0.6638
  142OSM   H10F15641   1.259   0.794   5.450  0.5457  0.3349 -1.3279
  142OSM   C11F15642   1.472   0.808   5.375  0.2289 -0.2551 -0.6085
  142OSM   H11F15643   1.570   0.781   5.421  0.2176  2.8132  1.5140
  142OSM   H11G15644   1.471   0.918   5.386  1.4335 -0.3441  0.7180
  142OSM   C12F15645   1.478   0.752   5.228  0.3029  0.4367 -0.1192
  142OSM   H12F15646   1.532   0.811   5.151 -0.4522 -1.2888 -2.0693
  142OSM   H12G15647   1.374   0.760   5.192  0.2146 -1.6748 -0.4854
  142OSM   C13F15648   1.524   0.606   5.217  0.8399  0.0193  0.6390
  142OSM   H13F15649   1.475   0.550   5.299  0.3311  0.1913  0.4577
  142OSM   H13G15650   1.634   0.590   5.227  0.8157  0.2368  1.2601
  142OSM   C14F15651   1.496   0.549   5.072  0.0816  0.2583 -0.1896
  142OSM   H14F15652   1.395   0.575   5.034 -0.2795 -0.5496  0.1975
  142OSM   H14G15653   1.500   0.439   5.087  1.5988  0.5439  1.9902
  142OSM   C15F15654   1.584   0.594   4.954  1.2951  0.5815  0.4046
  142OSM   H15F15655   1.686   0.556   4.975  1.1086 -1.1016 -1.4422
  142OSM   H15G15656   1.585   0.705   4.965 -1.8700  0.7541 -0.0569
  142OSM   C16F15657   1.546   0.556   4.808 -0.2488  0.4493  0.2311
  142OSM   H16F15658   1.441   0.586   4.785 -0.1453  0.0809 -0.7813
  142OSM   H16G15659   1.547   0.445   4.793  0.4885  0.4688  0.1145
  142OSM   C17F15660   1.632   0.631   4.700  0.0463  0.4426  0.3860
  142OSM   H17F15661   1.607   0.739   4.707 -2.6857  0.1416 -2.5476
  142OSM   H17G15662   1.612   0.599   4.595 -0.7419 -0.3187  0.7496
  142OSM   C18F15663   1.779   0.616   4.717 -0.5677  0.0013 -0.4901
  142OSM   H18F15664   1.803   0.508   4.710 -0.2480  0.1111 -1.1742
  142OSM   H18G15665   1.796   0.646   4.823  0.4484  1.1119 -0.9424
  142OSM   H18H15666   1.845   0.682   4.657  2.3208 -0.1733  2.2124
  143OSM      N15667   0.127   0.275   6.503 -0.3431  0.0763 -0.0436
  143OSM    C1515668   0.038   0.386   6.540 -0.2845  0.0142  0.8751
  143OSM   H15A15669   0.059   0.476   6.485  0.2559 -1.4260 -1.3906
  143OSM   H15B15670   0.049   0.408   6.646  1.5518 -0.1887  0.7632
  143OSM   H15C15671  -0.061   0.353   6.516 -0.9676  2.0972  0.5994
  143OSM    C1415672   0.126   0.267   6.352 -0.2617 -0.0118  0.1777
  143OSM   H14A15673   0.166   0.358   6.309 -1.7528  0.5005 -0.1994
  143OSM   H14B15674   0.024   0.259   6.317 -0.1199 -2.4897  0.1396
  143OSM   H14C15675   0.175   0.175   6.326  2.1672  1.0410  0.7162
  143OSM    C1315676   0.263   0.308   6.551 -0.0264 -0.0647  0.0605
  143OSM   H13A15677   0.330   0.224   6.547  3.0983  2.1627  1.3663
  143OSM   H13B15678   0.258   0.335   6.655  1.2292  1.7689 -0.2884
  143OSM   H13C15679   0.294   0.400   6.502  0.3805 -0.7217 -0.9437
  143OSM    C1215680   0.071   0.144   6.562 -0.2458  0.1582  0.2192
  143OSM   H12A15681   0.072   0.143   6.670 -0.0763 -0.4944  0.2122
  143OSM   H12B15682   0.142   0.068   6.533  1.1819  1.9586 -1.3010
  143OSM    C1115683  -0.073   0.111   6.522 -0.6442 -0.0701  0.3275
  143OSM   H11A15684  -0.075   0.126   6.412  0.2023  1.1786  0.4601
  143OSM   H11B15685  -0.133   0.187   6.577  0.1493  0.1823  0.8728
  143OSM      P15686  -0.265  -0.066   6.530 -0.4241  0.6155  0.0849
  143OSM    O1315687  -0.280  -0.213   6.546 -0.4802 -0.3160 -0.9649
  143OSM    O1415688  -0.351   0.016   6.623 -0.1580  0.0962 -0.1525
  143OSM    O1115689  -0.298  -0.026   6.379 -0.3191 -0.0072 -0.3300
  143OSM    O1215690  -0.111  -0.022   6.552  0.1462 -0.1972 -0.5182
  143OSM    C1S15691  -0.350   0.097   6.335 -0.0025  0.3487 -0.4695
  143OSM    H1S15692  -0.300   0.190   6.368  0.0330  0.9030 -2.0283
  143OSM    H1T15693  -0.456   0.099   6.367  0.1512  1.9271  0.0055
  143OSM     NF15694  -0.385   0.250   6.141  0.0278 -0.0292  0.0780
  143OSM    HNF15695  -0.477   0.286   6.146 -1.0183 -2.4527 -0.3046
  143OSM    C2S15696  -0.358   0.110   6.173  0.4176 -0.3589 -0.7921
  143OSM    H2S15697  -0.258   0.082   6.134  0.4518  0.5568 -1.3664
  143OSM    C3S15698  -0.443  -0.009   6.121 -0.5465  0.5458  0.2015
  143OSM    H3S15699  -0.544   0.005   6.166  0.2513  3.0721  1.4555
  143OSM     O315700  -0.401  -0.139   6.166  0.4179 -0.4219 -0.9246
  143OSM    HO315701  -0.347  -0.113   6.241 -1.2264 -1.1304  0.5950
  143OSM    C4S15702  -0.441   0.010   5.978  0.5931  0.3320  0.1893
  143OSM    H4S15703  -0.344   0.043   5.938 -0.2094  1.5690 -0.8073
  143OSM    C5S15704  -0.542   0.018   5.891  0.3477  0.5140  0.2779
  143OSM    H5S15705  -0.650   0.007   5.909  0.1775  0.8998 -0.4540
  143OSM    C6S15706  -0.528   0.049   5.743 -0.0442 -0.3529  0.0798
  143OSM    H6S15707  -0.426   0.047   5.699 -1.1643 -0.8042 -2.6968
  143OSM    H6T15708  -0.575   0.147   5.722 -0.0575 -0.3610  0.0728
  143OSM    C7S15709  -0.612  -0.048   5.660  0.6776  0.3475 -0.6961
  143OSM    H7S15710  -0.720  -0.030   5.679  0.7046  1.0297 -1.1464
  143OSM    H7T15711  -0.588  -0.153   5.684  2.2049  0.6018 -0.9990
  143OSM    C8S15712  -0.588  -0.036   5.513  0.2684 -0.0626  0.2528
  143OSM    H8S15713  -0.480  -0.051   5.490  0.1744  1.6280 -1.5702
  143OSM    H8T15714  -0.618   0.067   5.482  0.6102  0.3483  1.2507
  143OSM    C9S15715  -0.659  -0.145   5.432 -0.4925  0.4222 -0.1371
  143OSM    H9S15716  -0.769  -0.143   5.449 -0.2930  0.9729  1.2533
  143OSM    H9T15717  -0.627  -0.241   5.478  0.3288  0.1924 -1.1441
  143OSM   C10S15718  -0.626  -0.153   5.280  0.0955 -0.0285 -0.3163
  143OSM   H10S15719  -0.516  -0.152   5.269 -0.0197  0.2599 -1.5428
  143OSM   H10T15720  -0.658  -0.060   5.229  0.6280 -0.5551 -1.6398
  143OSM   C11S15721  -0.695  -0.274   5.208  0.3233  0.1602 -0.4953
  143OSM   H11S15722  -0.802  -0.268   5.237 -0.1407  1.1318 -2.2718
  143OSM   H11T15723  -0.658  -0.365   5.259 -1.2463  1.1829  2.7811
  143OSM   C12S15724  -0.673  -0.265   5.057  0.0727  0.3571  0.1230
  143OSM   H12S15725  -0.567  -0.287   5.032  0.5010 -1.7885  3.2341
  143OSM   H12T15726  -0.693  -0.158   5.038  1.5940  1.2218  2.8145
  143OSM   C13S15727  -0.775  -0.361   4.979 -0.2300 -0.6160 -0.2426
  143OSM   H13S15728  -0.875  -0.318   4.999  0.4580  2.9461 -3.2840
  143OSM   H13T15729  -0.770  -0.463   5.022 -0.4504 -0.7798 -0.5990
  143OSM   C14S15730  -0.760  -0.370   4.823 -0.2582 -0.3463  0.0789
  143OSM   H14S15731  -0.666  -0.419   4.789  0.6447  2.1472 -1.2641
  143OSM   H14T15732  -0.763  -0.264   4.789  1.1743 -0.3303 -0.0740
  143OSM   C15S15733  -0.872  -0.461   4.766 -0.3640  0.3777 -0.0687
  143OSM   H15S15734  -0.972  -0.435   4.807  0.0470  0.6413  0.7921
  143OSM   H15T15735  -0.852  -0.561   4.808  2.4735  1.5287  1.5940
  143OSM   C16S15736  -0.865  -0.464   4.612 -0.0240 -0.0565 -0.0281
  143OSM   H16S15737  -0.948  -0.530   4.580  0.9897 -0.9465 -0.9105
  143OSM   H16T15738  -0.767  -0.504   4.579  0.5607  0.5611  0.9023
  143OSM   C17S15739  -0.886  -0.319   4.552  0.0897 -0.2781 -0.0863
  143OSM   H17S15740  -0.790  -0.270   4.526 -1.1717  3.3661  1.4324
  143OSM   H17T15741  -0.940  -0.262   4.631 -0.7393  0.2814 -1.0420
  143OSM   C18S15742  -0.974  -0.324   4.429 -0.2200  0.5768 -0.6579
  143OSM   H18S15743  -1.052  -0.403   4.438  0.1983  0.3599  1.8802
  143OSM   H18T15744  -0.930  -0.342   4.328 -1.5811  0.2216 -1.2094
  143OSM   H18U15745  -1.032  -0.229   4.430 -1.0984  0.0575 -0.6788
  143OSM    C1F15746  -0.284   0.339   6.140 -0.2658 -0.0767 -0.1286
  143OSM     OF15747  -0.168   0.300   6.157  0.0107  0.2237  0.0692
  143OSM    C2F15748  -0.340   0.480   6.126 -0.6257  0.1987 -0.0485
  143OSM    H2F15749  -0.362   0.513   6.230  1.5799  1.7849 -0.0171
  143OSM    H2G15750  -0.423   0.481   6.052  1.4423 -0.7518 -2.5228
  143OSM    C3F15751  -0.251   0.585   6.061 -0.2116  0.4520  0.1346
  143OSM    H3F15752  -0.160   0.609   6.119 -0.7018 -0.6254  1.4137
  143OSM    H3G15753  -0.305   0.682   6.071 -0.7213  0.2498 -0.6114
  143OSM    C4F15754  -0.213   0.561   5.915  0.1611 -0.0050  0.3226
  143OSM    H4F15755  -0.206   0.665   5.879 -2.3524 -0.0072 -0.3180
  143OSM    H4G15756  -0.298   0.514   5.860  0.5213  0.2906 -0.5025
  143OSM    C5F15757  -0.078   0.499   5.887  0.5219 -0.3592  0.2328
  143OSM    H5F15758  -0.070   0.394   5.921  0.8507  0.1628  1.8908
  143OSM    H5G15759  -0.005   0.559   5.946  1.2136 -0.6925 -0.2834
  143OSM    C6F15760  -0.037   0.506   5.741 -0.6853 -0.0031 -0.9192
  143OSM    H6F15761   0.072   0.487   5.741 -0.2509  2.0083  1.0795
  143OSM    H6G15762  -0.051   0.607   5.697 -1.0594 -0.4964 -1.9634
  143OSM    C7F15763  -0.119   0.417   5.645 -0.3355  0.4641 -0.5173
  143OSM    H7F15764  -0.223   0.454   5.648  0.0286  1.4581  1.0245
  143OSM    H7G15765  -0.109   0.310   5.675  0.2798  0.1856 -1.6545
  143OSM    C8F15766  -0.054   0.408   5.503  0.0708  0.8117  0.0908
  143OSM    H8F15767   0.050   0.370   5.510  0.9679  3.1210  0.3090
  143OSM    H8G15768  -0.054   0.513   5.467 -2.5965  1.4500  1.6762
  143OSM    C9F15769  -0.124   0.324   5.401 -0.3153 -0.1141 -0.3410
  143OSM    H9F15770  -0.231   0.308   5.417 -0.2536  0.7090  0.9709
  143OSM   C10F15771  -0.079   0.277   5.278 -1.3420 -0.6382  0.3610
  143OSM   H10F15772  -0.145   0.220   5.211 -1.4341  0.3542 -0.4144
  143OSM   C11F15773   0.066   0.297   5.236  0.5702 -0.9790 -0.2779
  143OSM   H11F15774   0.119   0.200   5.248 -1.5976 -2.3240 -0.8160
  143OSM   H11G15775   0.119   0.371   5.300 -1.2324  0.3860 -0.2795
  143OSM   C12F15776   0.072   0.360   5.100  0.1042  0.0577 -0.4549
  143OSM   H12F15777   0.174   0.403   5.093  0.5218 -0.5837  1.2795
  143OSM   H12G15778  -0.014   0.431   5.095  1.3250  1.7495  1.1007
  143OSM   C13F15779   0.038   0.251   4.993 -0.3815  0.2037 -0.6898
  143OSM   H13F15780  -0.065   0.211   5.006  0.8868 -2.6920  1.6202
  143OSM   H13G15781   0.105   0.163   5.002  0.0463  0.2893 -2.6351
  143OSM   C14F15782   0.066   0.298   4.854 -0.0501  0.5742  0.0793
  143OSM   H14F15783   0.176   0.304   4.839  0.2503  1.8168  2.3640
  143OSM   H14G15784   0.038   0.405   4.854 -0.8642  0.3629 -0.0674
  143OSM   C15F15785  -0.014   0.225   4.748 -0.0680 -0.2683 -0.6613
  143OSM   H15F15786  -0.120   0.256   4.760  0.1549  0.0727  0.4952
  143OSM   H15G15787  -0.003   0.115   4.747 -0.8475 -0.3754  0.4708
  143OSM   C16F15788   0.029   0.267   4.605  0.0944 -0.5116  0.5394
  143OSM   H16F15789   0.131   0.230   4.580  0.4561  1.6851 -1.5837
  143OSM   H16G15790   0.017   0.377   4.608 -2.2992 -0.7352  2.5337
  143OSM   C17F15791  -0.066   0.220   4.498  0.4954  0.3787  0.5119
  143OSM   H17F15792  -0.031   0.280   4.412  0.8609 -0.0433  0.3670
  143OSM   H17G15793  -0.168   0.260   4.515  0.5244  0.9803 -0.6544
  143OSM   C18F15794  -0.065   0.075   4.466  0.0729  0.6684 -0.0276
  143OSM   H18F15795  -0.114   0.011   4.543  1.6775 -0.4998  0.0809
  143OSM   H18G15796   0.037   0.030   4.464 -0.5930 -0.9024 -0.8227
  143OSM   H18H15797  -0.112   0.075   4.365 -0.5308 -2.7530  0.1308
  144OSM      N15798   3.104   3.954   6.384  0.8721  0.9048  0.1494
  144OSM    C1515799   3.242   3.982   6.339 -0.2951 -0.1026  1.0698
  144OSM   H15A15800   3.307   3.953   6.420 -0.5168  0.1816  1.3533
  144OSM   H15B15801   3.256   4.088   6.328  0.7287 -0.2510  0.8824
  144OSM   H15C15802   3.266   3.948   6.240 -0.5392  2.0023  0.2462
  144OSM    C1415803   3.095   3.804   6.408 -0.3071 -0.2486  0.1260
  144OSM   H14A15804   2.991   3.775   6.410 -0.6387  0.5820 -2.3486
  144OSM   H14B15805   3.144   3.787   6.503  0.2615 -1.5521 -0.3803
  144OSM   H14C15806   3.139   3.742   6.332 -0.9195  0.3124 -0.7085
  144OSM    C1315807   3.072   4.020   6.513 -0.8875  0.4462  0.1850
  144OSM   H13A15808   2.971   3.999   6.543 -1.1117 -0.3631 -1.0787
  144OSM   H13B15809   3.096   4.124   6.499  0.4936  0.0942 -0.3351
  144OSM   H13C15810   3.139   3.982   6.589  0.5076  0.8156 -0.8161
  144OSM    C1215811   3.011   4.007   6.281  0.0241 -0.0605 -0.4894
  144OSM   H12A15812   2.909   3.994   6.314  0.4754 -1.1719  0.5546
  144OSM   H12B15813   3.019   3.955   6.186 -1.7700  1.6962 -1.6804
  144OSM    C1115814   3.019   4.153   6.240  0.2407 -0.4979  0.6823
  144OSM   H11A15815   2.951   4.178   6.155  1.5288 -0.8965 -0.5037
  144OSM   H11B15816   3.117   4.169   6.191  0.5142 -0.6532  1.1745
  144OSM      P15817   3.003   4.400   6.313  0.2516 -0.0610 -0.0430
  144OSM    O1315818   2.870   4.455   6.346  0.0819  0.0151 -0.7440
  144OSM    O1415819   3.115   4.465   6.379  0.4228  0.1333 -0.5063
  144OSM    O1115820   3.030   4.411   6.153 -0.5521  0.6820  0.2317
  144OSM    O1215821   3.010   4.243   6.351 -0.4929 -0.2539  0.1242
  144OSM    C1S15822   2.960   4.510   6.082 -0.2534  0.0406  0.4810
  144OSM    H1S15823   2.998   4.609   6.115  0.8976 -0.1012 -0.3726
  144OSM    H1T15824   2.853   4.509   6.112 -0.1837  0.5766  0.7623
  144OSM     NF15825   2.865   4.593   5.867  0.4387  0.1106 -0.2325
  144OSM    HNF15826   2.797   4.543   5.814  0.9315  0.2029 -0.9778
  144OSM    C2S15827   2.968   4.505   5.925 -0.2039 -0.4421  0.0484
  144OSM    H2S15828   3.067   4.549   5.901 -0.7827  0.7674 -0.2053
  144OSM    C3S15829   2.972   4.369   5.865  0.4370 -0.3253  0.2693
  144OSM    H3S15830   2.884   4.306   5.892 -0.2866  0.8272  0.6735
  144OSM     O315831   3.086   4.299   5.916  0.0784  0.1986 -0.4010
  144OSM    HO315832   3.092   4.323   6.009 -0.6326 -0.3418 -0.1990
  144OSM    C4S15833   2.984   4.378   5.711  0.7362  0.2918  0.0525
  144OSM    H4S15834   2.887   4.405   5.666  1.2933 -0.5822 -1.7442
  144OSM    C5S15835   3.096   4.363   5.636 -0.2490  0.3630  0.4721
  144OSM    H5S15836   3.196   4.340   5.676  0.0101  0.1612 -0.2731
  144OSM    C6S15837   3.106   4.376   5.486 -0.2041 -0.0309  0.5983
  144OSM    H6S15838   3.136   4.276   5.449  0.1650 -0.2684  1.5097
  144OSM    H6T15839   3.198   4.436   5.468  0.0407  0.0777  2.0578
  144OSM    C7S15840   2.988   4.440   5.411 -0.5063  0.0919 -0.5897
  144OSM    H7S15841   2.942   4.518   5.476 -3.1745 -0.9457 -1.1222
  144OSM    H7T15842   2.906   4.370   5.383 -2.2880  2.2912 -1.1962
  144OSM    C8S15843   3.034   4.493   5.281  0.1284 -0.2109  0.2276
  144OSM    H8S15844   3.134   4.540   5.283 -0.1159  0.5268 -2.0909
  144OSM    H8T15845   2.954   4.566   5.256  0.2561 -0.0135  0.3968
  144OSM    C9S15846   3.033   4.377   5.168 -0.1039  0.5912  0.1281
  144OSM    H9S15847   2.934   4.330   5.153 -1.0514  2.5552 -0.0950
  144OSM    H9T15848   3.107   4.300   5.198 -1.4930 -0.8745 -0.0935
  144OSM   C10S15849   3.076   4.451   5.038  0.1542  0.9305  0.7823
  144OSM   H10S15850   3.178   4.485   5.064  1.4101 -1.9214 -0.0065
  144OSM   H10T15851   3.005   4.533   5.013 -1.0589 -0.4332 -0.4509
  144OSM   C11S15852   3.070   4.354   4.913  0.3112 -0.1391  0.3647
  144OSM   H11S15853   2.965   4.319   4.901 -0.0597  1.6905 -2.4882
  144OSM   H11T15854   3.131   4.262   4.930  1.0116  0.4356  1.0170
  144OSM   C12S15855   3.132   4.423   4.791  0.8591 -0.6681 -0.1525
  144OSM   H12S15856   3.130   4.357   4.701 -0.0045  0.0865 -0.7076
  144OSM   H12T15857   3.241   4.441   4.798  0.4112  2.0529  0.7126
  144OSM   C13S15858   3.058   4.548   4.745  0.6152 -0.7562  0.6213
  144OSM   H13S15859   3.053   4.616   4.832 -1.4020  0.5622 -0.4530
  144OSM   H13T15860   2.958   4.515   4.709  1.4418 -2.4162 -0.2664
  144OSM   C14S15861   3.124   4.624   4.626  0.4489  0.4817 -0.6807
  144OSM   H14S15862   3.109   4.562   4.535 -1.7774 -0.1437  0.0561
  144OSM   H14T15863   3.234   4.627   4.640  0.5876 -2.0042 -0.7796
  144OSM   C15S15864   3.076   4.767   4.606  0.6388  0.0884  0.1769
  144OSM   H15S15865   3.106   4.807   4.506  0.8260  1.8030  0.8876
  144OSM   H15T15866   3.101   4.835   4.690 -1.9924  1.8417 -0.3082
  144OSM   C16S15867   2.920   4.785   4.594 -0.7087  0.4157  0.1537
  144OSM   H16S15868   2.870   4.754   4.688 -2.2743 -3.1164 -1.6898
  144OSM   H16T15869   2.871   4.739   4.506  0.8729  2.9913 -2.2526
  144OSM   C17S15870   2.883   4.938   4.579 -0.3198 -0.2462 -0.7365
  144OSM   H17S15871   2.967   4.978   4.519 -0.0451  0.4910  0.1201
  144OSM   H17T15872   2.872   4.981   4.681 -1.0411 -0.7431 -0.5994
  144OSM   C18S15873   2.761   4.950   4.492  0.1150  0.0450 -0.4167
  144OSM   H18S15874   2.722   5.053   4.481 -0.0620 -0.2534 -3.4807
  144OSM   H18T15875   2.680   4.889   4.537  0.2164  0.6905  0.6720
  144OSM   H18U15876   2.774   4.921   4.386  0.5039  2.2136 -1.0023
  144OSM    C1F15877   2.855   4.724   5.892  0.7288  1.0426 -0.4654
  144OSM     OF15878   2.929   4.783   5.967 -0.0642  0.6874  0.2155
  144OSM    C2F15879   2.738   4.793   5.834  0.2515 -0.3830  0.1565
  144OSM    H2F15880   2.726   4.885   5.895  0.1490 -1.1793  1.3799
  144OSM    H2G15881   2.644   4.735   5.845  0.3346 -0.4097  0.7292
  144OSM    C3F15882   2.743   4.810   5.683  0.6287  0.0997  0.2337
  144OSM    H3F15883   2.749   4.710   5.636 -1.2525  0.5132 -0.9899
  144OSM    H3G15884   2.818   4.886   5.651  0.1433  0.9877  1.1516
  144OSM    C4F15885   2.596   4.859   5.635 -0.1980 -0.3001  0.0698
  144OSM    H4F15886   2.581   4.963   5.672 -1.0224  0.2153 -1.6333
  144OSM    H4G15887   2.514   4.804   5.684 -0.3876  0.5586  0.7521
  144OSM    C5F15888   2.590   4.850   5.484  0.1667  0.2195  0.6821
  144OSM    H5F15889   2.598   4.744   5.453 -1.3147 -0.0601  1.1800
  144OSM    H5G15890   2.672   4.905   5.434  1.9148 -1.4051  1.6069
  144OSM    C6F15891   2.451   4.905   5.424 -0.2285 -0.5975  0.7208
  144OSM    H6F15892   2.437   5.005   5.469 -2.1289  0.1591 -1.3541
  144OSM    H6G15893   2.370   4.841   5.464 -1.5400  0.0164 -0.8482
  144OSM    C7F15894   2.443   4.916   5.269  0.5237 -0.7207  0.0176
  144OSM    H7F15895   2.465   4.817   5.223  1.9483 -0.1685 -0.5337
  144OSM    H7G15896   2.519   4.990   5.237 -0.1986 -0.9412 -2.4140
  144OSM    C8F15897   2.312   4.968   5.218 -0.8597  0.2242  0.0761
  144OSM    H8F15898   2.271   5.034   5.297 -0.4517 -0.1595  0.6226
  144OSM    H8G15899   2.255   4.873   5.218  0.2683 -0.4816 -0.8872
  144OSM    C9F15900   2.317   5.050   5.096  0.4062 -0.4661  0.4841
  144OSM    H9F15901   2.411   5.074   5.043  0.6417 -0.6550  0.8096
  144OSM   C10F15902   2.202   5.099   5.054 -1.2264 -0.3561  0.3474
  144OSM   H10F15903   2.207   5.150   4.957  0.1594 -1.2067 -0.0599
  144OSM   C11F15904   2.067   5.078   5.113  0.7366 -0.0703  0.3559
  144OSM   H11F15905   2.053   5.154   5.193 -0.7586 -0.0286  0.0873
  144OSM   H11G15906   2.051   4.977   5.157 -0.8731  0.5677  1.3469
  144OSM   C12F15907   1.952   5.098   5.005 -0.9758 -0.0492  0.4928
  144OSM   H12F15908   1.960   5.197   4.955 -0.9343  0.0846  0.7656
  144OSM   H12G15909   1.860   5.087   5.067 -1.5633  0.9057 -0.1829
  144OSM   C13F15910   1.951   4.980   4.903 -0.1989 -0.3131 -1.0098
  144OSM   H13F15911   1.945   4.885   4.960 -0.4042 -0.0123 -0.5203
  144OSM   H13G15912   2.045   4.986   4.843  0.1379  1.6102 -0.3732
  144OSM   C14F15913   1.827   4.960   4.817  0.3836 -0.5075  0.1272
  144OSM   H14F15914   1.806   5.054   4.760 -3.3029 -1.9598 -1.1908
  144OSM   H14G15915   1.735   4.948   4.877 -2.4550  0.6594 -3.5838
  144OSM   C15F15916   1.842   4.841   4.717 -0.0952 -0.4856  0.6760
  144OSM   H15F15917   1.749   4.793   4.678  1.5131 -1.7743 -1.7986
  144OSM   H15G15918   1.909   4.773   4.774  2.6952  2.0557  0.6153
  144OSM   C16F15919   1.918   4.887   4.588 -0.2108 -0.1728 -0.0224
  144OSM   H16F15920   1.944   4.788   4.543  1.2627 -0.8021  2.0313
  144OSM   H16G15921   2.010   4.942   4.618  0.1547 -1.6591  1.7695
  144OSM   C17F15922   1.847   4.968   4.477  0.4630  0.3554  0.2881
  144OSM   H17F15923   1.806   5.060   4.525  0.0925 -0.1201  0.8999
  144OSM   H17G15924   1.763   4.911   4.433  0.3635 -0.0567  0.9864
  144OSM   C18F15925   1.949   5.021   4.372  0.5187 -0.2786  0.2989
  144OSM   H18F15926   2.014   5.095   4.423  0.3758  0.7879 -1.0133
  144OSM   H18G15927   1.905   5.073   4.285 -0.5247 -0.6705  0.5725
  144OSM   H18H15928   2.016   4.936   4.348  1.9121  0.8771  0.0183
  145OSM      N15929   2.951   0.910   7.079  0.6786  0.1938  0.1582
  145OSM    C1515930   3.015   1.044   7.064 -0.0418 -0.2818  0.1720
  145OSM   H15A15931   2.941   1.109   7.019  1.3908  0.7049 -0.8251
  145OSM   H15B15932   3.112   1.034   7.018  0.7248  1.1249  1.3910
  145OSM   H15C15933   3.031   1.093   7.159 -0.7081  0.3317 -0.0180
  145OSM    C1415934   2.943   0.859   6.941  0.2853 -0.4369  0.5192
  145OSM   H14A15935   2.879   0.925   6.885  1.0841  1.4643  1.7541
  145OSM   H14B15936   2.901   0.761   6.929 -1.2788  0.2878 -0.1344
  145OSM   H14C15937   3.043   0.851   6.902  0.3027  1.1008  0.1889
  145OSM    C1315938   3.048   0.834   7.168 -0.5737 -0.2038  1.1284
  145OSM   H13A15939   3.033   0.854   7.273 -1.8237 -1.2078  1.1573
  145OSM   H13B15940   3.149   0.847   7.132 -1.7950  1.0193 -2.2311
  145OSM   H13C15941   3.027   0.728   7.164  0.1460 -0.3755  1.6038
  145OSM    C1215942   2.818   0.910   7.147 -0.1386 -0.1374  0.2890
  145OSM   H12A15943   2.833   0.920   7.254  1.2191 -0.5263  0.1527
  145OSM   H12B15944   2.770   0.818   7.117  2.0288 -1.0286 -0.5880
  145OSM    C1115945   2.719   1.020   7.107  0.3456  0.0556 -0.8348
  145OSM   H11A15946   2.750   1.110   7.163 -1.9266 -0.0711  0.7590
  145OSM   H11B15947   2.622   0.999   7.158  0.0071  2.3846 -0.4152
  145OSM      P15948   2.579   0.978   6.893  0.1372 -0.2954  0.5522
  145OSM    O1315949   2.614   0.836   6.868  0.5049 -0.3416 -0.0080
  145OSM    O1415950   2.448   1.005   6.969 -0.5934 -0.2907  0.0927
  145OSM    O1115951   2.582   1.059   6.760  0.3259  0.4188  0.3467
  145OSM    O1215952   2.698   1.047   6.966 -0.3608  0.8483  0.7775
  145OSM    C1S15953   2.555   1.200   6.748  0.0580  1.0345  0.1371
  145OSM    H1S15954   2.606   1.253   6.831  2.2251  0.6370 -0.8669
  145OSM    H1T15955   2.446   1.221   6.754 -0.8061 -2.0945 -1.9044
  145OSM     NF15956   2.646   1.406   6.618  0.6392 -0.1680  0.2503
  145OSM    HNF15957   2.580   1.462   6.570 -0.5733 -0.8637  1.0520
  145OSM    C2S15958   2.616   1.257   6.612  0.4131 -0.2080  0.0237
  145OSM    H2S15959   2.715   1.207   6.600  0.0939 -1.3440  1.7826
  145OSM    C3S15960   2.534   1.221   6.498  0.6973 -0.4114 -0.4862
  145OSM    H3S15961   2.436   1.273   6.506  0.2070 -1.1341 -1.6124
  145OSM     O315962   2.497   1.081   6.484  0.3758 -0.4264 -0.3747
  145OSM    HO315963   2.525   1.038   6.564  0.8836  0.8783  0.1797
  145OSM    C4S15964   2.595   1.262   6.367 -0.1830  0.4452 -0.3432
  145OSM    H4S15965   2.565   1.364   6.341 -0.3224  0.1415 -1.3994
  145OSM    C5S15966   2.669   1.192   6.279 -0.2158  0.2533  0.1910
  145OSM    H5S15967   2.676   1.083   6.297 -0.5689  0.0227 -0.9602
  145OSM    C6S15968   2.713   1.255   6.152  0.1981 -0.3029  0.4358
  145OSM    H6S15969   2.823   1.270   6.156  0.0455  0.7941  0.9079
  145OSM    H6T15970   2.666   1.354   6.136  1.2306  0.1946  0.3464
  145OSM    C7S15971   2.686   1.166   6.024 -0.8088  0.0258  0.5749
  145OSM    H7S15972   2.575   1.172   6.021 -0.8312 -0.4914  0.1312
  145OSM    H7T15973   2.720   1.062   6.040 -0.8955  0.2006  2.0063
  145OSM    C8S15974   2.751   1.226   5.904  0.4197  0.4700  0.2856
  145OSM    H8S15975   2.861   1.211   5.914  0.3961  0.3606  0.3867
  145OSM    H8T15976   2.725   1.334   5.901  0.3277  0.4159 -1.7402
  145OSM    C9S15977   2.708   1.159   5.775 -0.2480  0.6950 -0.2649
  145OSM    H9S15978   2.598   1.141   5.772 -0.3105  0.7724  0.9843
  145OSM    H9T15979   2.763   1.063   5.768 -3.2630 -1.3054  1.1855
  145OSM   C10S15980   2.764   1.234   5.653 -0.4653  0.1858  0.5556
  145OSM   H10S15981   2.874   1.244   5.665 -0.5001  0.7669  0.4318
  145OSM   H10T15982   2.722   1.337   5.644 -1.9559 -0.2995  1.5860
  145OSM   C11S15983   2.728   1.153   5.526 -0.2143  0.0555 -0.2748
  145OSM   H11S15984   2.625   1.178   5.495 -1.3671 -0.5076  2.7872
  145OSM   H11T15985   2.739   1.044   5.540  1.6991  0.3583  1.0785
  145OSM   C12S15986   2.818   1.195   5.404  0.1396 -0.1804  0.0181
  145OSM   H12S15987   2.924   1.171   5.427 -0.1236  0.2147  1.7654
  145OSM   H12T15988   2.801   1.302   5.381  0.4597  0.3906  2.2180
  145OSM   C13S15989   2.779   1.115   5.276 -0.2495 -0.5994 -0.3102
  145OSM   H13S15990   2.838   1.139   5.185  0.8409  1.7152  0.9362
  145OSM   H13T15991   2.674   1.143   5.253 -0.0665 -0.1513 -0.6096
  145OSM   C14S15992   2.799   0.964   5.296  0.0062 -0.1177  0.5532
  145OSM   H14S15993   2.700   0.924   5.326 -0.3024  0.1386 -0.1075
  145OSM   H14T15994   2.871   0.945   5.379 -0.3698  0.2594  0.9665
  145OSM   C15S15995   2.859   0.885   5.172  0.2008 -0.3375 -0.5535
  145OSM   H15S15996   2.893   0.782   5.195 -1.3982 -1.1602 -1.7461
  145OSM   H15T15997   2.949   0.945   5.148  0.5102 -0.0756  1.1049
  145OSM   C16S15998   2.773   0.888   5.045  0.3267 -0.2788 -1.0870
  145OSM   H16S15999   2.754   0.994   5.019  2.7440  1.1229  2.1687
  145OSM   H16T16000   2.675   0.845   5.074  0.5876 -2.3165 -2.9823
  145OSM   C17S16001   2.822   0.798   4.930  0.8375 -0.5661  0.3561
  145OSM   H17S16002   2.753   0.812   4.844  0.3488 -1.2314  0.6285
  145OSM   H17T16003   2.819   0.694   4.968  1.3441  0.0678  2.2312
  145OSM   C18S16004   2.966   0.829   4.889 -0.0240 -0.0956  0.1114
  145OSM   H18S16005   3.010   0.773   4.804  1.4229  2.4267 -0.9042
  145OSM   H18T16006   3.036   0.832   4.976 -0.0760 -0.1164  0.1536
  145OSM   H18U16007   2.969   0.934   4.851  3.1088  0.3258  1.2155
  145OSM    C1F16008   2.748   1.465   6.681 -0.5426  0.1811 -0.1742
  145OSM     OF16009   2.819   1.408   6.767  0.1274 -0.4901 -0.1074
  145OSM    C2F16010   2.771   1.612   6.644  0.2051 -0.1111  0.1400
  145OSM    H2F16011   2.740   1.676   6.729  1.4272  0.5263  0.1313
  145OSM    H2G16012   2.709   1.632   6.553  0.5528 -0.3373 -0.1484
  145OSM    C3F16013   2.917   1.650   6.598 -0.6239  0.0624  0.1741
  145OSM    H3F16014   2.959   1.575   6.528 -0.9121 -2.0657  2.1596
  145OSM    H3G16015   2.980   1.654   6.689 -0.6621  1.9369  0.1613
  145OSM    C4F16016   2.925   1.791   6.536  0.1758 -0.1896  0.0396
  145OSM    H4F16017   3.033   1.814   6.528 -0.1801  1.5238 -0.3889
  145OSM    H4G16018   2.882   1.867   6.605  2.6635  2.3209 -0.9769
  145OSM    C5F16019   2.854   1.823   6.400 -0.0022 -0.2013 -0.6685
  145OSM    H5F16020   2.870   1.928   6.368  0.1074  0.6129  1.8396
  145OSM    H5G16021   2.746   1.799   6.413  0.4247 -0.6618  3.0196
  145OSM    C6F16022   2.909   1.734   6.293  0.1848 -0.6495 -0.7214
  145OSM    H6F16023   2.892   1.631   6.331 -0.3596 -0.9580 -1.7707
  145OSM    H6G16024   3.018   1.752   6.286  0.4208  0.2494  3.2693
  145OSM    C7F16025   2.853   1.760   6.149 -0.7485 -0.0939  0.5867
  145OSM    H7F16026   2.890   1.854   6.101 -0.6453 -0.4597 -0.0460
  145OSM    H7G16027   2.747   1.791   6.155 -1.2758 -2.0606  2.6037
  145OSM    C8F16028   2.860   1.637   6.058 -0.1703 -0.8820  0.1274
  145OSM    H8F16029   2.788   1.648   5.975  0.8687 -0.2103 -0.7170
  145OSM    H8G16030   2.825   1.549   6.116 -0.4369  0.0418  1.3895
  145OSM    C9F16031   2.998   1.604   6.005  0.5318  0.1047 -0.4587
  145OSM    H9F16032   3.069   1.589   6.088 -1.3746  2.0645  1.7247
  145OSM   C10F16033   3.056   1.604   5.880 -0.0425 -0.1284  0.0374
  145OSM   H10F16034   3.164   1.585   5.872 -0.3968 -4.6152  2.7880
  145OSM   C11F16035   2.978   1.622   5.755  0.4166  0.5099  0.6317
  145OSM   H11F16036   3.012   1.712   5.699 -0.2396 -0.6714 -1.7699
  145OSM   H11G16037   2.868   1.627   5.765  0.4593 -0.0434  1.4667
  145OSM   C12F16038   3.023   1.514   5.649  0.5986  0.1408 -0.2749
  145OSM   H12F16039   2.970   1.422   5.683  0.1002  0.8444  0.8850
  145OSM   H12G16040   3.129   1.486   5.670  0.3575 -0.4226  0.2261
  145OSM   C13F16041   2.999   1.558   5.507  0.3356  0.4075 -0.7597
  145OSM   H13F16042   3.037   1.660   5.486  1.2287  0.4551  0.8942
  145OSM   H13G16043   2.889   1.563   5.490  0.0074  0.4084  1.1602
  145OSM   C14F16044   3.061   1.454   5.416 -0.6761 -0.0474 -0.3340
  145OSM   H14F16045   3.015   1.355   5.436  0.1868 -0.5244 -0.7004
  145OSM   H14G16046   3.167   1.442   5.447 -0.9903  1.3420  1.4535
  145OSM   C15F16047   3.032   1.482   5.266  0.0288 -0.0391  0.3177
  145OSM   H15F16048   2.999   1.588   5.267 -0.4522 -0.1520 -1.2995
  145OSM   H15G16049   2.951   1.411   5.239  0.0620 -0.4227  1.1721
  145OSM   C16F16050   3.155   1.464   5.181 -0.1865  0.1514 -0.1833
  145OSM   H16F16051   3.194   1.360   5.176  1.3689  0.7609 -1.2764
  145OSM   H16G16052   3.230   1.535   5.221  1.4126 -1.0672 -0.9276
  145OSM   C17F16053   3.117   1.519   5.040  0.1084 -0.3100 -0.2212
  145OSM   H17F16054   3.198   1.512   4.964  0.0221 -0.2316 -0.3214
  145OSM   H17G16055   3.104   1.628   5.060  0.1475 -0.5703  1.3527
  145OSM   C18F16056   2.988   1.467   4.970 -0.0752  0.4478 -0.3083
  145OSM   H18F16057   2.993   1.358   4.954  1.2764  0.2280  1.3436
  145OSM   H18G16058   2.966   1.515   4.872 -2.0091 -3.1575 -1.8070
  145OSM   H18H16059   2.902   1.500   5.033  0.6172  1.8777 -0.0645
  146OSM      N16060   5.047   0.211   7.033  0.7874 -0.1177  1.0595
  146OSM    C1516061   4.914   0.257   6.972 -0.4218  0.2810 -0.3874
  146OSM   H15A16062   4.851   0.315   7.039 -0.5733  1.4150 -1.4869
  146OSM   H15B16063   4.861   0.171   6.934  1.5882 -0.2333 -2.1839
  146OSM   H15C16064   4.924   0.327   6.891 -1.5863  0.4963 -0.3713
  146OSM    C1416065   5.012   0.119   7.151 -0.3202 -0.1839 -0.5037
  146OSM   H14A16066   5.103   0.116   7.209 -1.9547  1.3851  2.3806
  146OSM   H14B16067   4.978   0.025   7.109 -2.0333  1.1126 -2.2060
  146OSM   H14C16068   4.935   0.165   7.212  0.5692 -2.0711  2.1934
  146OSM    C1316069   5.114   0.137   6.920 -0.3875 -0.3238 -0.1265
  146OSM   H13A16070   5.141   0.198   6.835  0.2785 -0.2602  0.1300
  146OSM   H13B16071   5.048   0.058   6.885 -1.0472  1.1206 -2.3921
  146OSM   H13C16072   5.199   0.083   6.958 -1.2245 -0.5473  1.5092
  146OSM    C1216073   5.111   0.330   7.086  0.0275 -0.2835 -0.3186
  146OSM   H12A16074   5.042   0.386   7.148  0.2374 -1.6479  1.2024
  146OSM   H12B16075   5.132   0.409   7.015 -0.4784 -0.3954 -0.5996
  146OSM    C1116076   5.242   0.315   7.171 -0.4478  0.0648  0.4568
  146OSM   H11A16077   5.224   0.248   7.258  4.8555 -3.4639 -0.6354
  146OSM   H11B16078   5.278   0.416   7.202 -0.5613 -0.4564  2.4392
  146OSM      P16079   5.431   0.306   6.981  0.1603  0.3717  0.1003
  146OSM    O1316080   5.517   0.412   7.029 -0.4548 -0.2360  0.4681
  146OSM    O1416081   5.506   0.193   6.920  0.2974  0.4492 -0.0165
  146OSM    O1116082   5.331   0.361   6.874  0.3498  0.3216 -0.2325
  146OSM    O1216083   5.339   0.243   7.092  0.9053 -0.3969 -0.0553
  146OSM    C1S16084   5.382   0.396   6.742  0.1694  0.1360  0.7892
  146OSM    H1S16085   5.410   0.294   6.705 -3.2453 -1.1469  1.3637
  146OSM    H1T16086   5.464   0.470   6.750 -0.7998  2.3753 -4.9207
  146OSM     NF16087   5.340   0.521   6.535  0.2303 -0.2725 -0.3184
  146OSM    HNF16088   5.352   0.619   6.522  1.1785 -0.4065 -0.5194
  146OSM    C2S16089   5.279   0.480   6.661 -0.2619 -0.3997  0.3944
  146OSM    H2S16090   5.192   0.419   6.627  1.0105 -0.3569 -3.3542
  146OSM    C3S16091   5.218   0.595   6.752 -0.8616 -0.0362  0.3225
  146OSM    H3S16092   5.298   0.659   6.794  0.0583 -0.4643 -0.7433
  146OSM     O316093   5.161   0.556   6.871  0.1782 -0.4712  0.3675
  146OSM    HO316094   5.211   0.477   6.895 -0.4472 -0.4848  1.7125
  146OSM    C4S16095   5.124   0.687   6.673 -0.0317 -0.5524 -0.4355
  146OSM    H4S16096   5.175   0.772   6.625  1.2532 -1.6796 -1.1230
  146OSM    C5S16097   4.989   0.674   6.672  0.1963 -0.6085  0.1970
  146OSM    H5S16098   4.933   0.590   6.717 -2.6726  0.2168 -1.5574
  146OSM    C6S16099   4.891   0.752   6.594 -0.1882 -0.4589 -0.0650
  146OSM    H6S16100   4.823   0.805   6.665  1.6932  2.3136 -0.1864
  146OSM    H6T16101   4.842   0.677   6.529 -0.7229  0.2636 -0.5174
  146OSM    C7S16102   4.943   0.861   6.497  0.0600  0.4342  0.0047
  146OSM    H7S16103   5.007   0.934   6.552 -0.1109  0.5364  0.0665
  146OSM    H7T16104   4.854   0.916   6.463  1.0597  2.5945  0.6999
  146OSM    C8S16105   5.005   0.793   6.366  0.9840  0.5477 -1.1213
  146OSM    H8S16106   4.929   0.716   6.340  0.2200  0.5317  0.9219
  146OSM    H8T16107   5.093   0.735   6.402  0.6490  0.2488 -0.7594
  146OSM    C9S16108   5.040   0.897   6.261 -0.0060 -0.0174  0.0234
  146OSM    H9S16109   5.110   0.966   6.314 -0.7810  0.2469  0.7353
  146OSM    H9T16110   4.954   0.965   6.240  2.7926  3.7293 -0.4850
  146OSM   C10S16111   5.094   0.837   6.137 -0.0878  0.5405  0.0224
  146OSM   H10S16112   5.028   0.753   6.104  0.9292 -0.3742  0.2655
  146OSM   H10T16113   5.192   0.787   6.149 -0.3740 -0.0273  0.0120
  146OSM   C11S16114   5.098   0.925   6.009 -0.4948 -0.3703 -0.3013
  146OSM   H11S16115   5.184   0.996   6.019 -1.2842  0.8523 -1.8004
  146OSM   H11T16116   5.007   0.988   5.998  0.0261  0.1017 -2.2925
  146OSM   C12S16117   5.114   0.833   5.890 -0.0075 -0.0933  0.1953
  146OSM   H12S16118   5.018   0.791   5.853  0.5547 -1.8492  0.6643
  146OSM   H12T16119   5.179   0.749   5.921  0.2392 -0.0429 -0.1808
  146OSM   C13S16120   5.179   0.902   5.770 -0.2261 -0.5257  0.4178
  146OSM   H13S16121   5.269   0.957   5.805  0.7488 -2.3802  0.9548
  146OSM   H13T16122   5.103   0.976   5.736  3.0720  3.6294  1.2889
  146OSM   C14S16123   5.226   0.811   5.659  0.1388  0.1401 -0.2976
  146OSM   H14S16124   5.164   0.720   5.669  0.7756 -0.1774  1.0259
  146OSM   H14T16125   5.328   0.771   5.677  0.7607  1.7550 -0.0157
  146OSM   C15S16126   5.219   0.859   5.516  0.9698 -0.1614  0.6668
  146OSM   H15S16127   5.275   0.955   5.513  0.2920  0.3541  2.9114
  146OSM   H15T16128   5.112   0.878   5.492  0.7015 -1.0196  1.1441
  146OSM   C16S16129   5.286   0.754   5.423  0.5752  0.5924  0.8421
  146OSM   H16S16130   5.232   0.658   5.410  2.5541 -0.3368 -1.0302
  146OSM   H16T16131   5.387   0.739   5.466  1.0682 -2.8360 -1.1348
  146OSM   C17S16132   5.304   0.824   5.291  0.0734 -0.4770 -0.1843
  146OSM   H17S16133   5.359   0.918   5.312 -1.0438 -0.2597  2.0171
  146OSM   H17T16134   5.201   0.848   5.257  0.0567 -2.8178 -2.0756
  146OSM   C18S16135   5.382   0.739   5.196 -0.3090  0.4559  0.8868
  146OSM   H18S16136   5.471   0.683   5.232 -0.9292 -0.0465  1.6694
  146OSM   H18T16137   5.395   0.803   5.106 -2.9265 -0.2521 -0.1052
  146OSM   H18U16138   5.315   0.658   5.160  1.6087 -0.3114 -1.2222
  146OSM    C1F16139   5.389   0.436   6.449  0.2668 -0.4525 -0.9237
  146OSM     OF16140   5.372   0.317   6.466  0.3975 -0.1007  0.1220
  146OSM    C2F16141   5.457   0.480   6.325 -0.2494  0.5564 -0.2264
  146OSM    H2F16142   5.548   0.541   6.344 -0.4770  1.5842 -2.2057
  146OSM    H2G16143   5.381   0.546   6.279 -0.1320  1.9915  1.5361
  146OSM    C3F16144   5.484   0.370   6.217  0.0023  0.4743 -0.4409
  146OSM    H3F16145   5.393   0.312   6.193  1.6915 -1.7404 -1.8830
  146OSM    H3G16146   5.549   0.300   6.273 -0.5921  0.5833  0.4025
  146OSM    C4F16147   5.546   0.419   6.081 -0.6996  0.0007 -0.1670
  146OSM    H4F16148   5.586   0.331   6.027  0.1932  1.2826 -1.6487
  146OSM    H4G16149   5.629   0.491   6.098  1.1056 -1.4998 -2.1444
  146OSM    C5F16150   5.430   0.460   5.995 -1.0654 -0.2807  0.5743
  146OSM    H5F16151   5.369   0.538   6.046 -0.1062 -0.1706  1.5891
  146OSM    H5G16152   5.357   0.376   5.993  2.2102 -3.4784  2.6789
  146OSM    C6F16153   5.466   0.497   5.849  0.3325  0.0815 -0.6184
  146OSM    H6F16154   5.567   0.544   5.846  0.5642 -0.4184 -0.8609
  146OSM    H6G16155   5.382   0.539   5.790 -0.9532 -1.0442  0.3629
  146OSM    C7F16156   5.486   0.359   5.770 -0.5089  0.2687  0.1768
  146OSM    H7F16157   5.388   0.307   5.772  0.4535 -1.5868  1.0858
  146OSM    H7G16158   5.555   0.296   5.829 -1.9125 -3.1328 -1.5807
  146OSM    C8F16159   5.546   0.390   5.631  0.3407  0.0232 -0.4513
  146OSM    H8F16160   5.617   0.306   5.617  0.2134 -1.1728  4.4183
  146OSM    H8G16161   5.612   0.479   5.641 -3.0323  2.5559  1.4219
  146OSM    C9F16162   5.437   0.407   5.525  0.6117 -0.0094  0.3368
  146OSM    H9F16163   5.348   0.460   5.562 -0.5575 -2.5675  1.4041
  146OSM   C10F16164   5.442   0.363   5.399  0.2214 -0.2631 -0.1968
  146OSM   H10F16165   5.354   0.375   5.335 -0.0588  0.6257  0.3313
  146OSM   C11F16166   5.554   0.285   5.333 -0.5758 -0.0327 -0.5945
  146OSM   H11F16167   5.526   0.179   5.311  2.0503 -0.5569 -1.7314
  146OSM   H11G16168   5.652   0.284   5.384 -1.0931 -2.0147  0.4868
  146OSM   C12F16169   5.594   0.325   5.189 -0.0259 -0.3049 -0.1933
  146OSM   H12F16170   5.657   0.414   5.210  1.8171 -2.0796  2.4717
  146OSM   H12G16171   5.504   0.354   5.131 -0.6935 -0.0728  0.9345
  146OSM   C13F16172   5.687   0.220   5.118  0.1385  0.8575 -0.5718
  146OSM   H13F16173   5.634   0.122   5.115  1.5596  0.0091  0.3724
  146OSM   H13G16174   5.789   0.211   5.162  1.7478 -0.8504 -4.1827
  146OSM   C14F16175   5.705   0.257   4.966 -0.9494  0.1298 -0.3402
  146OSM   H14F16176   5.609   0.286   4.919 -0.8080 -0.3012 -0.9044
  146OSM   H14G16177   5.779   0.339   4.959 -0.9484  0.3379  1.5125
  146OSM   C15F16178   5.766   0.137   4.890  0.9417 -0.1010 -0.5025
  146OSM   H15F16179   5.726   0.121   4.787 -1.4756 -2.3775  0.6568
  146OSM   H15G16180   5.732   0.047   4.946  1.7679 -0.0561  0.0888
  146OSM   C16F16181   5.912   0.154   4.875 -0.2414  0.8891  0.5509
  146OSM   H16F16182   5.952   0.160   4.978 -0.7779  1.0947  0.7547
  146OSM   H16G16183   5.949   0.248   4.830  1.1598  0.3917  0.6367
  146OSM   C17F16184   5.976   0.034   4.803 -0.3470  0.3486 -0.0190
  146OSM   H17F16185   5.897  -0.007   4.736 -1.3867  2.7764 -0.3909
  146OSM   H17G16186   6.011  -0.043   4.874  0.2453  0.7061  0.0862
  146OSM   C18F16187   6.097   0.055   4.711 -0.5935 -0.6182  0.1749
  146OSM   H18F16188   6.132  -0.044   4.673  0.6498 -0.0494 -0.1928
  146OSM   H18G16189   6.179   0.092   4.776 -0.1628 -2.4784  0.7514
  146OSM   H18H16190   6.079   0.123   4.626 -0.1605 -1.0333 -0.2571
  147OSM      N16191   1.192   5.459   1.962  0.2680 -0.0945 -0.1344
  147OSM    C1516192   1.261   5.387   1.851 -0.0337  0.0519 -0.6514
  147OSM   H15A16193   1.191   5.345   1.780 -1.3211  0.8912  0.0826
  147OSM   H15B16194   1.314   5.303   1.892 -1.0876 -1.3994 -2.1196
  147OSM   H15C16195   1.332   5.451   1.801  0.8241  0.0499  0.5303
  147OSM    C1416196   1.088   5.549   1.918 -0.6649  0.1146  1.1186
  147OSM   H14A16197   1.132   5.638   1.876 -0.4904 -0.1640  0.7091
  147OSM   H14B16198   1.021   5.583   1.996 -2.4109  2.5456 -1.3000
  147OSM   H14C16199   1.031   5.498   1.842 -1.3829  1.6019  0.6295
  147OSM    C1316200   1.134   5.351   2.048  0.1447 -0.2351 -0.1415
  147OSM   H13A16201   1.074   5.393   2.127 -0.2826 -0.6884 -0.2214
  147OSM   H13B16202   1.216   5.287   2.077  1.2155  0.6451 -1.1332
  147OSM   H13C16203   1.073   5.283   1.990  1.0289 -0.2576 -1.0864
  147OSM    C1216204   1.297   5.537   2.042  0.2971  0.4625  0.1463
  147OSM   H12A16205   1.251   5.603   2.115  2.2463  1.8350  0.2107
  147OSM   H12B16206   1.334   5.616   1.978  2.0686  0.1958  0.7782
  147OSM    C1116207   1.423   5.461   2.106  0.4977  0.7022 -0.0889
  147OSM   H11A16208   1.472   5.546   2.159  1.0678 -0.3116  1.0505
  147OSM   H11B16209   1.502   5.429   2.035 -0.4812 -0.5513 -0.6474
  147OSM      P16210   1.455   5.213   2.217 -0.4646 -0.0536  0.3636
  147OSM    O1316211   1.365   5.124   2.293  0.0593 -0.5301  0.0620
  147OSM    O1416212   1.492   5.163   2.081  0.2313  0.2362  0.2011
  147OSM    O1116213   1.598   5.243   2.288 -0.0746  0.3722 -0.3372
  147OSM    O1216214   1.387   5.355   2.207  0.0488  0.2025  0.2744
  147OSM    C1S16215   1.614   5.318   2.410 -0.6096  0.3839 -0.8582
  147OSM    H1S16216   1.558   5.413   2.416 -0.5980  0.3107  1.2259
  147OSM    H1T16217   1.720   5.352   2.418 -0.1460 -1.3674  2.2051
  147OSM     NF16218   1.582   5.339   2.655  0.1533  0.5267  0.3275
  147OSM    HNF16219   1.671   5.355   2.696 -0.0165  1.8510  0.2179
  147OSM    C2S16220   1.583   5.242   2.544 -0.3868 -0.1187  0.6943
  147OSM    H2S16221   1.485   5.190   2.534  0.1371 -1.3229  1.5789
  147OSM    C3S16222   1.684   5.130   2.558  0.0401  0.1532  0.1365
  147OSM    H3S16223   1.779   5.180   2.586  0.0096  0.5342 -0.4177
  147OSM     O316224   1.714   5.054   2.440 -0.1737  0.1325  0.2084
  147OSM    HO316225   1.679   5.106   2.367  0.9984 -2.2447 -2.2229
  147OSM    C4S16226   1.631   5.041   2.665 -0.7159  0.6256 -0.2698
  147OSM    H4S16227   1.541   4.984   2.642 -1.6488  2.4928 -1.5118
  147OSM    C5S16228   1.694   5.026   2.789 -0.3282  0.3459 -0.1594
  147OSM    H5S16229   1.784   5.082   2.819  0.2995 -0.3022 -0.7857
  147OSM    C6S16230   1.659   4.941   2.909  0.0671 -0.1112  0.5779
  147OSM    H6S16231   1.707   4.841   2.901 -1.3125 -0.8889  1.5986
  147OSM    H6T16232   1.549   4.927   2.911  0.0198  0.1969  0.2172
  147OSM    C7S16233   1.719   4.996   3.039 -0.0504  0.3601 -0.3996
  147OSM    H7S16234   1.674   5.097   3.042  0.4086  0.5367  1.3660
  147OSM    H7T16235   1.827   5.018   3.038  0.2253 -0.8896  0.1363
  147OSM    C8S16236   1.683   4.927   3.177 -0.4071 -0.4229  0.0081
  147OSM    H8S16237   1.608   4.847   3.161 -3.1681  1.5606  2.1592
  147OSM    H8T16238   1.626   4.990   3.248 -0.7701 -2.6021  1.7563
  147OSM    C9S16239   1.804   4.874   3.259  0.0221  0.3431  0.7751
  147OSM    H9S16240   1.884   4.951   3.261 -1.0684  1.7408 -2.3894
  147OSM    H9T16241   1.831   4.776   3.214 -0.4591  0.9675 -0.9727
  147OSM   C10S16242   1.767   4.854   3.403 -0.1517  0.5428 -0.1754
  147OSM   H10S16243   1.680   4.784   3.410  0.5142 -0.1406  2.3895
  147OSM   H10T16244   1.735   4.954   3.438  1.9165  1.5706 -1.0886
  147OSM   C11S16245   1.878   4.798   3.495  0.6619  0.0514 -0.2516
  147OSM   H11S16246   1.975   4.843   3.464  1.6638 -0.1968  2.2528
  147OSM   H11T16247   1.885   4.689   3.476 -0.0665  0.0396 -0.4713
  147OSM   C12S16248   1.866   4.824   3.643  0.5980 -0.0713  0.1983
  147OSM   H12S16249   1.951   4.771   3.690 -0.0599 -0.4138  1.0247
  147OSM   H12T16250   1.768   4.786   3.679 -0.1367  1.0680 -0.5034
  147OSM   C13S16251   1.882   4.973   3.682 -0.4874 -0.1794  0.8138
  147OSM   H13S16252   1.787   5.026   3.660  0.4667  0.9290 -0.8423
  147OSM   H13T16253   1.973   5.013   3.634 -0.8644  0.0920  0.3148
  147OSM   C14S16254   1.912   4.992   3.837 -0.3943 -0.1735  0.2508
  147OSM   H14S16255   2.008   4.940   3.855 -0.5920 -0.2179  1.2341
  147OSM   H14T16256   1.827   4.963   3.903 -1.0373 -0.1529 -0.5538
  147OSM   C15S16257   1.954   5.146   3.865  0.4784  0.9155 -0.0110
  147OSM   H15S16258   1.871   5.218   3.877 -0.7403  0.0480 -2.7254
  147OSM   H15T16259   1.996   5.185   3.770  0.2017  1.1006 -0.0584
  147OSM   C16S16260   2.043   5.157   3.991 -0.1148 -0.2774  0.1159
  147OSM   H16S16261   2.141   5.106   3.981 -1.0846 -2.0628 -0.6280
  147OSM   H16T16262   1.987   5.115   4.077  0.9467 -2.5987 -0.2567
  147OSM   C17S16263   2.065   5.306   4.031  0.2299  0.2851  0.0159
  147OSM   H17S16264   1.964   5.344   4.057  0.4602  0.9515 -0.0413
  147OSM   H17T16265   2.115   5.360   3.947  0.8458  0.8306  0.7138
  147OSM   C18S16266   2.152   5.319   4.160  0.2180  0.9139  0.2684
  147OSM   H18S16267   2.105   5.255   4.238 -0.0316  0.2015 -0.4462
  147OSM   H18T16268   2.145   5.425   4.191  2.5185  1.0141  0.6615
  147OSM   H18U16269   2.257   5.290   4.138 -0.4033  0.0139 -1.6999
  147OSM    C1F16270   1.481   5.422   2.679  0.4565  0.3787  0.0168
  147OSM     OF16271   1.371   5.408   2.621 -0.1514 -0.2865 -0.4029
  147OSM    C2F16272   1.504   5.529   2.778 -0.5488 -0.8743 -0.6979
  147OSM    H2F16273   1.500   5.624   2.720  1.0871 -0.4786 -0.2250
  147OSM    H2G16274   1.608   5.528   2.817 -0.6591 -1.0972 -0.4160
  147OSM    C3F16275   1.400   5.540   2.898 -0.1893 -0.7192  0.0106
  147OSM    H3F16276   1.376   5.438   2.935  0.1353 -0.5904  0.5996
  147OSM    H3G16277   1.307   5.566   2.843 -0.7874 -3.9787 -0.6917
  147OSM    C4F16278   1.438   5.639   2.999  0.8934 -0.0215 -0.6938
  147OSM    H4F16279   1.449   5.743   2.963  1.8010  0.3032  0.4825
  147OSM    H4G16280   1.545   5.626   3.026  0.8273  0.8117  0.0104
  147OSM    C5F16281   1.336   5.645   3.108  0.1165 -0.0869  0.0313
  147OSM    H5F16282   1.239   5.645   3.054 -0.3852 -2.2490  0.8107
  147OSM    H5G16283   1.336   5.748   3.152 -0.6576 -0.0609 -0.0091
  147OSM    C6F16284   1.321   5.542   3.218  0.4494 -0.2088  0.3268
  147OSM    H6F16285   1.407   5.535   3.287  1.9202 -3.5798 -1.5729
  147OSM    H6G16286   1.307   5.445   3.164 -2.9576  0.6980 -0.6896
  147OSM    C7F16287   1.189   5.569   3.288 -0.3242 -1.1634  0.8834
  147OSM    H7F16288   1.111   5.531   3.218  1.7851 -4.3830  0.0650
  147OSM    H7G16289   1.158   5.675   3.301 -3.2307 -1.9963  1.4424
  147OSM    C8F16290   1.178   5.502   3.423  0.2946  0.7544  0.1813
  147OSM    H8F16291   1.218   5.401   3.402 -0.6240  0.8045 -2.1875
  147OSM    H8G16292   1.074   5.510   3.463  1.3706  1.6817  3.0554
  147OSM    C9F16293   1.274   5.561   3.522  0.2100  0.4833 -0.2695
  147OSM    H9F16294   1.381   5.564   3.495 -0.0558 -2.7828 -2.1862
  147OSM   C10F16295   1.241   5.603   3.647 -0.7684  0.3537  0.0845
  147OSM   H10F16296   1.321   5.646   3.708 -0.8471 -0.2434  0.6120
  147OSM   C11F16297   1.120   5.577   3.725 -0.1473 -0.3468 -0.4735
  147OSM   H11F16298   1.033   5.575   3.656 -0.6206  1.1337  0.0359
  147OSM   H11G16299   1.093   5.668   3.783 -0.3460  0.6507 -2.0847
  147OSM   C12F16300   1.125   5.448   3.803 -0.4924  0.4282 -0.3023
  147OSM   H12F16301   1.143   5.361   3.737 -0.6931 -0.6706  1.0373
  147OSM   H12G16302   1.030   5.435   3.859 -2.5004 -1.2656 -3.7975
  147OSM   C13F16303   1.242   5.447   3.901 -0.7265 -0.5373 -0.0563
  147OSM   H13F16304   1.340   5.437   3.849  0.4985  0.6772  1.8830
  147OSM   H13G16305   1.228   5.355   3.962 -2.5348 -1.7173 -2.1239
  147OSM   C14F16306   1.240   5.571   3.995  0.1261  0.4207  0.2852
  147OSM   H14F16307   1.150   5.636   3.987  1.9188  3.0446  0.2692
  147OSM   H14G16308   1.323   5.637   3.962  2.1200 -0.6752  2.7592
  147OSM   C15F16309   1.268   5.522   4.139 -0.3347  0.4140 -0.2172
  147OSM   H15F16310   1.295   5.608   4.203 -1.2588  0.0661  0.6671
  147OSM   H15G16311   1.359   5.458   4.142 -0.6389 -0.0802 -1.0609
  147OSM   C16F16312   1.153   5.449   4.215  0.0506 -0.2264 -0.2450
  147OSM   H16F16313   1.185   5.410   4.314  0.7154  0.1139 -0.3186
  147OSM   H16G16314   1.134   5.360   4.151  0.0859 -0.4961  0.1184
  147OSM   C17F16315   1.018   5.525   4.219  0.3726 -0.0745  0.2709
  147OSM   H17F16316   0.950   5.446   4.256  2.8017 -1.7398  1.4253
  147OSM   H17G16317   0.985   5.553   4.116 -1.9827 -0.0982  0.9491
  147OSM   C18F16318   1.010   5.654   4.307 -0.0286 -0.1033 -0.3969
  147OSM   H18F16319   1.092   5.725   4.283  2.1278 -2.1718  0.3846
  147OSM   H18G16320   1.023   5.617   4.411 -0.7811 -0.9588 -0.5958
  147OSM   H18H16321   0.911   5.703   4.299 -1.8679 -3.6133 -1.5088
  148OSM      N16322   1.527   4.760   2.000 -0.3883  0.3108  0.3595
  148OSM    C1516323   1.476   4.854   2.108  0.2225  0.0342  1.0186
  148OSM   H15A16324   1.370   4.842   2.127 -0.5310  2.8364 -0.7483
  148OSM   H15B16325   1.488   4.958   2.079 -0.6097 -0.0417  0.3450
  148OSM   H15C16326   1.527   4.835   2.201  1.8227  1.4029  0.4608
  148OSM    C1416327   1.460   4.792   1.867  0.0456  0.9366 -0.0345
  148OSM   H14A16328   1.355   4.767   1.869  0.0307  0.8119 -1.5585
  148OSM   H14B16329   1.499   4.733   1.785 -1.9955 -3.1860  1.6651
  148OSM   H14C16330   1.472   4.898   1.851 -1.4375  1.3273  1.1767
  148OSM    C1316331   1.668   4.795   1.982 -0.1964  0.1485 -0.3797
  148OSM   H13A16332   1.734   4.772   2.065  0.5192  1.4923 -0.5472
  148OSM   H13B16333   1.683   4.898   1.952  0.2531  1.1181  2.7328
  148OSM   H13C16334   1.704   4.736   1.899  1.1396 -0.9109  0.8854
  148OSM    C1216335   1.512   4.618   2.041 -0.4603  0.5677  0.4074
  148OSM   H12A16336   1.578   4.609   2.126  0.1124  0.5894 -0.0246
  148OSM   H12B16337   1.558   4.566   1.958 -0.0591  1.0248  0.3353
  148OSM    C1116338   1.375   4.560   2.063 -0.6649  0.2472 -0.9834
  148OSM   H11A16339   1.371   4.449   2.067  1.5921  0.1490 -0.4286
  148OSM   H11B16340   1.306   4.588   1.980  0.5163 -0.7890 -2.3602
  148OSM      P16341   1.171   4.663   2.214 -0.5295  0.2696 -0.0814
  148OSM    O1316342   1.179   4.797   2.279  0.3220  0.2548 -0.1559
  148OSM    O1416343   1.098   4.660   2.084 -0.0368  0.5188  0.2352
  148OSM    O1116344   1.118   4.560   2.315  0.0381 -0.5367  0.2320
  148OSM    O1216345   1.321   4.606   2.194  0.3620 -0.2928  0.0390
  148OSM    C1S16346   1.177   4.548   2.443 -0.0937 -0.1570  0.2739
  148OSM    H1S16347   1.286   4.533   2.425 -0.2586  0.0718 -0.9424
  148OSM    H1T16348   1.141   4.453   2.490  0.2943 -0.5536 -0.2150
  148OSM     NF16349   1.242   4.625   2.674 -0.3741  0.3702  0.0448
  148OSM    HNF16350   1.203   4.574   2.750  0.6116 -1.7278 -0.8063
  148OSM    C2S16351   1.158   4.652   2.552  0.3807  0.1569 -0.5638
  148OSM    H2S16352   1.177   4.751   2.507 -1.0168  0.1784 -1.1848
  148OSM    C3S16353   1.002   4.655   2.570 -0.0557  0.1007 -0.5203
  148OSM    H3S16354   0.968   4.549   2.572  0.2892 -0.0563 -1.9517
  148OSM     O316355   0.929   4.710   2.457  0.1827  0.6060 -0.7766
  148OSM    HO316356   0.998   4.728   2.393  0.3311  0.7948 -0.5632
  148OSM    C4S16357   0.951   4.736   2.688 -0.6462 -0.1318 -0.4849
  148OSM    H4S16358   1.013   4.825   2.700  0.3806 -0.6127 -1.9900
  148OSM    C5S16359   0.858   4.703   2.783 -0.8635 -0.2457  0.3021
  148OSM    H5S16360   0.808   4.605   2.777 -1.1001 -0.0560 -1.5697
  148OSM    C6S16361   0.827   4.779   2.910  0.3463 -0.0909 -0.8652
  148OSM    H6S16362   0.730   4.755   2.957  1.2909 -2.1211  0.1674
  148OSM    H6T16363   0.837   4.889   2.899  1.7950 -0.0201  0.6215
  148OSM    C7S16364   0.939   4.740   3.010 -0.9355  0.2621 -0.9192
  148OSM    H7S16365   1.039   4.753   2.963 -0.6674 -0.3317 -0.5205
  148OSM    H7T16366   0.944   4.631   3.029 -0.7385  0.4738  0.3153
  148OSM    C8S16367   0.924   4.821   3.141  0.3635  0.0013 -0.1274
  148OSM    H8S16368   0.823   4.810   3.185 -0.0276 -3.1973 -1.5410
  148OSM    H8T16369   0.939   4.928   3.114 -0.8972  0.5808  1.3237
  148OSM    C9S16370   1.013   4.789   3.266 -0.9155  0.0558  0.0674
  148OSM    H9S16371   1.006   4.878   3.332 -1.0563  1.0827 -1.2913
  148OSM    H9T16372   1.118   4.771   3.233 -0.9423 -1.0263  0.5138
  148OSM   C10S16373   0.974   4.662   3.347 -0.0978  0.0090 -0.3158
  148OSM   H10S16374   0.964   4.574   3.280 -1.3420 -0.4468  0.4401
  148OSM   H10T16375   0.868   4.679   3.374  0.6629  1.9390  1.7930
  148OSM   C11S16376   1.059   4.631   3.470  0.7250  1.2054  0.7941
  148OSM   H11S16377   1.164   4.612   3.442 -0.2358 -0.6487 -1.9114
  148OSM   H11T16378   1.025   4.535   3.515 -1.8114  2.2455  1.2439
  148OSM   C12S16379   1.040   4.738   3.574  0.7842  0.7582 -0.2714
  148OSM   H12S16380   0.932   4.732   3.600  0.8879 -0.2129 -0.0236
  148OSM   H12T16381   1.073   4.838   3.536 -0.2631  1.5156  0.7511
  148OSM   C13S16382   1.127   4.716   3.697  0.9047 -0.7348 -0.4882
  148OSM   H13S16383   1.237   4.732   3.687  0.4607  3.4537 -0.3299
  148OSM   H13T16384   1.109   4.612   3.733 -1.8326 -0.9829 -2.2918
  148OSM   C14S16385   1.072   4.803   3.806  0.1063  0.9614 -0.2043
  148OSM   H14S16386   0.990   4.743   3.850 -0.4850  1.5688 -0.4753
  148OSM   H14T16387   1.045   4.908   3.784 -0.0068  0.9728 -0.0106
  148OSM   C15S16388   1.179   4.800   3.916  0.4862  0.1651 -0.3705
  148OSM   H15S16389   1.284   4.812   3.883  0.3660 -0.3612 -0.9663
  148OSM   H15T16390   1.177   4.700   3.965 -0.2249  1.4365  2.4129
  148OSM   C16S16391   1.144   4.897   4.032 -0.4699  0.6880  0.2504
  148OSM   H16S16392   1.035   4.882   4.051 -0.3206  0.9801  1.4522
  148OSM   H16T16393   1.161   5.005   4.010 -1.7306  0.4681 -2.0864
  148OSM   C17S16394   1.217   4.848   4.160 -0.2318 -0.0952  0.9441
  148OSM   H17S16395   1.325   4.853   4.136 -0.9571  0.7743 -2.8240
  148OSM   H17T16396   1.198   4.740   4.179 -0.1110 -0.4336 -0.7265
  148OSM   C18S16397   1.188   4.943   4.277  0.0301  0.2233  0.4944
  148OSM   H18S16398   1.205   5.049   4.246  0.9471 -0.0688 -0.0607
  148OSM   H18T16399   1.261   4.917   4.357  0.1704 -1.0711 -0.0404
  148OSM   H18U16400   1.081   4.936   4.305 -0.2601 -1.5536 -0.9060
  148OSM    C1F16401   1.372   4.655   2.679 -0.4078  0.0272  0.2343
  148OSM     OF16402   1.412   4.741   2.607  0.3014  0.0208 -0.1686
  148OSM    C2F16403   1.450   4.585   2.777  0.2180 -0.2570 -0.1573
  148OSM    H2F16404   1.421   4.480   2.801 -1.6701 -0.3001 -2.2941
  148OSM    H2G16405   1.459   4.649   2.867 -1.3237  0.4939 -0.5194
  148OSM    C3F16406   1.595   4.578   2.725 -0.2741 -0.5609 -0.3750
  148OSM    H3F16407   1.642   4.677   2.739 -1.4990 -0.0639  0.2969
  148OSM    H3G16408   1.592   4.548   2.618  1.6442 -2.3250 -0.0197
  148OSM    C4F16409   1.681   4.481   2.803 -0.1972  0.8974 -0.4813
  148OSM    H4F16410   1.786   4.501   2.773 -0.3885  1.8372 -0.5539
  148OSM    H4G16411   1.665   4.376   2.769  0.8663  0.6255 -0.1977
  148OSM    C5F16412   1.661   4.491   2.954  0.0579 -0.1034  0.3343
  148OSM    H5F16413   1.573   4.429   2.981  1.6584 -1.6595  2.2784
  148OSM    H5G16414   1.646   4.597   2.983  1.8343 -0.4595  2.9818
  148OSM    C6F16415   1.787   4.445   3.030  0.0375  0.3780 -0.2833
  148OSM    H6F16416   1.878   4.484   2.979  1.0426 -2.0971 -0.5164
  148OSM    H6G16417   1.797   4.336   3.009  0.0736  0.3158  0.0604
  148OSM    C7F16418   1.777   4.468   3.179 -0.6097 -0.0636  0.7844
  148OSM    H7F16419   1.682   4.435   3.226 -0.8466 -0.7091 -0.1034
  148OSM    H7G16420   1.781   4.576   3.204  0.8749  0.1529 -0.2565
  148OSM    C8F16421   1.894   4.401   3.254  0.6014 -0.4443 -0.0298
  148OSM    H8F16422   1.909   4.456   3.350 -2.4576  2.2934 -0.9153
  148OSM    H8G16423   1.990   4.419   3.202  0.6973  1.5386  0.7309
  148OSM    C9F16424   1.867   4.255   3.285 -0.2835  0.3246  0.2391
  148OSM    H9F16425   1.878   4.189   3.198  2.7583  1.4110 -0.2851
  148OSM   C10F16426   1.839   4.198   3.401 -0.2233 -0.3306 -0.4196
  148OSM   H10F16427   1.834   4.088   3.406 -0.0158 -0.3736 -1.0342
  148OSM   C11F16428   1.823   4.266   3.542 -0.3799 -0.0105 -0.0084
  148OSM   H11F16429   1.767   4.196   3.608 -1.2407 -0.9774 -1.7003
  148OSM   H11G16430   1.771   4.363   3.531 -0.3654 -0.0667 -0.5917
  148OSM   C12F16431   1.949   4.294   3.614 -0.6977  0.1729  0.3536
  148OSM   H12F16432   1.923   4.345   3.709 -3.0609  0.0750 -0.1604
  148OSM   H12G16433   2.001   4.372   3.555  1.6665 -2.1855 -0.9091
  148OSM   C13F16434   2.044   4.179   3.638  0.7383  0.1465  0.4802
  148OSM   H13F16435   2.106   4.146   3.552  1.0743 -1.3495  1.2691
  148OSM   H13G16436   1.980   4.093   3.665 -1.1304  0.8366 -1.4692
  148OSM   C14F16437   2.135   4.190   3.757 -0.4620 -0.0595 -0.0937
  148OSM   H14F16438   2.166   4.094   3.804  0.7169  0.5853  0.4892
  148OSM   H14G16439   2.091   4.250   3.839  0.0657 -2.0640  1.7320
  148OSM   C15F16440   2.256   4.269   3.715  0.1622  0.8251  0.0110
  148OSM   H15F16441   2.231   4.377   3.701 -0.0123  1.1544  2.3691
  148OSM   H15G16442   2.304   4.225   3.625 -0.4456 -0.4102  0.2787
  148OSM   C16F16443   2.368   4.260   3.816  0.0447  0.0513  0.4832
  148OSM   H16F16444   2.403   4.157   3.842  0.0660 -0.1046 -0.1651
  148OSM   H16G16445   2.313   4.300   3.904 -2.0048  0.8730 -1.0911
  148OSM   C17F16446   2.481   4.348   3.774 -0.0257  0.2687 -0.3228
  148OSM   H17F16447   2.502   4.330   3.667  3.3049  3.5890 -0.4456
  148OSM   H17G16448   2.574   4.319   3.829  0.1051  0.0149 -0.6711
  148OSM   C18F16449   2.458   4.501   3.813 -0.6801 -0.3093 -0.3504
  148OSM   H18F16450   2.349   4.520   3.803 -0.5782  0.0371 -0.8453
  148OSM   H18G16451   2.523   4.567   3.752  0.1303  1.5340  2.3059
  148OSM   H18H16452   2.486   4.520   3.919  4.8451 -1.0260 -1.3637
  149OSM      N16453   4.539   2.651   1.710  0.3525 -0.2613 -0.1305
  149OSM    C1516454   4.410   2.591   1.649 -0.1539 -0.2446  0.5435
  149OSM   H15A16455   4.416   2.485   1.630 -1.0148  0.1862 -2.8873
  149OSM   H15B16456   4.395   2.646   1.557 -0.2566  1.1162  1.3579
  149OSM   H15C16457   4.327   2.604   1.716 -1.0300  1.0378 -0.7368
  149OSM    C1416458   4.631   2.649   1.582 -0.2483  0.2206 -0.3170
  149OSM   H14A16459   4.574   2.697   1.503  1.8972  1.3030 -1.3149
  149OSM   H14B16460   4.640   2.548   1.545 -0.1999  0.4624 -0.9942
  149OSM   H14C16461   4.730   2.693   1.585  0.1317 -0.6759  0.7432
  149OSM    C1316462   4.512   2.791   1.750 -0.6350  0.7282  0.1141
  149OSM   H13A16463   4.455   2.787   1.841  1.9449 -2.3535  1.7827
  149OSM   H13B16464   4.473   2.851   1.669 -0.2216  0.6568 -0.1391
  149OSM   H13C16465   4.604   2.843   1.771 -0.1448 -0.4554  1.0058
  149OSM    C1216466   4.596   2.571   1.827 -0.5601 -0.0259  0.0826
  149OSM   H12A16467   4.693   2.618   1.836 -0.2433 -0.9275  1.8524
  149OSM   H12B16468   4.604   2.465   1.808 -2.2967 -0.7754  2.9202
  149OSM    C1116469   4.525   2.572   1.960 -0.0055  0.1333  0.2005
  149OSM   H11A16470   4.497   2.675   1.990 -0.5487 -0.1928  0.8456
  149OSM   H11B16471   4.602   2.531   2.029 -0.0676 -2.0572 -0.9531
  149OSM      P16472   4.429   2.337   1.970 -0.0227 -0.3162  0.2837
  149OSM    O1316473   4.301   2.270   1.950  0.3542 -0.3631  0.0304
  149OSM    O1416474   4.535   2.297   1.881  0.6821 -0.2249  0.6019
  149OSM    O1116475   4.477   2.326   2.121  0.0944 -0.6688  0.6013
  149OSM    O1216476   4.408   2.493   1.961 -0.7280 -0.1360 -0.2999
  149OSM    C1S16477   4.391   2.378   2.224 -0.4125  0.1550 -0.6490
  149OSM    H1S16478   4.281   2.369   2.212 -0.6843  2.5448 -0.4906
  149OSM    H1T16479   4.397   2.489   2.231 -0.0085  0.1829 -1.3158
  149OSM     NF16480   4.342   2.373   2.467 -0.6224 -0.4201 -0.2890
  149OSM    HNF16481   4.352   2.463   2.508 -2.4421  0.0571 -0.8171
  149OSM    C2S16482   4.434   2.328   2.363 -0.4080  0.6185 -0.5457
  149OSM    H2S16483   4.428   2.217   2.364  0.2335  0.4403 -3.9842
  149OSM    C3S16484   4.584   2.356   2.391  0.2374  1.0753  1.0961
  149OSM    H3S16485   4.601   2.464   2.372  0.7048  0.5683 -1.8154
  149OSM     O316486   4.674   2.282   2.302 -0.1504  0.3460 -0.7144
  149OSM    HO316487   4.622   2.258   2.225  1.5237  0.3156 -1.8893
  149OSM    C4S16488   4.615   2.320   2.534  0.5928  0.8870  0.1842
  149OSM    H4S16489   4.589   2.413   2.587 -0.4119  1.2920 -0.9699
  149OSM    C5S16490   4.676   2.221   2.594 -0.1274 -0.6078  0.2250
  149OSM    H5S16491   4.714   2.132   2.541  1.7480  0.5094 -0.4356
  149OSM    C6S16492   4.715   2.221   2.738 -0.1807 -0.8123 -0.2856
  149OSM    H6S16493   4.787   2.303   2.762 -1.4437  0.1972  0.1443
  149OSM    H6T16494   4.763   2.121   2.741  2.0604  0.2070  1.3283
  149OSM    C7S16495   4.610   2.216   2.845 -0.4549  0.0668 -0.3978
  149OSM    H7S16496   4.552   2.122   2.830 -1.9740  0.7782  0.7379
  149OSM    H7T16497   4.534   2.297   2.835  0.1484  0.6909  0.0521
  149OSM    C8S16498   4.673   2.211   2.985  0.4986 -0.4932  0.7108
  149OSM    H8S16499   4.740   2.298   3.002 -1.2171  0.8844  0.7817
  149OSM    H8T16500   4.728   2.115   2.988 -0.5582 -1.1035  1.2599
  149OSM    C9S16501   4.560   2.202   3.089  0.6311 -0.2204  0.2933
  149OSM    H9S16502   4.486   2.123   3.066  0.5650 -0.1873  0.3905
  149OSM    H9T16503   4.491   2.289   3.085  1.2246  0.2506 -0.0608
  149OSM   C10S16504   4.602   2.185   3.233 -0.8982 -0.3369  0.5369
  149OSM   H10S16505   4.674   2.267   3.257 -2.0532  1.1874 -1.0283
  149OSM   H10T16506   4.660   2.092   3.253  0.9103  0.7224  0.5033
  149OSM   C11S16507   4.482   2.173   3.326 -0.3099 -0.2726  0.1347
  149OSM   H11S16508   4.414   2.092   3.293 -1.4075  1.5162 -2.3120
  149OSM   H11T16509   4.424   2.267   3.310  0.9434  0.8623  1.8612
  149OSM   C12S16510   4.504   2.148   3.477 -0.1743 -0.1691  0.0280
  149OSM   H12S16511   4.547   2.246   3.509  0.7739 -0.7450  0.5653
  149OSM   H12T16512   4.571   2.062   3.497  1.8744  1.0481 -1.2039
  149OSM   C13S16513   4.372   2.112   3.540  0.2207  0.6393  0.1806
  149OSM   H13S16514   4.347   2.015   3.492 -0.4623  0.1184  1.5401
  149OSM   H13T16515   4.297   2.189   3.512 -0.2436 -0.5291 -2.0230
  149OSM   C14S16516   4.392   2.098   3.685 -0.4924 -1.1606  0.7649
  149OSM   H14S16517   4.426   2.200   3.715  2.3694 -1.6559 -0.5088
  149OSM   H14T16518   4.478   2.029   3.699  1.7413  1.1208 -0.8153
  149OSM   C15S16519   4.265   2.060   3.756 -0.5524 -0.7561  0.2749
  149OSM   H15S16520   4.229   1.964   3.714  2.0099 -1.1626 -1.1428
  149OSM   H15T16521   4.186   2.135   3.730  2.0428  2.1257  0.1262
  149OSM   C16S16522   4.276   2.063   3.913  0.4410  0.1647  0.1379
  149OSM   H16S16523   4.327   2.157   3.943  1.6818 -0.0193 -1.3189
  149OSM   H16T16524   4.348   1.988   3.953  0.8883  0.6374  0.2295
  149OSM   C17S16525   4.133   2.051   3.981 -0.4777  0.5585  0.3279
  149OSM   H17S16526   4.091   1.952   3.953 -0.6807  0.5749  0.5733
  149OSM   H17T16527   4.076   2.139   3.943  1.2825  1.8875  0.6097
  149OSM   C18S16528   4.135   2.060   4.138 -0.6443  0.4943  0.3462
  149OSM   H18S16529   4.223   2.121   4.168  0.2985 -1.7390  2.4245
  149OSM   H18T16530   4.147   1.960   4.184  1.5642 -0.1713 -1.4857
  149OSM   H18U16531   4.036   2.101   4.170 -0.0923  2.1882 -0.0154
  149OSM    C1F16532   4.221   2.315   2.474  0.2797  0.2018 -0.0315
  149OSM     OF16533   4.193   2.228   2.395  0.2922  0.1285  0.0162
  149OSM    C2F16534   4.115   2.380   2.557  0.1515 -0.1464 -0.2844
  149OSM    H2F16535   4.014   2.370   2.513 -0.0736 -0.3399  0.2656
  149OSM    H2G16536   4.139   2.488   2.564  0.4282 -0.2916  1.4993
  149OSM    C3F16537   4.111   2.331   2.704 -0.1995  0.2159  0.3434
  149OSM    H3F16538   4.214   2.340   2.745 -0.2351  0.1240  0.4541
  149OSM    H3G16539   4.072   2.227   2.706 -2.4774  1.0240  1.1390
  149OSM    C4F16540   4.018   2.415   2.798  0.7852  0.8880 -0.3406
  149OSM    H4F16541   3.920   2.419   2.745  0.2024 -0.3012  0.5864
  149OSM    H4G16542   4.057   2.517   2.812  1.1670  0.8300 -0.9678
  149OSM    C5F16543   4.011   2.351   2.940 -0.5657 -0.2216  0.2090
  149OSM    H5F16544   3.983   2.244   2.932  0.5141 -0.5920  1.1150
  149OSM    H5G16545   3.939   2.410   3.000 -0.6763  1.3227 -1.3575
  149OSM    C6F16546   4.145   2.362   3.003 -0.2110  0.4902 -0.7739
  149OSM    H6F16547   4.169   2.470   3.016 -0.9477  0.6081 -0.3653
  149OSM    H6G16548   4.223   2.301   2.953 -0.6520 -1.0172  0.3196
  149OSM    C7F16549   4.136   2.308   3.151 -0.2858 -0.1505  0.6222
  149OSM    H7F16550   4.241   2.319   3.184 -0.2044 -1.1844  0.7287
  149OSM    H7G16551   4.116   2.199   3.154 -0.5429 -0.1307 -0.1973
  149OSM    C8F16552   4.053   2.379   3.254  0.5848 -0.7032  0.3762
  149OSM    H8F16553   4.062   2.324   3.350 -0.7463 -1.2369  0.2132
  149OSM    H8G16554   3.946   2.384   3.223  1.6887 -1.2188 -4.2623
  149OSM    C9F16555   4.106   2.522   3.278 -0.0391 -0.1767 -0.5356
  149OSM    H9F16556   4.073   2.597   3.203  0.8984  1.2000  0.3824
  149OSM   C10F16557   4.181   2.570   3.379 -0.2650 -0.2037  0.0760
  149OSM   H10F16558   4.222   2.671   3.364 -2.2322  0.5711 -0.3814
  149OSM   C11F16559   4.223   2.490   3.501  0.0542 -0.0097 -0.2955
  149OSM   H11F16560   4.319   2.527   3.543 -0.2341  0.7716 -0.3158
  149OSM   H11G16561   4.228   2.383   3.472 -2.7838  0.7277 -4.3233
  149OSM   C12F16562   4.108   2.488   3.601 -0.3154  0.2715  0.3615
  149OSM   H12F16563   4.138   2.420   3.684  2.4155 -1.1252 -1.6061
  149OSM   H12G16564   4.013   2.448   3.559 -0.1837  1.2351 -0.9068
  149OSM   C13F16565   4.060   2.623   3.646 -0.2457 -0.5570 -0.3948
  149OSM   H13F16566   4.005   2.683   3.571  0.5874 -1.0628 -1.4414
  149OSM   H13G16567   4.148   2.676   3.689  0.2512 -0.4905 -1.4744
  149OSM   C14F16568   3.959   2.593   3.767  0.1895 -0.7916  0.1011
  149OSM   H14F16569   3.994   2.536   3.855  3.0265  1.2564  0.4358
  149OSM   H14G16570   3.868   2.547   3.722  1.0335 -1.8545 -0.5758
  149OSM   C15F16571   3.913   2.730   3.819  0.0298  0.2198 -0.2621
  149OSM   H15F16572   3.804   2.745   3.833  0.1489 -0.4744  1.7211
  149OSM   H15G16573   3.944   2.807   3.745 -1.4625  0.4629 -0.6681
  149OSM   C16F16574   3.972   2.754   3.961  0.2439  1.1940  0.4089
  149OSM   H16F16575   4.082   2.741   3.952  0.0868  0.1690 -0.2917
  149OSM   H16G16576   3.942   2.675   4.033 -0.3183 -0.9664 -2.0465
  149OSM   C17F16577   3.943   2.888   4.022 -0.2128  0.4288 -0.3323
  149OSM   H17F16578   3.985   2.903   4.123  1.3955  1.5807 -1.1355
  149OSM   H17G16579   3.833   2.894   4.037  0.1583 -0.1829  3.5764
  149OSM   C18F16580   3.988   3.006   3.934 -0.6322  0.5010  0.1454
  149OSM   H18F16581   3.967   3.113   3.956  0.6908  1.2306 -1.9367
  149OSM   H18G16582   3.965   2.993   3.826  0.6912 -1.0180  0.0189
  149OSM   H18H16583   4.098   2.999   3.928 -0.4477  0.0308  2.6923
  150OSM      N16584   1.379   1.324   2.119  0.9139 -0.3050  0.3237
  150OSM    C1516585   1.378   1.381   1.984  0.8965  0.1783 -0.2675
  150OSM   H15A16586   1.276   1.373   1.950  0.6521 -1.6734  0.7400
  150OSM   H15B16587   1.436   1.331   1.908  0.3804 -2.6282  1.0624
  150OSM   H15C16588   1.412   1.482   1.967 -0.0270  0.5904  0.2617
  150OSM    C1416589   1.518   1.318   2.169  0.0272 -0.0341 -0.1021
  150OSM   H14A16590   1.509   1.263   2.261  0.8795  1.1787  0.7221
  150OSM   H14B16591   1.560   1.415   2.191  0.5775  0.0795 -1.5487
  150OSM   H14C16592   1.583   1.285   2.089  1.2779  1.0733  0.4346
  150OSM    C1316593   1.300   1.416   2.211 -0.0887  0.1219 -0.0922
  150OSM   H13A16594   1.286   1.374   2.310 -0.5063 -1.4338 -0.7919
  150OSM   H13B16595   1.197   1.429   2.183 -0.5567 -2.2249  0.3188
  150OSM   H13C16596   1.345   1.513   2.230 -0.2082 -0.1624  1.8986
  150OSM    C1216597   1.319   1.180   2.114 -0.1839  0.5367  1.0396
  150OSM   H12A16598   1.349   1.131   2.205 -3.2161  0.4978  2.1633
  150OSM   H12B16599   1.372   1.139   2.029 -0.3894  2.4988 -0.1132
  150OSM    C1116600   1.165   1.159   2.099  0.1347  0.2012 -0.0784
  150OSM   H11A16601   1.136   1.054   2.076  0.4814  0.1518 -0.2991
  150OSM   H11B16602   1.133   1.204   2.003  1.7273 -0.5540 -1.0051
  150OSM      P16603   0.934   1.224   2.202 -0.0145 -0.1611  0.3610
  150OSM    O1316604   0.896   1.327   2.100 -0.1879  0.4150  0.3047
  150OSM    O1416605   0.882   1.084   2.194 -0.3823 -0.8133  0.0432
  150OSM    O1116606   0.889   1.290   2.338 -0.5131 -0.0330 -0.1229
  150OSM    O1216607   1.088   1.203   2.213  0.1016  0.4959 -0.3106
  150OSM    C1S16608   0.923   1.254   2.464 -0.4778  0.1807 -0.6979
  150OSM    H1S16609   1.033   1.252   2.480 -0.7480  0.9556  1.7526
  150OSM    H1T16610   0.881   1.154   2.490  1.2603 -0.2828  0.5349
  150OSM     NF16611   0.908   1.339   2.697 -0.3071  0.0520 -0.2517
  150OSM    HNF16612   0.853   1.306   2.774  0.0598  0.0707  0.0232
  150OSM    C2S16613   0.860   1.356   2.565  0.0585 -0.5711  0.1566
  150OSM    H2S16614   0.911   1.447   2.526  0.7051 -0.0993  2.0126
  150OSM    C3S16615   0.708   1.375   2.535 -0.1939  0.3551 -0.1101
  150OSM    H3S16616   0.658   1.277   2.545  0.0240  0.1866 -0.6644
  150OSM     O316617   0.673   1.418   2.399  0.0374  0.0309 -0.3188
  150OSM    HO316618   0.745   1.391   2.342 -0.6511 -0.0740 -1.1528
  150OSM    C4S16619   0.653   1.472   2.639 -0.1981  0.1404 -0.8082
  150OSM    H4S16620   0.616   1.422   2.729  0.4773 -0.1030 -0.6590
  150OSM    C5S16621   0.634   1.605   2.623  0.2173  0.2966 -0.2342
  150OSM    H5S16622   0.637   1.649   2.522 -0.0024  2.7122  0.7467
  150OSM    C6S16623   0.553   1.698   2.710  0.4990  0.2862  0.4456
  150OSM    H6S16624   0.457   1.720   2.658  0.4801  1.2644  0.8638
  150OSM    H6T16625   0.612   1.792   2.720  0.9763 -0.0620  0.9099
  150OSM    C7S16626   0.524   1.651   2.843  0.5585 -0.0535 -0.6742
  150OSM    H7S16627   0.616   1.636   2.903  0.4968  1.5372 -0.1287
  150OSM    H7T16628   0.483   1.548   2.839  0.5126 -0.0786  0.2190
  150OSM    C8S16629   0.425   1.735   2.924  0.4331 -0.3138 -0.5505
  150OSM    H8S16630   0.329   1.748   2.868  0.6553  3.7763 -0.2846
  150OSM    H8T16631   0.461   1.839   2.943 -1.8761  0.3425  0.6962
  150OSM    C9S16632   0.397   1.671   3.063  0.5415  0.0708 -0.2991
  150OSM    H9S16633   0.417   1.563   3.051 -2.5455 -0.6319  0.1210
  150OSM    H9T16634   0.289   1.669   3.087  0.1375 -0.7523 -2.0214
  150OSM   C10S16635   0.486   1.728   3.178 -0.4526  0.6311  0.8041
  150OSM   H10S16636   0.498   1.838   3.170  1.7719  0.6159  2.7522
  150OSM   H10T16637   0.589   1.687   3.170 -0.6369  0.6112 -2.7034
  150OSM   C11S16638   0.423   1.707   3.323  0.2919  0.2164  0.0028
  150OSM   H11S16639   0.397   1.601   3.344 -0.2574  0.9963  4.0080
  150OSM   H11T16640   0.330   1.766   3.333  1.1941  1.2789  3.3007
  150OSM   C12S16641   0.510   1.756   3.436  0.2845 -0.1763 -0.2231
  150OSM   H12S16642   0.532   1.864   3.421  1.4090 -0.3821 -0.1911
  150OSM   H12T16643   0.612   1.711   3.436  2.0718  3.4675  0.4529
  150OSM   C13S16644   0.472   1.732   3.580  0.4242  0.5658 -0.0018
  150OSM   H13S16645   0.466   1.622   3.595  0.3270  0.4344 -0.9715
  150OSM   H13T16646   0.365   1.757   3.602  0.7546  0.4063  2.0283
  150OSM   C14S16647   0.573   1.784   3.685  0.3044 -0.1027  0.2540
  150OSM   H14S16648   0.674   1.751   3.653  0.4395  1.2558 -0.7972
  150OSM   H14T16649   0.555   1.736   3.784 -0.2901 -0.0477  0.1757
  150OSM   C15S16650   0.555   1.936   3.695  0.3006  0.6318  0.2391
  150OSM   H15S16651   0.464   1.950   3.758  0.2779  0.7542  0.1806
  150OSM   H15T16652   0.537   1.985   3.597 -0.5411  1.2333  0.6774
  150OSM   C16S16653   0.663   2.016   3.758 -0.2019  0.7351  0.1133
  150OSM   H16S16654   0.651   2.126   3.754 -0.2676  0.7273  0.1074
  150OSM   H16T16655   0.758   1.977   3.715  0.3786  0.7497  1.3300
  150OSM   C17S16656   0.664   1.984   3.913  0.3745 -0.2811  0.3530
  150OSM   H17S16657   0.652   1.876   3.934  2.1474 -0.4033  0.9397
  150OSM   H17T16658   0.570   2.023   3.957  0.4961 -0.0013  0.3671
  150OSM   C18S16659   0.781   2.041   3.988 -0.2133 -0.8423 -0.4738
  150OSM   H18S16660   0.769   2.019   4.096  0.9922  0.9736  0.0789
  150OSM   H18T16661   0.784   2.152   3.982  1.4115 -0.8669 -0.2935
  150OSM   H18U16662   0.876   1.998   3.953  0.3757 -1.7818  2.0687
  150OSM    C1F16663   1.036   1.358   2.727  0.2706 -0.4232 -0.3593
  150OSM     OF16664   1.112   1.421   2.650  0.9209 -0.7329  0.3012
  150OSM    C2F16665   1.094   1.298   2.852 -0.2142 -0.5345  0.5955
  150OSM    H2F16666   1.146   1.203   2.828  1.4324  0.6818 -0.9418
  150OSM    H2G16667   1.003   1.273   2.911 -0.9592  1.9618  0.6289
  150OSM    C3F16668   1.197   1.392   2.921  0.4436  0.3344  0.0514
  150OSM    H3F16669   1.156   1.495   2.926 -0.8836 -0.1514 -0.6019
  150OSM    H3G16670   1.295   1.395   2.867 -0.1430 -0.4648 -1.1022
  150OSM    C4F16671   1.214   1.349   3.068  0.4147 -0.0777  0.0662
  150OSM    H4F16672   1.259   1.248   3.064 -1.0155 -0.7155 -0.3333
  150OSM    H4G16673   1.112   1.343   3.112  0.9304  2.0061  1.7393
  150OSM    C5F16674   1.304   1.441   3.151 -0.3627  0.6269  0.2631
  150OSM    H5F16675   1.254   1.538   3.172  0.0079  0.7663  0.5033
  150OSM    H5G16676   1.393   1.461   3.087  1.1130 -1.8052  1.4139
  150OSM    C6F16677   1.363   1.372   3.275  0.4808 -0.5377 -0.4620
  150OSM    H6F16678   1.437   1.445   3.314 -1.1292  0.3476  1.0015
  150OSM    H6G16679   1.405   1.272   3.250 -0.1066 -0.9528  0.1959
  150OSM    C7F16680   1.268   1.335   3.391  0.3595 -0.2737  0.9010
  150OSM    H7F16681   1.195   1.261   3.352 -2.2835  2.4188  0.3407
  150OSM    H7G16682   1.212   1.430   3.410  0.5488  0.2337 -0.8805
  150OSM    C8F16683   1.333   1.266   3.514  0.6020 -0.2775  0.2237
  150OSM    H8F16684   1.397   1.184   3.477 -0.2303  0.0195 -2.0417
  150OSM    H8G16685   1.253   1.224   3.579  0.4026  0.1391  0.2529
  150OSM    C9F16686   1.404   1.380   3.595  0.7016 -0.0220  0.0401
  150OSM    H9F16687   1.493   1.416   3.540 -0.3740  0.5126 -1.4198
  150OSM   C10F16688   1.361   1.440   3.709 -0.5100  0.2546  0.0144
  150OSM   H10F16689   1.419   1.520   3.757 -0.6452 -1.0943  2.5964
  150OSM   C11F16690   1.250   1.396   3.794  0.3186 -0.4646  0.2305
  150OSM   H11F16691   1.225   1.288   3.787 -3.8340  0.4309 -1.6895
  150OSM   H11G16692   1.164   1.451   3.750  2.9841  3.6356 -0.4276
  150OSM   C12F16693   1.252   1.455   3.937 -0.5805  0.8192  0.5014
  150OSM   H12F16694   1.151   1.453   3.984  0.1672  0.1591  2.1765
  150OSM   H12G16695   1.283   1.562   3.947  2.5139  0.1274 -0.5142
  150OSM   C13F16696   1.345   1.380   4.034  0.0114  0.0595 -0.9859
  150OSM   H13F16697   1.445   1.379   3.985  0.6097  0.7516  0.1789
  150OSM   H13G16698   1.314   1.274   4.028  0.1928  0.0733 -2.7120
  150OSM   C14F16699   1.340   1.432   4.173 -0.3576  0.2434  0.1508
  150OSM   H14F16700   1.238   1.423   4.217 -0.6658  0.5761 -0.4732
  150OSM   H14G16701   1.367   1.539   4.179 -2.2642  0.8305 -0.8915
  150OSM   C15F16702   1.422   1.351   4.274 -0.2087  0.3834  0.0441
  150OSM   H15F16703   1.525   1.341   4.233 -0.7339 -0.6479 -1.1040
  150OSM   H15G16704   1.384   1.247   4.286 -1.4486  0.6331 -1.4261
  150OSM   C16F16705   1.433   1.419   4.411 -0.1720 -0.8351 -0.5546
  150OSM   H16F16706   1.330   1.453   4.434  0.2606  0.2220 -0.0825
  150OSM   H16G16707   1.489   1.513   4.392 -0.4836 -1.0150 -2.6601
  150OSM   C17F16708   1.462   1.317   4.517  0.7267 -0.2212  0.2686
  150OSM   H17F16709   1.567   1.281   4.520  0.4439 -1.2659 -1.0670
  150OSM   H17G16710   1.397   1.230   4.493 -0.2407  0.9296 -1.5643
  150OSM   C18F16711   1.423   1.370   4.651 -0.0201 -0.7452  0.1521
  150OSM   H18F16712   1.438   1.296   4.731  2.9358  0.5881  0.9740
  150OSM   H18G16713   1.315   1.394   4.652 -0.1226 -0.7214 -2.4207
  150OSM   H18H16714   1.483   1.462   4.672  1.2844 -0.7650 -2.8114
  151OSM      N16715   0.898   1.960   1.868 -0.2821  0.4756 -0.2158
  151OSM    C1516716   0.815   2.082   1.835 -0.4872 -0.1706 -0.2108
  151OSM   H15A16717   0.854   2.171   1.884 -1.4176  0.6608 -0.9364
  151OSM   H15B16718   0.711   2.076   1.863  0.0447 -0.8897  1.7656
  151OSM   H15C16719   0.819   2.111   1.731 -1.6648  1.1734  0.0827
  151OSM    C1416720   0.840   1.835   1.808 -0.1667  0.5052 -0.5636
  151OSM   H14A16721   0.739   1.826   1.847 -0.1673 -2.2786 -1.0188
  151OSM   H14B16722   0.887   1.741   1.831  0.3434  1.0074  0.5282
  151OSM   H14C16723   0.838   1.829   1.701 -0.6063  0.2962 -0.5452
  151OSM    C1316724   1.023   1.960   1.795 -0.4623  0.4003  0.2688
  151OSM   H13A16725   1.001   1.983   1.692  0.4321  0.6611  0.1307
  151OSM   H13B16726   1.083   1.870   1.807  3.1843  2.4593 -1.0006
  151OSM   H13C16727   1.089   2.042   1.820  0.8932 -0.1754 -1.2533
  151OSM    C1216728   0.912   1.933   2.019  0.2158 -0.7836 -0.1320
  151OSM   H12A16729   0.971   1.845   2.038 -0.9346 -1.5898 -0.2334
  151OSM   H12B16730   0.813   1.922   2.061  0.0310  1.6869  0.2472
  151OSM    C1116731   0.980   2.055   2.093 -0.2577 -0.1436 -0.8278
  151OSM   H11A16732   0.957   2.039   2.201  0.0988  1.1304 -0.5498
  151OSM   H11B16733   0.923   2.146   2.065 -1.2214 -0.5580 -0.2623
  151OSM      P16734   1.217   1.947   2.125 -0.3472  0.4550  0.0665
  151OSM    O1316735   1.201   1.823   2.048 -0.1623  0.2702 -0.2755
  151OSM    O1416736   1.353   2.004   2.135  0.4519  0.3100 -0.9245
  151OSM    O1116737   1.160   1.916   2.271  0.5536 -0.6852  0.4103
  151OSM    O1216738   1.120   2.067   2.075  0.1078  0.2976 -0.2356
  151OSM    C1S16739   1.197   1.789   2.335  0.5782 -0.2042  0.1541
  151OSM    H1S16740   1.307   1.775   2.332  0.6734  0.3467  0.9419
  151OSM    H1T16741   1.148   1.700   2.289 -0.6315  0.1923  0.6339
  151OSM     NF16742   1.236   1.685   2.559  0.9337  0.0754 -0.1070
  151OSM    HNF16743   1.185   1.600   2.572  0.5339 -0.2113 -2.8406
  151OSM    C2S16744   1.159   1.786   2.485 -0.7610  0.6281 -0.0262
  151OSM    H2S16745   1.192   1.885   2.524 -1.6188  1.2267 -0.7552
  151OSM    C3S16746   1.005   1.774   2.507  0.0148 -0.4624 -0.7723
  151OSM    H3S16747   0.982   1.670   2.478  1.6845 -0.4980 -2.1418
  151OSM     O316748   0.933   1.860   2.418 -0.1014  0.0865 -0.0208
  151OSM    HO316749   0.995   1.884   2.348 -1.6683 -1.3731 -2.0259
  151OSM    C4S16750   0.962   1.772   2.647  0.0611  0.3391 -0.3332
  151OSM    H4S16751   0.968   1.672   2.693  0.6233  0.5764  0.1111
  151OSM    C5S16752   0.914   1.875   2.722 -0.2494 -0.0407  0.6804
  151OSM    H5S16753   0.886   1.971   2.678 -1.5833  0.5803  2.6903
  151OSM    C6S16754   0.863   1.865   2.854 -0.5668 -0.7610 -0.0082
  151OSM    H6S16755   0.753   1.860   2.860 -1.0534 -0.3463 -4.7677
  151OSM    H6T16756   0.890   1.954   2.915  1.1389  0.3024 -2.1829
  151OSM    C7S16757   0.929   1.749   2.928  0.1236 -0.6175  0.4540
  151OSM    H7S16758   1.039   1.746   2.915  0.3135  0.3482  1.5761
  151OSM    H7T16759   0.888   1.653   2.892  1.0241 -1.7992  2.3827
  151OSM    C8S16760   0.901   1.755   3.080 -0.3245 -0.2851  0.4232
  151OSM    H8S16761   0.795   1.737   3.107  0.0299  1.1424  3.0318
  151OSM    H8T16762   0.918   1.861   3.109 -2.3372 -0.0595  0.9490
  151OSM    C9S16763   0.980   1.658   3.153  0.1465  0.1586 -0.1006
  151OSM    H9S16764   1.085   1.690   3.171  0.3078 -1.0173  1.2552
  151OSM    H9T16765   0.990   1.571   3.085 -0.8252  1.0420 -1.4383
  151OSM   C10S16766   0.919   1.604   3.281 -0.1883 -0.6282 -0.2726
  151OSM   H10S16767   0.948   1.497   3.284  0.8710 -0.5513 -3.6531
  151OSM   H10T16768   0.811   1.623   3.293  0.1405  2.4249 -1.2246
  151OSM   C11S16769   0.991   1.681   3.398 -0.4618 -0.2097 -0.8890
  151OSM   H11S16770   0.969   1.790   3.389  2.5163  0.6585  0.9040
  151OSM   H11T16771   1.101   1.665   3.397  0.2315  2.4776  3.7783
  151OSM   C12S16772   0.936   1.640   3.535 -0.2001 -0.1915  0.1547
  151OSM   H12S16773   0.955   1.533   3.558 -0.0266 -0.2583 -0.2805
  151OSM   H12T16774   0.827   1.654   3.546 -0.1463  2.9005 -1.8892
  151OSM   C13S16775   0.996   1.736   3.640  0.0621  0.1734  0.1616
  151OSM   H13S16776   0.969   1.842   3.624  0.3110  0.5066  1.8031
  151OSM   H13T16777   1.102   1.716   3.613 -0.5365 -0.7901 -1.6470
  151OSM   C14S16778   0.956   1.705   3.785 -0.3752 -0.2929 -0.0527
  151OSM   H14S16779   0.957   1.595   3.802 -0.6976  0.0522  2.6130
  151OSM   H14T16780   0.855   1.753   3.787  0.8696  2.6148 -1.0231
  151OSM   C15S16781   1.042   1.772   3.891  0.2523 -0.3062  0.4045
  151OSM   H15S16782   1.038   1.883   3.879  0.1572 -0.4309 -0.9162
  151OSM   H15T16783   1.149   1.743   3.882  0.7924  1.7255 -0.5338
  151OSM   C16S16784   1.002   1.737   4.038  0.2125  0.3239 -0.4890
  151OSM   H16S16785   1.029   1.629   4.046  2.1729  0.8578  0.9784
  151OSM   H16T16786   0.894   1.743   4.061 -0.1507  1.9461 -2.3620
  151OSM   C17S16787   1.087   1.822   4.133 -0.1696  0.0711 -0.3373
  151OSM   H17S16788   1.054   1.928   4.136  1.1966  0.5344 -0.8766
  151OSM   H17T16789   1.189   1.830   4.089  0.4949  0.1114  1.1456
  151OSM   C18S16790   1.100   1.773   4.278  0.4238 -0.0708  0.0125
  151OSM   H18S16791   1.110   1.865   4.339 -0.4837  0.7416 -1.0236
  151OSM   H18T16792   1.185   1.703   4.294  0.6977  0.5378  1.3827
  151OSM   H18U16793   1.016   1.704   4.300  0.0971  0.8479  1.8318
  151OSM    C1F16794   1.364   1.694   2.581 -0.8604  0.3422  0.0807
  151OSM     OF16795   1.440   1.775   2.531 -0.0691  0.1052 -0.1639
  151OSM    C2F16796   1.428   1.587   2.673 -0.3328 -0.1118 -0.3313
  151OSM    H2F16797   1.518   1.546   2.623  0.4496  1.4274 -0.2269
  151OSM    H2G16798   1.348   1.512   2.692 -2.8669  2.8240  1.5753
  151OSM    C3F16799   1.468   1.646   2.811  0.1240 -0.0039 -0.2905
  151OSM    H3F16800   1.489   1.567   2.887  2.5635  0.2057 -0.6881
  151OSM    H3G16801   1.374   1.697   2.843 -0.0881  0.1057 -1.0691
  151OSM    C4F16802   1.588   1.738   2.799  0.0608 -0.2688 -0.3905
  151OSM    H4F16803   1.553   1.835   2.756  0.8156  0.4020  0.4703
  151OSM    H4G16804   1.657   1.691   2.727  1.6435  2.0731 -0.5220
  151OSM    C5F16805   1.670   1.756   2.926  0.9778  0.6151  0.5932
  151OSM    H5F16806   1.767   1.805   2.902  0.9365  1.3481  1.8126
  151OSM    H5G16807   1.688   1.658   2.975 -0.1806 -0.8846 -1.7817
  151OSM    C6F16808   1.601   1.844   3.029 -0.6648 -0.8369  0.3187
  151OSM    H6F16809   1.533   1.914   2.975  2.1300  1.7048 -0.2083
  151OSM    H6G16810   1.672   1.911   3.082 -3.2126  1.2130  1.3705
  151OSM    C7F16811   1.523   1.769   3.136  0.2777  0.0830  0.8852
  151OSM    H7F16812   1.567   1.675   3.175  0.3942 -1.4037 -2.4482
  151OSM    H7G16813   1.430   1.744   3.080  0.5045  0.3965  0.3561
  151OSM    C8F16814   1.487   1.867   3.250  0.1157  0.3583  0.4527
  151OSM    H8F16815   1.447   1.957   3.198 -1.9018 -0.0073  1.2577
  151OSM    H8G16816   1.582   1.898   3.299 -0.0412  2.6906 -0.5940
  151OSM    C9F16817   1.375   1.813   3.341  0.4831 -0.1808  0.5339
  151OSM    H9F16818   1.273   1.814   3.299  0.5857 -0.6099  0.2738
  151OSM   C10F16819   1.397   1.764   3.463  0.0310  0.0416  0.0864
  151OSM   H10F16820   1.312   1.738   3.528 -1.0347  2.1917 -0.3541
  151OSM   C11F16821   1.540   1.745   3.522  0.7459  0.2638 -0.3170
  151OSM   H11F16822   1.614   1.767   3.443  0.2565  1.9946 -0.3275
  151OSM   H11G16823   1.570   1.640   3.543  0.8326  0.6024  1.3841
  151OSM   C12F16824   1.591   1.824   3.647  0.0950 -0.0547 -0.8020
  151OSM   H12F16825   1.553   1.927   3.628 -0.1068 -0.0803 -0.5421
  151OSM   H12G16826   1.702   1.815   3.651  0.1604  0.9165  0.2517
  151OSM   C13F16827   1.523   1.788   3.788 -0.3680 -0.5089 -0.4952
  151OSM   H13F16828   1.548   1.682   3.808 -0.2793 -0.4435 -0.2575
  151OSM   H13G16829   1.413   1.801   3.786 -0.3041  0.0947 -0.4207
  151OSM   C14F16830   1.588   1.865   3.903  0.4486 -0.6494  0.3303
  151OSM   H14F16831   1.565   1.972   3.883  0.8864 -0.7756 -0.9884
  151OSM   H14G16832   1.697   1.845   3.899  0.3016 -1.4926  0.3171
  151OSM   C15F16833   1.533   1.829   4.038  0.3571  0.3310 -0.5079
  151OSM   H15F16834   1.593   1.748   4.085  2.4947  1.8168 -0.5618
  151OSM   H15G16835   1.430   1.792   4.020  0.0506  0.3162  1.1570
  151OSM   C16F16836   1.528   1.939   4.143 -0.2321  0.5565 -0.3924
  151OSM   H16F16837   1.468   1.891   4.223 -1.8746  0.1494 -1.7981
  151OSM   H16G16838   1.474   2.030   4.106 -0.8714 -0.1942 -1.3763
  151OSM   C17F16839   1.673   1.982   4.184  0.2527  0.6790  0.8314
  151OSM   H17F16840   1.723   2.016   4.091 -0.1162  1.6062  0.9620
  151OSM   H17G16841   1.742   1.904   4.225  0.3115  0.2166 -0.1253
  151OSM   C18F16842   1.683   2.098   4.275  0.5788  0.0563 -0.1734
  151OSM   H18F16843   1.644   2.075   4.377  0.0621  0.9947 -0.1500
  151OSM   H18G16844   1.612   2.169   4.229 -1.3387 -2.7791 -1.9692
  151OSM   H18H16845   1.785   2.136   4.297 -0.1844  0.6803  2.7686
  152OSM      N16846   3.826   5.637   2.036 -0.6940 -0.2011  0.4356
  152OSM    C1516847   3.761   5.531   1.955 -0.2456 -0.2666 -0.0584
  152OSM   H15A16848   3.701   5.470   2.022 -2.9843  2.2795 -0.0117
  152OSM   H15B16849   3.834   5.465   1.909  0.0851 -1.0552  1.5127
  152OSM   H15C16850   3.697   5.546   1.870 -1.6365 -3.5003  0.2630
  152OSM    C1416851   3.898   5.733   1.948 -0.4276 -0.2333  0.0848
  152OSM   H14A16852   3.980   5.689   1.894 -0.8715 -0.1581 -0.6719
  152OSM   H14B16853   3.933   5.818   2.004 -2.4985  0.1124  0.9623
  152OSM   H14C16854   3.834   5.762   1.865  0.5305 -0.1362 -0.6389
  152OSM    C1316855   3.714   5.716   2.092 -0.1633  0.8097 -0.7545
  152OSM   H13A16856   3.663   5.654   2.165 -1.8474  0.2154 -2.3707
  152OSM   H13B16857   3.656   5.759   2.012 -1.7539 -0.1369 -0.1617
  152OSM   H13C16858   3.747   5.802   2.149 -0.5808  0.8236 -0.5282
  152OSM    C1216859   3.910   5.577   2.141 -0.1262  0.1338 -0.7108
  152OSM   H12A16860   3.853   5.509   2.203 -0.4943 -1.1093 -2.3379
  152OSM   H12B16861   3.940   5.667   2.192 -0.3831  0.9402 -1.9488
  152OSM    C1116862   4.038   5.497   2.100 -0.0273 -0.0128 -0.5604
  152OSM   H11A16863   4.010   5.420   2.024 -0.6990  1.4774 -1.8797
  152OSM   H11B16864   4.078   5.448   2.192 -0.1035 -1.9384 -1.4978
  152OSM      P16865   4.233   5.657   2.129  0.0563 -0.1564 -0.1567
  152OSM    O1316866   4.334   5.559   2.159 -0.2256  0.2557  0.0003
  152OSM    O1416867   4.270   5.781   2.052  0.5313 -0.1970  0.0955
  152OSM    O1116868   4.163   5.686   2.266 -0.4362  0.2738 -0.2676
  152OSM    O1216869   4.132   5.587   2.034 -0.0867  0.5754 -0.0786
  152OSM    C1S16870   4.145   5.828   2.305 -0.0299 -0.1812 -0.7747
  152OSM    H1S16871   4.055   5.876   2.262  0.4612  1.9625  0.4337
  152OSM    H1T16872   4.229   5.891   2.269 -1.0015  1.0453 -0.9663
  152OSM     NF16873   4.080   5.961   2.502 -0.1635  0.1744 -0.2183
  152OSM    HNF16874   4.117   6.049   2.527 -1.7735  0.3188  1.9471
  152OSM    C2S16875   4.155   5.849   2.461 -0.1109  0.4232 -0.1185
  152OSM    H2S16876   4.108   5.760   2.507 -0.5137  1.2785  1.1509
  152OSM    C3S16877   4.303   5.846   2.512 -0.4728  0.2106 -0.0812
  152OSM    H3S16878   4.362   5.931   2.472  2.3244 -0.9149  1.3684
  152OSM     O316879   4.386   5.738   2.468 -0.7401  0.0802  0.4442
  152OSM    HO316880   4.331   5.679   2.416  0.4985 -1.0534  0.3467
  152OSM    C4S16881   4.318   5.849   2.664  0.4819 -0.5126 -0.5491
  152OSM    H4S16882   4.270   5.767   2.719 -0.0645  0.1391 -0.0348
  152OSM    C5S16883   4.396   5.935   2.735 -0.6357  0.5758  0.0609
  152OSM    H5S16884   4.455   6.005   2.674 -0.8325  0.0404 -0.7612
  152OSM    C6S16885   4.415   5.943   2.886 -0.3170 -0.4851  0.2475
  152OSM    H6S16886   4.361   6.027   2.934 -0.1431 -0.6028  0.6488
  152OSM    H6T16887   4.523   5.954   2.906 -0.5579 -0.2912  1.4794
  152OSM    C7S16888   4.396   5.817   2.974 -0.1017  0.6401  0.3160
  152OSM    H7S16889   4.455   5.734   2.929 -1.0400 -0.5256  1.1711
  152OSM    H7T16890   4.292   5.778   2.974  0.7948 -2.0720 -1.7622
  152OSM    C8S16891   4.447   5.834   3.121  0.5041  0.1275  0.4333
  152OSM    H8S16892   4.552   5.871   3.124  1.6840 -2.9273  2.1950
  152OSM    H8T16893   4.442   5.734   3.171  0.4777  1.1209  2.5291
  152OSM    C9S16894   4.360   5.939   3.197 -0.0853 -0.7353  0.3948
  152OSM    H9S16895   4.251   5.934   3.177 -0.1698 -0.7126  0.8496
  152OSM    H9T16896   4.390   6.038   3.156  1.6905 -0.8732  1.2848
  152OSM   C10S16897   4.390   5.954   3.346 -0.5653  0.1501 -0.4397
  152OSM   H10S16898   4.359   6.056   3.376  0.8520  0.9769 -1.6025
  152OSM   H10T16899   4.501   5.952   3.356 -0.6786  2.5768  2.4775
  152OSM   C11S16900   4.320   5.852   3.431  0.3894  0.0054  0.3802
  152OSM   H11S16901   4.367   5.755   3.405  0.5189  0.2936 -0.5012
  152OSM   H11T16902   4.215   5.855   3.394  1.1585 -0.2354 -2.0490
  152OSM   C12S16903   4.321   5.883   3.581 -0.4054 -0.5626 -0.3053
  152OSM   H12S16904   4.422   5.895   3.626 -0.2310 -1.7432 -0.3537
  152OSM   H12T16905   4.284   5.799   3.643 -0.9740 -1.0380 -1.2575
  152OSM   C13S16906   4.232   5.994   3.623  0.4909  0.2222 -0.0206
  152OSM   H13S16907   4.125   5.972   3.603  0.5042 -1.5970  1.6131
  152OSM   H13T16908   4.245   6.097   3.584 -0.9828  2.0070  3.6349
  152OSM   C14S16909   4.242   6.003   3.774  0.3530  0.2237 -0.3488
  152OSM   H14S16910   4.351   6.005   3.798 -0.1863 -1.1763  2.6930
  152OSM   H14T16911   4.211   5.904   3.814 -0.3089  1.1016  1.3818
  152OSM   C15S16912   4.150   6.094   3.862  0.1349 -0.1391 -1.1414
  152OSM   H15S16913   4.047   6.092   3.820  0.6354  1.2444 -2.5034
  152OSM   H15T16914   4.190   6.196   3.845  2.9390 -1.1173 -0.9147
  152OSM   C16S16915   4.158   6.047   4.003 -0.0023  0.3237  0.2715
  152OSM   H16S16916   4.262   6.059   4.038 -0.5812 -2.5650  3.5794
  152OSM   H16T16917   4.149   5.936   4.009  1.9758  0.0076 -1.6051
  152OSM   C17S16918   4.073   6.122   4.096 -0.2126  0.3691 -0.6131
  152OSM   H17S16919   4.076   6.097   4.205 -2.4688 -1.3753 -0.8742
  152OSM   H17T16920   3.966   6.110   4.068 -0.4500  1.1141 -0.0507
  152OSM   C18S16921   4.094   6.270   4.103  0.0795 -1.1461 -0.0775
  152OSM   H18S16922   4.200   6.299   4.118 -0.2037 -1.0430  2.0161
  152OSM   H18T16923   4.032   6.326   4.177 -1.8828 -0.9976 -1.7484
  152OSM   H18U16924   4.066   6.307   4.002  0.8374 -0.9079 -0.2057
  152OSM    C1F16925   3.948   5.962   2.503 -0.4103 -0.4578  0.3952
  152OSM     OF16926   3.886   5.862   2.463  0.4467 -0.0109 -0.1948
  152OSM    C2F16927   3.877   6.090   2.543 -0.3543  1.2485 -0.1988
  152OSM    H2F16928   3.863   6.155   2.454  0.6539 -1.1876 -2.2583
  152OSM    H2G16929   3.945   6.149   2.609  0.3208  0.1845  0.0893
  152OSM    C3F16930   3.743   6.063   2.611 -0.4657 -0.4191 -0.0127
  152OSM    H3F16931   3.671   6.003   2.552  0.1519 -2.9043  1.5776
  152OSM    H3G16932   3.690   6.159   2.625  2.1588  1.5209 -2.1664
  152OSM    C4F16933   3.744   5.989   2.747  0.1163  0.2900 -0.7446
  152OSM    H4F16934   3.797   5.895   2.723  0.6167  0.2358  0.5129
  152OSM    H4G16935   3.638   5.966   2.771 -0.5229  2.4079 -1.3262
  152OSM    C5F16936   3.803   6.069   2.867 -0.4582  0.1713 -0.8403
  152OSM    H5F16937   3.720   6.109   2.929  1.6016 -2.0033  3.7940
  152OSM    H5G16938   3.880   6.145   2.839  0.1648 -0.0926  0.0879
  152OSM    C6F16939   3.888   5.973   2.955  0.0108  0.1940  0.8936
  152OSM    H6F16940   3.977   5.937   2.899  2.7000  1.7292  3.8013
  152OSM    H6G16941   3.823   5.890   2.990 -1.1318  0.6176 -0.1651
  152OSM    C7F16942   3.946   6.040   3.077  0.2080  0.5587  0.5543
  152OSM    H7F16943   3.888   6.132   3.100 -1.6036 -0.3414 -0.1979
  152OSM    H7G16944   4.044   6.077   3.039 -0.8145  3.8503  0.8410
  152OSM    C8F16945   3.959   5.946   3.198 -0.3168 -0.3067  0.4559
  152OSM    H8F16946   4.049   5.881   3.189 -0.4542 -0.4329 -0.0163
  152OSM    H8G16947   3.863   5.890   3.196 -1.4814  1.6023  0.5630
  152OSM    C9F16948   3.987   6.040   3.317  0.0725  0.2051  0.1296
  152OSM    H9F16949   4.074   6.106   3.307 -0.3305  0.9942  1.4347
  152OSM   C10F16950   3.917   6.054   3.430  0.1444 -0.4716 -0.2851
  152OSM   H10F16951   3.937   6.143   3.491 -3.1737 -0.4629  1.0023
  152OSM   C11F16952   3.795   5.974   3.480 -0.0557  0.4872  0.3453
  152OSM   H11F16953   3.763   5.891   3.414 -1.1143  0.5958  0.7105
  152OSM   H11G16954   3.706   6.039   3.486  1.2754  2.2613  2.3340
  152OSM   C12F16955   3.819   5.909   3.616  0.2303 -0.7533  0.1514
  152OSM   H12F16956   3.922   5.866   3.616  1.2927  1.5284 -1.9619
  152OSM   H12G16957   3.743   5.831   3.635 -1.6309  0.9078 -0.1576
  152OSM   C13F16958   3.788   6.008   3.729 -0.3757 -0.5701  0.9491
  152OSM   H13F16959   3.843   6.103   3.714  1.6745 -1.9344 -0.8007
  152OSM   H13G16960   3.836   5.964   3.819  2.4156  0.9299  0.2950
  152OSM   C14F16961   3.636   6.011   3.763 -0.3153 -0.6732  0.8350
  152OSM   H14F16962   3.609   5.923   3.825 -0.6724 -3.0511 -2.4674
  152OSM   H14G16963   3.571   6.008   3.673 -0.1534 -0.4692  0.7101
  152OSM   C15F16964   3.590   6.145   3.827  0.4175 -0.5887 -0.0186
  152OSM   H15F16965   3.483   6.136   3.853  0.7611 -3.5519  0.7679
  152OSM   H15G16966   3.607   6.228   3.755 -0.3034  0.5106  1.0501
  152OSM   C16F16967   3.653   6.173   3.964 -0.3454 -0.0166 -0.5083
  152OSM   H16F16968   3.762   6.159   3.950 -0.1420 -1.6996  2.1491
  152OSM   H16G16969   3.611   6.096   4.031 -0.1420  2.1741  2.3340
  152OSM   C17F16970   3.610   6.314   4.017  0.1760 -0.1822  0.3518
  152OSM   H17F16971   3.501   6.303   4.029 -0.1674  2.0437 -0.2387
  152OSM   H17G16972   3.634   6.392   3.941 -1.1590  1.7166  1.7819
  152OSM   C18F16973   3.676   6.333   4.151 -0.2011  0.2507  0.1184
  152OSM   H18F16974   3.672   6.439   4.183  1.0455 -0.4796  3.0242
  152OSM   H18G16975   3.785   6.315   4.138  0.4817  1.0388  3.7477
  152OSM   H18H16976   3.626   6.262   4.220 -0.9960  0.1656 -0.5333
  153OSM      N16977   3.033   5.862   2.394 -0.4300 -0.6095  0.4322
  153OSM    C1516978   3.038   5.838   2.538 -0.2234  0.0626 -1.2067
  153OSM   H15A16979   2.960   5.772   2.571 -1.6488  2.6373  0.8839
  153OSM   H15B16980   3.011   5.932   2.584 -0.2344 -0.3410 -0.3693
  153OSM   H15C16981   3.136   5.817   2.578 -0.6227  0.2787 -0.0862
  153OSM    C1416982   3.068   5.734   2.325  0.3288 -0.3635 -0.6233
  153OSM   H14A16983   2.994   5.658   2.347 -0.5885  0.8228  0.5137
  153OSM   H14B16984   3.157   5.689   2.367 -0.1689 -0.4661  0.3479
  153OSM   H14C16985   3.061   5.744   2.218 -1.9746 -1.3948 -0.6165
  153OSM    C1316986   2.889   5.895   2.358 -0.0863 -0.1771  0.5646
  153OSM   H13A16987   2.826   5.808   2.367  0.1833 -0.2915  1.4833
  153OSM   H13B16988   2.889   5.939   2.259  1.6640  0.5524  0.8447
  153OSM   H13C16989   2.849   5.960   2.434  0.9689 -0.3744  1.3244
  153OSM    C1216990   3.122   5.980   2.362  0.1132  0.0275 -0.5342
  153OSM   H12A16991   3.216   5.956   2.409  0.7190 -0.6375 -2.0268
  153OSM   H12B16992   3.072   6.057   2.420 -0.4919 -0.2734 -0.6528
  153OSM    C1116993   3.146   6.024   2.219  0.4524  0.7831  0.0727
  153OSM   H11A16994   3.180   5.933   2.165  0.1837  1.2118 -0.8418
  153OSM   H11B16995   3.228   6.099   2.222  0.5441  0.6651  1.1556
  153OSM      P16996   2.993   6.211   2.138  0.2008 -0.2824  0.0486
  153OSM    O1316997   3.056   6.272   2.021 -0.2299  0.2583 -0.5444
  153OSM    O1416998   2.847   6.230   2.149  0.2445  0.6809  0.4656
  153OSM    O1116999   3.064   6.266   2.265  0.3736  0.4898 -0.0769
  153OSM    O1217000   3.024   6.063   2.158 -0.2746 -0.4664 -0.3466
  153OSM    C1S17001   2.987   6.323   2.367 -0.2944 -0.4401 -0.0644
  153OSM    H1S17002   2.899   6.262   2.395 -1.0508  0.8155  0.3377
  153OSM    H1T17003   2.951   6.420   2.326  1.1599 -0.1219 -0.6632
  153OSM     NF17004   2.993   6.350   2.617  0.0471  0.8782 -0.0916
  153OSM    HNF17005   2.974   6.441   2.654  2.2282  1.1814  0.4135
  153OSM    C2S17006   3.071   6.355   2.493  0.3783  0.1671 -0.1847
  153OSM    H2S17007   3.156   6.285   2.512  1.8890  2.3536  1.7013
  153OSM    C3S17008   3.135   6.489   2.466  0.6484  0.1524  0.0449
  153OSM    H3S17009   3.049   6.558   2.481  0.8776  0.1055  1.8203
  153OSM     O317010   3.182   6.506   2.334 -0.1746  0.1519 -0.1013
  153OSM    HO317011   3.145   6.431   2.286 -0.6163  0.3489 -0.0727
  153OSM    C4S17012   3.247   6.509   2.562 -0.8080 -0.3311 -0.1065
  153OSM    H4S17013   3.315   6.423   2.570 -0.6600 -0.4280 -1.9714
  153OSM    C5S17014   3.261   6.615   2.645  0.0581 -0.1572 -0.0247
  153OSM    H5S17015   3.179   6.689   2.650 -0.0072 -0.3405  2.3123
  153OSM    C6S17016   3.374   6.641   2.735 -0.9170  0.3346 -0.0650
  153OSM    H6S17017   3.434   6.729   2.706 -1.6652  0.6249 -0.7801
  153OSM    H6T17018   3.444   6.555   2.732  1.8476  2.4730 -0.2355
  153OSM    C7S17019   3.321   6.666   2.883  0.0049  0.3134 -0.0909
  153OSM    H7S17020   3.270   6.579   2.929 -1.2227  1.1154  0.1099
  153OSM    H7T17021   3.243   6.745   2.891 -0.1582  0.0447  1.2340
  153OSM    C8S17022   3.429   6.713   2.977  0.4039  0.9248 -0.3811
  153OSM    H8S17023   3.489   6.789   2.924  1.1259  0.6034 -0.0328
  153OSM    H8T17024   3.491   6.627   3.011  0.2124  1.5827  1.7959
  153OSM    C9S17025   3.374   6.785   3.105  0.2467 -0.5669  0.2116
  153OSM    H9S17026   3.320   6.706   3.161 -0.2276  2.0261  3.7841
  153OSM    H9T17027   3.297   6.859   3.075  1.0548  0.7961  1.3590
  153OSM   C10S17028   3.471   6.860   3.179 -0.5083 -0.3895 -0.4106
  153OSM   H10S17029   3.507   6.949   3.122 -1.2264 -0.0884 -0.4129
  153OSM   H10T17030   3.551   6.787   3.203 -0.2156  0.6616  2.0787
  153OSM   C11S17031   3.414   6.928   3.307  0.2784  0.6048  0.0081
  153OSM   H11S17032   3.319   6.877   3.334  0.6224 -0.9116 -1.4384
  153OSM   H11T17033   3.397   7.035   3.284 -1.7798  0.7269  1.8321
  153OSM   C12S17034   3.519   6.933   3.417  0.0473 -0.7477 -0.2060
  153OSM   H12S17035   3.519   7.028   3.474 -0.5805 -0.5711 -0.4889
  153OSM   H12T17036   3.605   6.929   3.347 -0.8537 -4.0120 -1.2939
  153OSM   C13S17037   3.516   6.812   3.513 -0.8645  0.5275  0.0950
  153OSM   H13S17038   3.623   6.801   3.540 -1.1028  1.7986  1.7685
  153OSM   H13T17039   3.480   6.719   3.465 -2.7752  2.2518 -2.0356
  153OSM   C14S17040   3.437   6.828   3.637  0.3615  0.4630  0.3140
  153OSM   H14S17041   3.332   6.857   3.612  0.3849  0.2212 -0.0841
  153OSM   H14T17042   3.476   6.918   3.688  0.9810  1.1555 -1.3027
  153OSM   C15S17043   3.433   6.701   3.727 -0.1928 -1.1050  0.4413
  153OSM   H15S17044   3.540   6.672   3.740  0.3265  1.2187  2.0049
  153OSM   H15T17045   3.387   6.615   3.675  0.4782 -2.0994  1.4377
  153OSM   C16S17046   3.354   6.716   3.853  0.1580 -0.0372 -0.1984
  153OSM   H16S17047   3.249   6.747   3.838 -0.0750 -0.7022  0.0135
  153OSM   H16T17048   3.402   6.799   3.910 -0.9232 -0.1874  0.9881
  153OSM   C17S17049   3.345   6.594   3.942  0.1466 -0.2399  0.2932
  153OSM   H17S17050   3.355   6.511   3.869 -0.8090  0.5018 -0.7382
  153OSM   H17T17051   3.244   6.583   3.988 -0.0094  0.7887  0.2212
  153OSM   C18S17052   3.440   6.588   4.067  0.3955 -0.3100  0.4882
  153OSM   H18S17053   3.545   6.623   4.056  0.1682  0.3119  0.2619
  153OSM   H18T17054   3.453   6.480   4.091  0.3180 -0.5269 -0.4297
  153OSM   H18U17055   3.388   6.641   4.150 -2.7046 -2.3088 -0.0136
  153OSM    C1F17056   2.942   6.238   2.666 -0.3796 -1.0140  0.7443
  153OSM     OF17057   2.969   6.130   2.605  0.6645 -0.3972  0.6020
  153OSM    C2F17058   2.862   6.239   2.789  0.0150 -0.6715 -0.2562
  153OSM    H2F17059   2.757   6.233   2.755 -1.0235  3.6982  1.5022
  153OSM    H2G17060   2.888   6.339   2.831  0.6821 -0.6982 -0.5866
  153OSM    C3F17061   2.885   6.110   2.871 -0.1331 -0.3240 -0.2428
  153OSM    H3F17062   2.994   6.106   2.889 -0.4228 -1.3981  1.4775
  153OSM    H3G17063   2.866   6.020   2.808  1.3991 -1.0335  0.2814
  153OSM    C4F17064   2.802   6.100   2.996  0.4905  0.4160 -0.4508
  153OSM    H4F17065   2.838   6.005   3.041 -0.6644  0.2302  0.1196
  153OSM    H4G17066   2.695   6.087   2.972  0.4157 -0.7890  0.4015
  153OSM    C5F17067   2.823   6.209   3.102 -1.3053 -0.4854 -0.3058
  153OSM    H5F17068   2.805   6.312   3.066  1.1138  0.6246  1.4091
  153OSM    H5G17069   2.930   6.206   3.130 -1.0304  0.4442 -1.2057
  153OSM    C6F17070   2.740   6.179   3.229  0.2790 -0.9184 -0.1391
  153OSM    H6F17071   2.757   6.071   3.251 -0.1739 -0.6810  1.4692
  153OSM    H6G17072   2.632   6.190   3.209  0.2473  1.1635  0.9485
  153OSM    C7F17073   2.770   6.263   3.359 -0.1016 -0.4713  0.3496
  153OSM    H7F17074   2.773   6.371   3.335 -0.6374 -0.7274 -0.9713
  153OSM    H7G17075   2.875   6.239   3.385 -0.1378 -1.2626 -0.1976
  153OSM    C8F17076   2.669   6.244   3.478  0.2827 -0.3536  0.0611
  153OSM    H8F17077   2.677   6.138   3.509 -0.3810 -0.3375  0.3108
  153OSM    H8G17078   2.564   6.257   3.444  0.2907 -1.6024 -0.4685
  153OSM    C9F17079   2.713   6.336   3.597 -0.7158 -0.1836  0.2314
  153OSM    H9F17080   2.761   6.433   3.575 -0.5498  0.0589  1.5719
  153OSM   C10F17081   2.714   6.305   3.727  0.1837  0.6762 -0.6268
  153OSM   H10F17082   2.761   6.374   3.799  0.3157  0.3819 -0.4284
  153OSM   C11F17083   2.682   6.170   3.786 -0.4245 -0.0744 -0.1712
  153OSM   H11F17084   2.771   6.106   3.771 -0.2991  0.7918 -3.9924
  153OSM   H11G17085   2.600   6.113   3.737 -0.1596 -0.7321  0.1368
  153OSM   C12F17086   2.650   6.182   3.937  0.2739 -0.3286  0.0794
  153OSM   H12F17087   2.561   6.248   3.948 -1.0236 -1.6974 -1.7617
  153OSM   H12G17088   2.733   6.236   3.988 -0.8525  1.0178  0.5597
  153OSM   C13F17089   2.631   6.046   4.007  0.4803 -0.0717  0.2201
  153OSM   H13F17090   2.550   5.987   3.958  0.4357  1.0228 -1.0996
  153OSM   H13G17091   2.600   6.074   4.109  3.9994  1.7846  0.9249
  153OSM   C14F17092   2.758   5.967   4.021 -0.1137 -0.0400  0.1507
  153OSM   H14F17093   2.841   6.040   4.032 -0.3583  0.7513 -2.4990
  153OSM   H14G17094   2.784   5.905   3.932  0.2029  2.4349 -1.5808
  153OSM   C15F17095   2.758   5.868   4.140  0.2192  1.0932 -0.2155
  153OSM   H15F17096   2.830   5.786   4.120 -0.9342 -0.7248  2.4631
  153OSM   H15G17097   2.660   5.819   4.123  0.5673  1.1693 -2.9326
  153OSM   C16F17098   2.783   5.926   4.272  0.0406 -0.2470  0.1223
  153OSM   H16F17099   2.725   6.018   4.294 -1.8519 -0.9848 -1.4506
  153OSM   H16G17100   2.890   5.955   4.262  0.5205 -2.0080 -0.2872
  153OSM   C17F17101   2.772   5.825   4.382  0.3717  0.0551  0.3352
  153OSM   H17F17102   2.836   5.738   4.356 -1.5719 -1.0098 -1.1393
  153OSM   H17G17103   2.670   5.780   4.380  0.8845 -1.2533 -3.2093
  153OSM   C18F17104   2.796   5.868   4.528  0.0782 -0.2360  0.0287
  153OSM   H18F17105   2.703   5.920   4.559  0.3247 -0.1438  0.6317
  153OSM   H18G17106   2.886   5.930   4.548  0.9258 -0.1660 -3.4075
  153OSM   H18H17107   2.803   5.778   4.592  0.9246  0.4903  0.9968
  154OSM      N17108   6.484   0.962   1.944 -0.0064  0.4016 -0.7983
  154OSM    C1517109   6.428   1.092   1.882 -0.3277  0.0791  0.1676
  154OSM   H15A17110   6.320   1.090   1.879 -0.3241  0.0010  0.0781
  154OSM   H15B17111   6.464   1.099   1.780 -2.4807 -1.2051 -0.7551
  154OSM   H15C17112   6.451   1.179   1.942  3.1958 -0.0249 -0.8305
  154OSM    C1417113   6.447   0.851   1.855 -0.2765 -0.5157  0.0889
  154OSM   H14A17114   6.340   0.852   1.838 -0.1418 -0.2411 -0.8223
  154OSM   H14B17115   6.466   0.753   1.896  3.7843 -1.5393 -3.4802
  154OSM   H14C17116   6.501   0.848   1.761  0.1076  0.7689  0.2495
  154OSM    C1317117   6.636   0.967   1.958  0.1360 -0.4266 -0.2643
  154OSM   H13A17118   6.686   0.976   1.862  2.3083  0.3348  0.8742
  154OSM   H13B17119   6.672   0.889   2.023  1.1888 -1.1826 -1.6985
  154OSM   H13C17120   6.657   1.062   2.004 -0.6029  0.3279 -1.4251
  154OSM    C1217121   6.422   0.954   2.082  0.3902  0.3782  0.4477
  154OSM   H12A17122   6.443   1.045   2.137 -2.4778  1.2414  0.2938
  154OSM   H12B17123   6.472   0.874   2.134 -1.7603 -1.3029  0.0918
  154OSM    C1117124   6.269   0.945   2.096  0.7616  0.5733 -0.5942
  154OSM   H11A17125   6.210   1.024   2.045 -1.4937 -0.9357 -0.4454
  154OSM   H11B17126   6.240   0.953   2.203 -1.0432 -0.6203 -0.9624
  154OSM      P17127   6.232   0.689   2.124 -0.1777  0.6393  0.0754
  154OSM    O1317128   6.191   0.572   2.037  0.2273  0.0066  0.0579
  154OSM    O1417129   6.364   0.685   2.192 -0.0409  0.6566 -0.0996
  154OSM    O1117130   6.126   0.716   2.237 -0.0965 -0.1561  0.2809
  154OSM    O1217131   6.220   0.822   2.038 -0.0805 -0.2941  0.1933
  154OSM    C1S17132   6.003   0.642   2.263 -1.1327 -0.0985  0.1527
  154OSM    H1S17133   6.032   0.535   2.273 -3.0377 -0.7042 -0.3465
  154OSM    H1T17134   5.928   0.656   2.183  0.0728  0.5922 -0.8805
  154OSM     NF17135   5.835   0.591   2.418 -0.3505 -0.5796 -0.0611
  154OSM    HNF17136   5.746   0.630   2.396 -0.2082 -1.0769 -1.6332
  154OSM    C2S17137   5.937   0.681   2.395 -0.8611 -0.5346  0.3537
  154OSM    H2S17138   6.019   0.675   2.469  0.4782  1.1730 -0.9097
  154OSM    C3S17139   5.894   0.834   2.395 -0.4675 -0.5659 -0.0577
  154OSM    H3S17140   5.826   0.846   2.308  0.4016  1.1529 -0.5611
  154OSM     O317141   6.002   0.923   2.355  0.7724 -0.2164  0.3592
  154OSM    HO317142   6.058   0.851   2.324 -1.2990 -1.5730 -0.5058
  154OSM    C4S17143   5.831   0.886   2.517  0.2904 -0.1503 -0.1280
  154OSM    H4S17144   5.893   0.879   2.608 -1.5036 -1.3586  1.0586
  154OSM    C5S17145   5.703   0.937   2.512  0.1908 -0.1827  0.2301
  154OSM    H5S17146   5.653   0.955   2.416 -0.2898  0.9088  0.6687
  154OSM    C6S17147   5.634   0.989   2.638 -0.0913  0.2474 -0.7133
  154OSM    H6S17148   5.547   0.922   2.658  1.0178 -0.8584  0.6115
  154OSM    H6T17149   5.595   1.092   2.621 -0.6487  0.6717  2.4823
  154OSM    C7S17150   5.715   0.987   2.768  0.3170  0.0015  0.6167
  154OSM    H7S17151   5.819   1.027   2.757  0.0816  1.0160  1.8677
  154OSM    H7T17152   5.723   0.879   2.795 -0.8408 -0.1090  0.5608
  154OSM    C8S17153   5.651   1.065   2.886 -0.2424  0.2747 -0.8937
  154OSM    H8S17154   5.543   1.043   2.897 -0.0422  0.1313  1.1559
  154OSM    H8T17155   5.669   1.168   2.850  2.4543  0.0549 -0.3755
  154OSM    C9S17156   5.717   1.027   3.015  0.1635 -0.0946  0.3064
  154OSM    H9S17157   5.716   0.916   3.022  0.9036 -0.1333 -0.1198
  154OSM    H9T17158   5.669   1.076   3.103  1.8206  1.6609  0.3019
  154OSM   C10S17159   5.852   1.084   3.018 -0.7951  0.1922  0.1291
  154OSM   H10S17160   5.856   1.191   2.989 -1.1455  0.3375  0.6120
  154OSM   H10T17161   5.921   1.027   2.952 -1.7931 -0.0192 -0.7617
  154OSM   C11S17162   5.901   1.085   3.161 -0.5837  0.8271 -0.5918
  154OSM   H11S17163   5.840   1.153   3.224 -0.0398  0.5812  0.2199
  154OSM   H11T17164   6.005   1.123   3.162  0.1072 -0.8147  2.8214
  154OSM   C12S17165   5.911   0.946   3.233 -0.3283 -0.0309  0.0040
  154OSM   H12S17166   5.996   0.891   3.185 -1.0360 -0.4935 -0.7389
  154OSM   H12T17167   5.815   0.893   3.218  0.2353 -1.4270  1.0936
  154OSM   C13S17168   5.941   0.954   3.386  0.2768  0.1125  0.4630
  154OSM   H13S17169   5.843   0.962   3.438 -0.9731 -0.5683 -1.6106
  154OSM   H13T17170   5.999   1.047   3.403  1.2780 -0.3815 -0.2042
  154OSM   C14S17171   6.019   0.828   3.424  0.2108  0.1088  0.2812
  154OSM   H14S17172   6.114   0.839   3.366  0.1533  0.0640  0.1792
  154OSM   H14T17173   5.962   0.738   3.395 -0.2933  0.0407  1.4367
  154OSM   C15S17174   6.043   0.817   3.578 -0.2214  0.0532  0.0342
  154OSM   H15S17175   6.098   0.905   3.617  0.5619  0.1399 -1.1927
  154OSM   H15T17176   6.103   0.726   3.603 -0.4184  0.0065  0.3320
  154OSM   C16S17177   5.911   0.797   3.659  0.2905 -0.3686  0.5175
  154OSM   H16S17178   5.850   0.720   3.607 -0.1822  0.5813 -0.3556
  154OSM   H16T17179   5.850   0.889   3.671  0.2670 -0.2781 -0.2821
  154OSM   C17S17180   5.944   0.740   3.796  1.3243 -0.0222 -0.4559
  154OSM   H17S17181   6.024   0.807   3.834  1.0035  0.2322 -0.2143
  154OSM   H17T17182   5.998   0.644   3.784  2.3829  0.6029 -0.8455
  154OSM   C18S17183   5.820   0.734   3.880 -0.0372 -0.0723 -0.0625
  154OSM   H18S17184   5.746   0.659   3.844  2.1338 -0.6312 -3.8368
  154OSM   H18T17185   5.773   0.834   3.882 -1.6015 -0.7642 -0.6646
  154OSM   H18U17186   5.852   0.709   3.984  1.6935  3.7120  0.4796
  154OSM    C1F17187   5.851   0.468   2.469 -0.0808  0.0009 -0.2944
  154OSM     OF17188   5.959   0.432   2.498  0.1612 -0.1001 -0.0851
  154OSM    C2F17189   5.725   0.397   2.513 -0.0365 -0.1716  0.3291
  154OSM    H2F17190   5.674   0.377   2.417  1.6692 -2.0478 -0.2612
  154OSM    H2G17191   5.657   0.461   2.573  1.1693  0.5692  0.9338
  154OSM    C3F17192   5.756   0.263   2.577  1.1931 -0.3929  1.0935
  154OSM    H3F17193   5.810   0.291   2.670 -1.0725  2.9746  1.5877
  154OSM    H3G17194   5.821   0.214   2.502 -1.0820  0.3941 -1.5551
  154OSM    C4F17195   5.621   0.189   2.592  0.2139 -0.2162  0.3287
  154OSM    H4F17196   5.634   0.078   2.601 -2.1446 -0.7048 -1.4628
  154OSM    H4G17197   5.568   0.189   2.495 -0.1958 -2.2384  0.5085
  154OSM    C5F17198   5.520   0.248   2.690 -0.1075  0.2297 -0.0929
  154OSM    H5F17199   5.436   0.176   2.674  0.3534  0.0040 -1.6542
  154OSM    H5G17200   5.490   0.349   2.656  1.2678 -0.2033 -2.8235
  154OSM    C6F17201   5.558   0.241   2.837  0.3934 -0.4959  0.6517
  154OSM    H6F17202   5.612   0.329   2.876  0.0113  0.0162  0.0378
  154OSM    H6G17203   5.613   0.146   2.854  0.4965 -0.2218  1.9325
  154OSM    C7F17204   5.432   0.226   2.928  0.1534  0.1199  0.0355
  154OSM    H7F17205   5.369   0.146   2.884  2.3681 -1.7812  0.1399
  154OSM    H7G17206   5.375   0.322   2.926 -0.7234 -0.3929 -2.3327
  154OSM    C8F17207   5.474   0.183   3.069 -0.3019  0.5328  0.1215
  154OSM    H8F17208   5.528   0.087   3.060  2.9236  2.3229 -1.5754
  154OSM    H8G17209   5.383   0.161   3.129 -0.8207  1.3060 -0.3542
  154OSM    C9F17210   5.555   0.292   3.139  0.4072  0.2010  0.2564
  154OSM    H9F17211   5.573   0.386   3.085  1.8809  1.8475  3.3059
  154OSM   C10F17212   5.577   0.303   3.269 -0.3430 -1.0519  0.7969
  154OSM   H10F17213   5.633   0.387   3.312 -0.4824 -0.2968 -0.4202
  154OSM   C11F17214   5.557   0.194   3.369  0.2426 -1.0633  0.6442
  154OSM   H11F17215   5.658   0.153   3.392  1.0558  0.7704  0.5635
  154OSM   H11G17216   5.491   0.120   3.319  1.7111 -2.1717  0.2727
  154OSM   C12F17217   5.485   0.231   3.499  0.0673  0.3001  0.7984
  154OSM   H12F17218   5.486   0.133   3.551 -0.6526 -1.6448 -2.5895
  154OSM   H12G17219   5.384   0.265   3.467  1.8205  2.0495 -3.6038
  154OSM   C13F17220   5.555   0.347   3.579  0.7779 -0.3069  0.0856
  154OSM   H13F17221   5.508   0.435   3.529 -0.0958  0.0185  1.4374
  154OSM   H13G17222   5.663   0.367   3.562  1.0148 -0.7693  1.0023
  154OSM   C14F17223   5.517   0.337   3.726  0.1435 -0.4754  0.6192
  154OSM   H14F17224   5.558   0.247   3.777  1.7591  0.8331  1.7710
  154OSM   H14G17225   5.407   0.330   3.726  0.1306 -0.2393  0.3207
  154OSM   C15F17226   5.570   0.455   3.807  0.1111  0.4805  0.1193
  154OSM   H15F17227   5.505   0.545   3.803  0.0038  0.3875 -0.1850
  154OSM   H15G17228   5.669   0.482   3.764  0.2299 -0.6069 -0.3144
  154OSM   C16F17229   5.581   0.431   3.959  0.2369  1.1062  0.1208
  154OSM   H16F17230   5.621   0.532   3.983 -0.5684  1.6108 -0.5998
  154OSM   H16G17231   5.651   0.347   3.979  0.0514  1.0024  0.3309
  154OSM   C17F17232   5.451   0.405   4.018  0.1733 -0.0969 -0.2832
  154OSM   H17F17233   5.429   0.296   4.023 -2.7726  0.4064 -0.3282
  154OSM   H17G17234   5.364   0.451   3.967 -1.5489 -1.1264  1.5807
  154OSM   C18F17235   5.427   0.456   4.166 -1.0343 -0.0741 -0.6328
  154OSM   H18F17236   5.330   0.415   4.201 -1.1961  0.2738 -0.6631
  154OSM   H18G17237   5.420   0.567   4.164  0.5106  0.0674  0.0319
  154OSM   H18H17238   5.513   0.421   4.226 -0.1407 -2.5363 -3.1360
  155OSM      N17239   3.312   0.373   2.193 -0.6650 -0.3233  0.3147
  155OSM    C1517240   3.387   0.412   2.315 -0.2113  0.2407 -0.2912
  155OSM   H15A17241   3.324   0.428   2.401  2.8408 -1.4204  2.4525
  155OSM   H15B17242   3.432   0.507   2.294 -2.4704  1.3843 -0.2492
  155OSM   H15C17243   3.461   0.337   2.340  0.2444  0.1446 -1.7936
  155OSM    C1417244   3.240   0.240   2.200 -0.1642 -0.4183 -0.0337
  155OSM   H14A17245   3.195   0.216   2.105  1.1076 -1.6469 -0.3644
  155OSM   H14B17246   3.158   0.240   2.271 -0.5405 -1.2918 -0.4391
  155OSM   H14C17247   3.310   0.163   2.229  0.9334  0.1246 -1.2002
  155OSM    C1317248   3.209   0.481   2.175 -0.3346  0.1910  0.3032
  155OSM   H13A17249   3.144   0.495   2.260 -0.3887  0.5190  0.2100
  155OSM   H13B17250   3.149   0.467   2.086  0.7289 -0.1225 -0.3801
  155OSM   H13C17251   3.258   0.575   2.157 -0.5914  0.3091  0.2221
  155OSM    C1217252   3.406   0.374   2.075 -0.1441  0.1196  0.8153
  155OSM   H12A17253   3.353   0.338   1.988  0.7731 -1.5225  0.8900
  155OSM   H12B17254   3.479   0.296   2.091 -1.0797 -0.9506 -0.0064
  155OSM    C1117255   3.488   0.503   2.043  0.0089  0.2028 -0.6841
  155OSM   H11A17256   3.549   0.485   1.952 -1.4503  0.7159 -1.7977
  155OSM   H11B17257   3.553   0.540   2.125 -0.9475  1.2724 -0.3776
  155OSM      P17258   3.485   0.744   1.973  0.3196 -0.2261  0.2437
  155OSM    O1317259   3.619   0.712   1.919  0.8162 -0.4525 -0.0799
  155OSM    O1417260   3.394   0.821   1.883 -0.0330 -0.2246 -0.0616
  155OSM    O1117261   3.487   0.813   2.109  0.0808  0.7047 -0.7767
  155OSM    O1217262   3.404   0.618   2.006 -0.1003 -0.2089  1.0257
  155OSM    C1S17263   3.396   0.800   2.217 -0.4451 -0.0954 -0.9710
  155OSM    H1S17264   3.400   0.701   2.266  2.7734 -0.2046 -1.2696
  155OSM    H1T17265   3.291   0.820   2.186 -0.9078  1.5462  1.4026
  155OSM     NF17266   3.376   0.856   2.458 -0.3988  0.4881  0.0868
  155OSM    HNF17267   3.303   0.908   2.500  0.0810  0.6501  0.7404
  155OSM    C2S17268   3.426   0.903   2.326 -0.5808 -0.0834  0.2718
  155OSM    H2S17269   3.537   0.901   2.333 -0.5128 -0.6449 -0.7760
  155OSM    C3S17270   3.393   1.048   2.279  0.5137 -0.1913 -0.0053
  155OSM    H3S17271   3.283   1.055   2.268  0.4806  0.6203  0.7826
  155OSM     O317272   3.428   1.064   2.140 -0.3386 -0.1953 -0.7205
  155OSM    HO317273   3.462   0.978   2.114 -0.3549 -0.4453  0.0625
  155OSM    C4S17274   3.435   1.148   2.375  0.6187 -0.5695  0.2472
  155OSM    H4S17275   3.389   1.145   2.474  1.0949  2.0201  0.6154
  155OSM    C5S17276   3.547   1.224   2.357 -0.1518 -0.6945  0.7294
  155OSM    H5S17277   3.613   1.224   2.269  0.7464  0.5952  1.3659
  155OSM    C6S17278   3.597   1.327   2.458  0.0191  0.0767  0.2665
  155OSM    H6S17279   3.622   1.422   2.406  0.9822 -0.2106  0.1799
  155OSM    H6T17280   3.693   1.286   2.497  1.3135  0.7769 -2.0024
  155OSM    C7S17281   3.508   1.361   2.577 -0.8691 -0.1620  0.4037
  155OSM    H7S17282   3.503   1.268   2.638  1.6735  1.3480  3.1930
  155OSM    H7T17283   3.412   1.405   2.544 -0.4579  1.0892  0.8090
  155OSM    C8S17284   3.565   1.473   2.668 -0.0185  0.5495  0.8569
  155OSM    H8S17285   3.559   1.572   2.619  0.6323 -0.8376 -2.2819
  155OSM    H8T17286   3.669   1.454   2.702  0.8338  3.2685 -0.0140
  155OSM    C9S17287   3.484   1.482   2.800 -0.3316  0.0185 -0.0315
  155OSM    H9S17288   3.375   1.470   2.786 -0.7872  2.7794  0.5220
  155OSM    H9T17289   3.513   1.583   2.838  1.2494  0.2761 -1.7407
  155OSM   C10S17290   3.532   1.377   2.894 -0.6620 -0.2587  0.1903
  155OSM   H10S17291   3.641   1.368   2.912 -0.3169  1.2088 -0.9001
  155OSM   H10T17292   3.495   1.279   2.857 -1.1026  0.1992 -0.6104
  155OSM   C11S17293   3.469   1.390   3.037  0.3690 -0.3775 -0.7684
  155OSM   H11S17294   3.472   1.302   3.105  0.9864  1.2687  1.4304
  155OSM   H11T17295   3.364   1.424   3.024  0.0534 -1.6315 -1.7204
  155OSM   C12S17296   3.534   1.501   3.113  0.0109 -0.7903 -0.0562
  155OSM   H12S17297   3.526   1.597   3.059 -0.0193 -0.1084  1.1421
  155OSM   H12T17298   3.642   1.478   3.116 -0.3337 -2.4609  1.9838
  155OSM   C13S17299   3.475   1.512   3.249 -0.7869  0.3280  0.0150
  155OSM   H13S17300   3.366   1.499   3.230 -0.3490 -1.5638 -1.5586
  155OSM   H13T17301   3.490   1.617   3.283 -3.0795  0.4055  0.9238
  155OSM   C14S17302   3.535   1.420   3.352 -0.6774  0.7218  0.7174
  155OSM   H14S17303   3.646   1.430   3.359 -0.4691  2.0424 -2.5653
  155OSM   H14T17304   3.509   1.315   3.327  0.4755  0.2121  1.5831
  155OSM   C15S17305   3.474   1.426   3.485 -0.2577 -0.3532  0.2147
  155OSM   H15S17306   3.481   1.333   3.545 -1.9652  1.1559  2.9423
  155OSM   H15T17307   3.367   1.457   3.475  0.2644  1.1801 -1.0891
  155OSM   C16S17308   3.544   1.534   3.569 -0.3127  0.1528 -0.6778
  155OSM   H16S17309   3.489   1.554   3.664  1.1485 -1.6054  0.6042
  155OSM   H16T17310   3.554   1.631   3.516  1.1640 -0.0988 -0.9041
  155OSM   C17S17311   3.689   1.493   3.609 -0.0196 -0.2582 -0.5212
  155OSM   H17S17312   3.751   1.480   3.518 -2.0019 -0.9556 -1.8192
  155OSM   H17T17313   3.682   1.393   3.657 -0.3361 -0.0557 -0.1377
  155OSM   C18S17314   3.753   1.589   3.704  0.1071 -0.3648  0.5779
  155OSM   H18S17315   3.847   1.551   3.750  0.6548  0.8577  0.4931
  155OSM   H18T17316   3.680   1.602   3.787 -0.2933 -1.2146  0.3766
  155OSM   H18U17317   3.778   1.684   3.653  0.7992 -0.5416  0.5774
  155OSM    C1F17318   3.420   0.744   2.525  0.0959 -0.8905 -0.5935
  155OSM     OF17319   3.523   0.690   2.483 -0.8927  0.6251  0.5040
  155OSM    C2F17320   3.341   0.707   2.645  0.1016 -0.0465 -0.4567
  155OSM    H2F17321   3.270   0.624   2.621  1.0860 -1.0545  0.0325
  155OSM    H2G17322   3.269   0.790   2.666  0.8617  0.8856 -1.4502
  155OSM    C3F17323   3.423   0.687   2.777  0.0786 -0.5177  0.1620
  155OSM    H3F17324   3.492   0.773   2.791  0.8641 -1.4643  2.6173
  155OSM    H3G17325   3.484   0.597   2.759  3.5244  1.5221  0.7570
  155OSM    C4F17326   3.355   0.651   2.912  0.3911 -0.8159  0.3386
  155OSM    H4F17327   3.283   0.568   2.894 -1.0721  0.7639 -1.4860
  155OSM    H4G17328   3.285   0.733   2.942  0.3004 -1.1861  1.1772
  155OSM    C5F17329   3.457   0.623   3.030  0.3085  0.0153 -1.0913
  155OSM    H5F17330   3.546   0.689   3.016  1.2880 -0.8658  0.6044
  155OSM    H5G17331   3.495   0.522   3.003 -0.7721 -0.2410 -1.6980
  155OSM    C6F17332   3.413   0.648   3.172  0.2030 -0.3020  0.1149
  155OSM    H6F17333   3.329   0.580   3.198 -0.8727  0.2677 -1.7752
  155OSM    H6G17334   3.359   0.745   3.171 -0.0215 -0.4295 -0.4242
  155OSM    C7F17335   3.520   0.667   3.280 -0.3347 -0.3617 -0.1838
  155OSM    H7F17336   3.570   0.764   3.257 -1.9498  0.6721  0.4713
  155OSM    H7G17337   3.584   0.577   3.270 -1.4312 -1.4075  1.7707
  155OSM    C8F17338   3.457   0.664   3.423 -0.7554 -0.5641  0.5718
  155OSM    H8F17339   3.425   0.559   3.437  2.6617 -2.6106 -4.2131
  155OSM    H8G17340   3.373   0.735   3.436  1.2556  2.2336 -0.5059
  155OSM    C9F17341   3.563   0.694   3.522  0.7772  0.1646 -0.8502
  155OSM    H9F17342   3.649   0.748   3.480  1.7642 -1.0747 -0.4863
  155OSM   C10F17343   3.561   0.663   3.657 -0.7447  0.6508  0.2536
  155OSM   H10F17344   3.644   0.685   3.726 -2.3892  0.9975  2.1746
  155OSM   C11F17345   3.457   0.585   3.734  0.3816  0.5321  0.3738
  155OSM   H11F17346   3.516   0.505   3.783  2.0174 -0.0310 -2.3565
  155OSM   H11G17347   3.387   0.534   3.664  0.1945  1.3802 -0.0756
  155OSM   C12F17348   3.363   0.653   3.838 -0.6513  0.5834  0.5193
  155OSM   H12F17349   3.294   0.576   3.879  1.6078 -1.5022  0.6357
  155OSM   H12G17350   3.313   0.748   3.808 -2.4549 -0.3621  0.4118
  155OSM   C13F17351   3.445   0.690   3.965  0.3063  0.1977  0.6301
  155OSM   H13F17352   3.522   0.764   3.937  1.3924 -1.3613 -0.7409
  155OSM   H13G17353   3.494   0.596   4.000  1.1668  1.0783  1.8590
  155OSM   C14F17354   3.371   0.736   4.088 -0.3142 -0.4222 -0.9169
  155OSM   H14F17355   3.299   0.656   4.113  0.9067 -0.8272  1.6596
  155OSM   H14G17356   3.322   0.833   4.064  0.8268  0.8189  1.3725
  155OSM   C15F17357   3.471   0.763   4.209 -0.3665 -0.6439  0.2241
  155OSM   H15F17358   3.537   0.676   4.228 -0.9000 -0.8210  1.3489
  155OSM   H15G17359   3.393   0.766   4.289 -0.3374  0.1173  0.2333
  155OSM   C16F17360   3.536   0.898   4.194 -0.7239 -0.0864  0.8083
  155OSM   H16F17361   3.586   0.893   4.095 -0.8848  1.0226  0.6538
  155OSM   H16G17362   3.625   0.904   4.259 -0.2285  0.5585  0.1011
  155OSM   C17F17363   3.459   1.026   4.209 -0.4477  0.3342  0.4810
  155OSM   H17F17364   3.392   1.038   4.120  0.0753 -1.8068 -0.2646
  155OSM   H17G17365   3.531   1.109   4.195 -0.9327  0.6723 -0.0632
  155OSM   C18F17366   3.372   1.038   4.330 -0.0432 -0.2662 -0.5996
  155OSM   H18F17367   3.343   1.141   4.361 -1.0498 -0.4314 -0.9724
  155OSM   H18G17368   3.430   1.002   4.418 -1.1050  1.1380  0.7222
  155OSM   H18H17369   3.288   0.968   4.313  0.1842 -0.4820 -0.8511
  156OSM      N17370   5.331   1.580   1.844  0.5487 -0.9368  0.2670
  156OSM    C1517371   5.231   1.545   1.742  0.4764 -0.4073  0.3323
  156OSM   H15A17372   5.164   1.468   1.777 -2.0978  1.6433  0.2111
  156OSM   H15B17373   5.282   1.511   1.653  0.3486  2.8250 -1.1261
  156OSM   H15C17374   5.160   1.625   1.728  1.2071 -0.1079 -1.9620
  156OSM    C1417375   5.249   1.572   1.970 -0.2338 -0.7193 -0.3344
  156OSM   H14A17376   5.312   1.592   2.055 -0.5406 -1.4428  0.0729
  156OSM   H14B17377   5.195   1.479   1.978 -0.7837 -0.4745 -1.0647
  156OSM   H14C17378   5.177   1.652   1.975 -1.2395 -1.6809  1.4231
  156OSM    C1317379   5.429   1.472   1.850 -0.1276  0.3355 -0.1720
  156OSM   H13A17380   5.387   1.378   1.883  0.1776 -0.0792 -0.9164
  156OSM   H13B17381   5.504   1.494   1.924  0.5593 -1.8562 -0.1297
  156OSM   H13C17382   5.475   1.450   1.754  1.3852  0.2287  0.5385
  156OSM    C1217383   5.394   1.715   1.834 -0.1571  0.0341  0.6840
  156OSM   H12A17384   5.478   1.704   1.767  0.1346 -1.2128  1.2296
  156OSM   H12B17385   5.449   1.745   1.922 -0.0877  1.7439  0.0865
  156OSM    C1117386   5.305   1.833   1.816  0.3796  1.1016 -0.1474
  156OSM   H11A17387   5.242   1.828   1.725  0.0026  3.2507 -0.0701
  156OSM   H11B17388   5.364   1.924   1.791  0.2329  1.7255  1.6162
  156OSM      P17389   5.128   1.982   1.923 -0.2959  0.5467  0.1616
  156OSM    O1317390   5.206   2.098   1.975 -0.8202  0.4806  0.5050
  156OSM    O1417391   5.069   1.988   1.786 -0.1657 -0.7577 -0.0380
  156OSM    O1117392   5.017   1.943   2.030  0.1559  0.2739  0.1133
  156OSM    O1217393   5.223   1.854   1.928 -0.4113  0.1243 -0.2287
  156OSM    C1S17394   5.057   1.921   2.164  0.0654 -0.4513  0.2052
  156OSM    H1S17395   5.050   2.021   2.213  0.3730 -1.1290  1.6671
  156OSM    H1T17396   5.162   1.886   2.176 -0.2458 -0.6004  3.1117
  156OSM     NF17397   4.993   1.808   2.376 -0.2257  0.7130  0.4388
  156OSM    HNF17398   5.024   1.714   2.391 -2.0885  0.0013  0.1168
  156OSM    C2S17399   4.956   1.833   2.238 -0.3836  0.2305 -0.1788
  156OSM    H2S17400   4.861   1.892   2.232  0.6777  2.0844  0.3298
  156OSM    C3S17401   4.933   1.702   2.161 -0.4547  0.3927  0.3555
  156OSM    H3S17402   5.032   1.651   2.154 -0.2213  0.9946 -1.0219
  156OSM     O317403   4.897   1.716   2.025  0.3200 -0.7905 -0.0592
  156OSM    HO317404   4.930   1.804   2.005 -0.2455 -0.5942 -0.1515
  156OSM    C4S17405   4.836   1.615   2.230  0.4729 -0.4062 -0.1452
  156OSM    H4S17406   4.739   1.658   2.260  0.3229  0.3421 -1.6041
  156OSM    C5S17407   4.856   1.482   2.260  0.5428  1.2781 -0.0283
  156OSM    H5S17408   4.948   1.425   2.246 -2.5199 -4.5109  0.4603
  156OSM    C6S17409   4.770   1.392   2.340  0.4097  0.2751  0.0803
  156OSM    H6S17410   4.766   1.297   2.284 -1.7208 -0.3893  1.2421
  156OSM    H6T17411   4.668   1.436   2.341  0.7545  1.4651 -3.2386
  156OSM    C7S17412   4.811   1.365   2.482 -0.2425  0.2877 -0.1513
  156OSM    H7S17413   4.904   1.305   2.487  0.0340  0.7916  1.7554
  156OSM    H7T17414   4.722   1.316   2.528 -0.0293 -0.5505 -0.6185
  156OSM    C8S17415   4.842   1.488   2.573 -0.1509 -0.1202  0.9498
  156OSM    H8S17416   4.764   1.566   2.566 -0.9322 -1.0568 -1.7231
  156OSM    H8T17417   4.934   1.541   2.541 -0.4049 -0.0881  0.2560
  156OSM    C9S17418   4.854   1.432   2.724 -1.0976  0.7946  0.1268
  156OSM    H9S17419   4.921   1.343   2.722  0.0989  1.6329  1.1807
  156OSM    H9T17420   4.755   1.417   2.773 -1.4264  0.8463 -0.5064
  156OSM   C10S17421   4.944   1.526   2.806 -0.3957 -0.8346  0.1365
  156OSM   H10S17422   4.905   1.630   2.811 -0.7320 -0.9811  0.6114
  156OSM   H10T17423   5.049   1.535   2.771 -0.5699 -0.0616 -0.2051
  156OSM   C11S17424   4.949   1.479   2.951 -0.3741 -0.4977  0.5571
  156OSM   H11S17425   5.016   1.391   2.949 -0.0882 -0.2888  0.8532
  156OSM   H11T17426   4.843   1.447   2.964 -1.6435  2.0493 -2.1829
  156OSM   C12S17427   4.995   1.573   3.062  0.0746 -0.4744 -0.1096
  156OSM   H12S17428   4.934   1.666   3.066  0.0926 -0.4787  0.3168
  156OSM   H12T17429   5.096   1.607   3.031  0.0987 -0.8886 -0.4840
  156OSM   C13S17430   4.992   1.514   3.199  0.0981 -1.2187 -0.3345
  156OSM   H13S17431   5.032   1.411   3.183 -0.6350 -1.2495 -2.2265
  156OSM   H13T17432   4.891   1.509   3.243  0.6722 -0.6343  1.1175
  156OSM   C14S17433   5.079   1.574   3.310 -0.5012 -0.0718 -0.3220
  156OSM   H14S17434   5.024   1.662   3.351 -0.5909  0.0035 -0.6023
  156OSM   H14T17435   5.177   1.613   3.276 -0.0119 -1.0553 -0.0762
  156OSM   C15S17436   5.107   1.474   3.426 -0.0716  0.1691 -0.5597
  156OSM   H15S17437   5.157   1.391   3.373  0.9366  0.4975 -0.1510
  156OSM   H15T17438   5.014   1.426   3.464  1.4367 -1.2198  1.6315
  156OSM   C16S17439   5.188   1.533   3.542  0.0486  0.0804 -0.5586
  156OSM   H16S17440   5.141   1.626   3.581  0.0191 -0.9705  2.0847
  156OSM   H16T17441   5.293   1.549   3.510 -0.1882  1.5666 -0.6541
  156OSM   C17S17442   5.190   1.444   3.661 -0.0907  0.6289 -0.1792
  156OSM   H17S17443   5.088   1.426   3.700  0.0363  2.2001  0.9888
  156OSM   H17T17444   5.231   1.505   3.744 -0.5063  2.9865 -1.6043
  156OSM   C18S17445   5.272   1.314   3.649  0.7079 -0.3651  0.4252
  156OSM   H18S17446   5.381   1.333   3.641  1.0020 -1.7199  0.9403
  156OSM   H18T17447   5.239   1.267   3.553 -0.4362  1.5653 -0.1793
  156OSM   H18U17448   5.256   1.257   3.743  0.8341  1.1654  1.4139
  156OSM    C1F17449   4.998   1.895   2.473 -0.2037  0.0409 -0.3816
  156OSM     OF17450   4.962   2.014   2.455  0.1493  0.0895  0.3981
  156OSM    C2F17451   5.069   1.869   2.599 -0.2534 -0.0251 -1.0283
  156OSM    H2F17452   5.173   1.906   2.586 -0.2609  0.1868 -0.5192
  156OSM    H2G17453   5.060   1.765   2.637  1.8702 -0.0268 -0.3891
  156OSM    C3F17454   4.995   1.952   2.709 -0.3423  0.0159  0.0395
  156OSM    H3F17455   4.888   1.923   2.716  0.0174 -1.2576  0.5331
  156OSM    H3G17456   5.015   2.060   2.693  0.8090 -0.2092 -0.1530
  156OSM    C4F17457   5.054   1.913   2.845 -0.4992 -0.5436 -0.1343
  156OSM    H4F17458   5.163   1.895   2.836 -0.0161  2.2468 -0.7685
  156OSM    H4G17459   5.005   1.826   2.894 -1.3110 -0.8685 -1.4838
  156OSM    C5F17460   5.037   2.023   2.956 -0.3981  0.3719 -0.0167
  156OSM    H5F17461   4.939   2.072   2.941  0.3882  2.4105  1.1221
  156OSM    H5G17462   5.115   2.099   2.933  1.9728 -1.4439  1.4615
  156OSM    C6F17463   5.059   1.961   3.098 -0.2108  0.6309  0.1375
  156OSM    H6F17464   5.156   1.907   3.098 -2.0661 -3.0163  0.9325
  156OSM    H6G17465   4.989   1.879   3.124  0.5260 -0.9040 -2.4135
  156OSM    C7F17466   5.057   2.065   3.211  0.6187 -0.2431  0.0312
  156OSM    H7F17467   4.962   2.123   3.219  1.7863  1.7347  0.3387
  156OSM    H7G17468   5.134   2.143   3.193  2.1673 -2.0565 -1.6338
  156OSM    C8F17469   5.094   2.004   3.351  0.2178 -0.1843 -0.3607
  156OSM    H8F17470   5.196   1.962   3.358  0.0033 -0.4733  1.5078
  156OSM    H8G17471   5.033   1.912   3.369  0.7709 -0.3812  0.5659
  156OSM    C9F17472   5.071   2.106   3.462  1.1069  0.5673 -0.2062
  156OSM    H9F17473   5.063   2.208   3.423  0.9695  0.6817  0.1115
  156OSM   C10F17474   5.057   2.081   3.594  0.0778  1.0736 -0.7270
  156OSM   H10F17475   5.034   2.167   3.659 -0.0623  0.8564 -0.4833
  156OSM   C11F17476   5.072   1.943   3.653  1.0993 -0.0724  0.7525
  156OSM   H11F17477   5.153   1.886   3.601 -0.6376 -0.6025 -1.5367
  156OSM   H11G17478   4.975   1.897   3.626 -0.2769  3.2654 -0.5085
  156OSM   C12F17479   5.080   1.946   3.812  0.5499 -0.3022  0.6015
  156OSM   H12F17480   4.994   2.007   3.848  0.7929  0.0509  0.5923
  156OSM   H12G17481   5.177   1.996   3.835  1.0850 -0.4477 -1.1954
  156OSM   C13F17482   5.064   1.804   3.852  0.2423  0.0838  0.2358
  156OSM   H13F17483   5.142   1.739   3.808  2.7774  2.1082  1.4711
  156OSM   H13G17484   4.968   1.767   3.811 -0.2561  3.0782 -1.5615
  156OSM   C14F17485   5.072   1.790   3.998  0.4336 -0.0270 -0.0612
  156OSM   H14F17486   4.989   1.855   4.034  1.7124  0.6565  1.8742
  156OSM   H14G17487   5.162   1.843   4.037 -0.2787  0.4062  1.0736
  156OSM   C15F17488   5.072   1.651   4.051 -0.2729 -0.6151 -0.0306
  156OSM   H15F17489   5.145   1.581   4.004 -1.1455 -0.8335 -1.0781
  156OSM   H15G17490   4.970   1.611   4.032 -1.2475  2.4399 -1.8570
  156OSM   C16F17491   5.099   1.636   4.206 -0.2233 -0.5319 -0.3716
  156OSM   H16F17492   5.209   1.654   4.210 -0.2717  0.7343 -2.8825
  156OSM   H16G17493   5.095   1.527   4.226  1.1740 -0.3287  1.2011
  156OSM   C17F17494   5.012   1.734   4.294 -0.0109  0.2295  0.1468
  156OSM   H17F17495   4.908   1.718   4.257  1.4832  0.3027 -4.8339
  156OSM   H17G17496   5.056   1.834   4.276  0.7355 -0.1429 -0.1194
  156OSM   C18F17497   5.028   1.706   4.439 -0.6513 -0.3345 -0.4090
  156OSM   H18F17498   4.970   1.620   4.478 -0.7753 -0.1139 -0.0978
  156OSM   H18G17499   4.994   1.781   4.514 -1.1530  0.1104 -1.0734
  156OSM   H18H17500   5.134   1.688   4.467 -0.2336  2.3172  0.0478
  157OSM      N17501   6.487   1.715   2.050  0.4038  0.3729 -0.3855
  157OSM    C1517502   6.508   1.844   2.131  0.1408  0.3200  0.5035
  157OSM   H15A17503   6.598   1.890   2.095 -1.9487  3.0044 -1.6902
  157OSM   H15B17504   6.504   1.823   2.237  0.4019  1.2456  0.7049
  157OSM   H15C17505   6.431   1.915   2.106 -1.6402 -1.4965  0.5392
  157OSM    C1417506   6.522   1.752   1.908 -0.2852 -0.4180  0.4368
  157OSM   H14A17507   6.538   1.658   1.856  1.3966 -0.7978  1.5626
  157OSM   H14B17508   6.613   1.810   1.901  0.1573 -1.1879 -0.3701
  157OSM   H14C17509   6.444   1.815   1.867  0.8563 -0.2861 -1.6831
  157OSM    C1317510   6.584   1.619   2.106 -0.1127 -0.1746 -0.0011
  157OSM   H13A17511   6.575   1.530   2.045 -0.3608 -1.6901  2.1356
  157OSM   H13B17512   6.556   1.588   2.206  2.2945 -0.2511  0.7209
  157OSM   H13C17513   6.687   1.647   2.090 -0.1178  0.3406  0.8080
  157OSM    C1217514   6.343   1.670   2.055  0.5530  0.3842 -0.2306
  157OSM   H12A17515   6.322   1.592   1.983  2.1325 -0.6198  0.3536
  157OSM   H12B17516   6.291   1.764   2.053  2.6829  1.6536  0.5646
  157OSM    C1117517   6.311   1.610   2.199  0.1191 -0.1592  0.6162
  157OSM   H11A17518   6.202   1.594   2.212  0.0315 -1.0225 -1.0134
  157OSM   H11B17519   6.340   1.685   2.275  0.6596  0.7679 -0.4766
  157OSM      P17520   6.339   1.344   2.161 -0.1061 -0.4839  0.0882
  157OSM    O1317521   6.235   1.362   2.060  0.2150  0.0178  0.2466
  157OSM    O1417522   6.465   1.274   2.117 -0.7050  0.6167 -0.1411
  157OSM    O1117523   6.281   1.265   2.291  0.2355  0.3663  0.4394
  157OSM    O1217524   6.378   1.482   2.217  0.1710 -0.1472 -0.6305
  157OSM    C1S17525   6.250   1.328   2.413  0.0830 -0.0579 -0.0780
  157OSM    H1S17526   6.174   1.409   2.403  0.2465  0.0382 -0.5412
  157OSM    H1T17527   6.341   1.375   2.454  1.2950 -2.2076 -0.1371
  157OSM     NF17528   6.133   1.298   2.629 -0.4018  0.2442  0.7018
  157OSM    HNF17529   6.193   1.327   2.703  1.6260  3.9058 -1.9861
  157OSM    C2S17530   6.202   1.229   2.520  1.4688  0.0412  0.0696
  157OSM    H2S17531   6.128   1.167   2.465 -0.6655  0.4052  2.3198
  157OSM    C3S17532   6.314   1.132   2.565 -0.1477 -0.5123 -0.3316
  157OSM    H3S17533   6.378   1.190   2.635 -1.6837  1.1475 -0.2401
  157OSM     O317534   6.397   1.087   2.460 -0.1169 -0.0226  0.3957
  157OSM    HO317535   6.372   1.145   2.387  0.9982 -0.4475 -0.3608
  157OSM    C4S17536   6.261   1.010   2.631 -0.6129  0.5120  0.0893
  157OSM    H4S17537   6.230   0.937   2.555 -0.8251  0.5906  0.0983
  157OSM    C5S17538   6.270   0.972   2.761 -0.4052  0.2862 -0.3512
  157OSM    H5S17539   6.324   1.038   2.830 -1.1379  2.0247 -1.3629
  157OSM    C6S17540   6.229   0.846   2.825  0.9427  0.5826  0.6220
  157OSM    H6S17541   6.165   0.880   2.910 -0.1504  2.1971 -0.7838
  157OSM    H6T17542   6.320   0.798   2.867  1.2589 -2.2625 -2.8676
  157OSM    C7S17543   6.153   0.740   2.754 -0.0831 -0.1574  0.4491
  157OSM    H7S17544   6.220   0.678   2.691  0.6004  1.8509 -0.9073
  157OSM    H7T17545   6.085   0.795   2.686  1.8019  0.9331 -0.6386
  157OSM    C8S17546   6.097   0.627   2.838 -0.5352 -0.1839 -0.5171
  157OSM    H8S17547   6.168   0.592   2.915 -1.9394 -1.0038  0.4526
  157OSM    H8T17548   6.083   0.537   2.773 -0.6250 -0.1227 -0.5832
  157OSM    C9S17549   5.966   0.658   2.905 -0.0711 -0.0998  0.0484
  157OSM    H9S17550   5.886   0.662   2.827 -0.8165 -0.8886  0.7516
  157OSM    H9T17551   5.971   0.761   2.946  3.1716 -0.4715  0.8368
  157OSM   C10S17552   5.916   0.540   2.992 -0.0872  0.6212 -0.7151
  157OSM   H10S17553   5.910   0.441   2.941 -2.4877  0.0716  0.4856
  157OSM   H10T17554   5.814   0.567   3.026  0.4404 -0.6979  2.2542
  157OSM   C11S17555   6.003   0.522   3.108 -0.2666 -0.0312 -0.5082
  157OSM   H11S17556   6.025   0.619   3.157 -1.8125 -1.6352  3.8329
  157OSM   H11T17557   6.092   0.469   3.068 -0.6520 -2.0080  1.0982
  157OSM   C12S17558   5.943   0.439   3.218 -0.5718  0.0100 -0.5000
  157OSM   H12S17559   5.878   0.362   3.171  0.6202 -0.7981 -0.8808
  157OSM   H12T17560   5.883   0.496   3.291 -1.0613  0.5406 -1.3060
  157OSM   C13S17561   6.050   0.364   3.292 -0.2575 -0.1890 -1.1699
  157OSM   H13S17562   6.121   0.435   3.340  0.6113 -2.4935  1.1371
  157OSM   H13T17563   6.099   0.297   3.218  0.9054  1.2075 -1.7218
  157OSM   C14S17564   5.992   0.280   3.405 -0.0413 -0.0464 -0.3343
  157OSM   H14S17565   6.047   0.185   3.419  2.2185  1.1858 -0.2875
  157OSM   H14T17566   5.887   0.251   3.384  0.1054  0.7446 -2.5106
  157OSM   C15S17567   5.989   0.342   3.550 -0.6054 -0.6866  0.5618
  157OSM   H15S17568   5.899   0.406   3.561 -0.6375 -0.6353  0.0164
  157OSM   H15T17569   6.075   0.412   3.564 -0.8665  0.8228 -3.8817
  157OSM   C16S17570   5.991   0.229   3.652 -0.2608 -0.3351  0.2328
  157OSM   H16S17571   6.093   0.186   3.640  0.8115  1.7268  1.3691
  157OSM   H16T17572   5.907   0.161   3.629  0.1867 -0.9720  0.4396
  157OSM   C17S17573   5.970   0.258   3.798 -0.2211 -0.3963  0.3998
  157OSM   H17S17574   5.991   0.162   3.851  0.8825 -0.9129 -0.9333
  157OSM   H17T17575   5.874   0.303   3.832  0.2371  0.9632 -0.0672
  157OSM   C18S17576   6.082   0.343   3.851 -0.6572  0.2414 -0.0986
  157OSM   H18S17577   6.077   0.351   3.962  1.9319  0.3095  0.0825
  157OSM   H18T17578   6.070   0.443   3.803  2.7800  1.0112  0.3859
  157OSM   H18U17579   6.182   0.309   3.816 -1.1601 -0.4220 -0.9243
  157OSM    C1F17580   6.017   1.350   2.615  0.4626 -0.2954  1.3034
  157OSM     OF17581   5.969   1.359   2.500 -0.5126 -0.1885  0.0252
  157OSM    C2F17582   5.954   1.387   2.736  0.7558  0.5368 -0.4425
  157OSM    H2F17583   6.002   1.478   2.779  0.9133 -0.4816  1.7085
  157OSM    H2G17584   5.972   1.314   2.818  1.9458 -2.4619 -3.1765
  157OSM    C3F17585   5.797   1.414   2.716 -0.6286  0.1217  0.2563
  157OSM    H3F17586   5.748   1.348   2.640  0.4759  0.2875 -0.6284
  157OSM    H3G17587   5.810   1.507   2.656 -1.6505  1.6725  2.3195
  157OSM    C4F17588   5.723   1.447   2.848 -0.3774  0.0637 -0.4368
  157OSM    H4F17589   5.740   1.360   2.915  0.3673  0.7013  0.2220
  157OSM    H4G17590   5.614   1.452   2.828 -0.6994 -1.1040  0.8988
  157OSM    C5F17591   5.783   1.567   2.921 -0.1121 -1.0967 -0.8279
  157OSM    H5F17592   5.772   1.660   2.861  0.3275  0.5801  1.5237
  157OSM    H5G17593   5.893   1.562   2.931 -0.1989 -1.4646  0.1279
  157OSM    C6F17594   5.730   1.613   3.066 -0.5978  0.3383  0.4225
  157OSM    H6F17595   5.619   1.615   3.072 -0.7161 -0.6559 -0.9006
  157OSM    H6G17596   5.774   1.715   3.072 -1.2346  0.5482  1.8292
  157OSM    C7F17597   5.780   1.525   3.186  0.1105  0.1022  0.2057
  157OSM    H7F17598   5.887   1.507   3.163  0.3364 -0.1249  1.3858
  157OSM    H7G17599   5.728   1.428   3.173 -0.2547  0.5543 -2.0926
  157OSM    C8F17600   5.763   1.596   3.320 -0.1550 -0.1626  0.2964
  157OSM    H8F17601   5.776   1.521   3.401  0.2484 -0.4568 -0.0356
  157OSM    H8G17602   5.653   1.613   3.322 -0.7040 -3.2630  0.9158
  157OSM    C9F17603   5.853   1.716   3.362 -0.6043 -1.0146 -0.2029
  157OSM    H9F17604   5.950   1.698   3.411  1.4938  3.9164 -1.8535
  157OSM   C10F17605   5.825   1.850   3.354  0.7279  0.1986 -1.0460
  157OSM   H10F17606   5.895   1.925   3.395 -1.7306  1.9247  0.2438
  157OSM   C11F17607   5.709   1.914   3.287  0.4882 -0.0719  0.4854
  157OSM   H11F17608   5.655   1.842   3.222  1.0082 -1.9836  2.0888
  157OSM   H11G17609   5.739   2.001   3.224  1.2929  0.7701  1.9686
  157OSM   C12F17610   5.611   1.972   3.392  0.0716 -0.4117  1.6272
  157OSM   H12F17611   5.518   2.004   3.341  1.2461  0.3775 -0.1041
  157OSM   H12G17612   5.649   2.064   3.441 -1.4477  1.3773 -0.3472
  157OSM   C13F17613   5.573   1.869   3.493  0.3606 -0.3904 -0.0690
  157OSM   H13F17614   5.659   1.857   3.562  1.5932 -1.3717 -1.6932
  157OSM   H13G17615   5.545   1.770   3.452 -0.1818 -1.1217  1.9434
  157OSM   C14F17616   5.449   1.917   3.568  0.2793  0.6644  1.1735
  157OSM   H14F17617   5.423   1.823   3.621  0.4616  0.5331  1.0309
  157OSM   H14G17618   5.370   1.927   3.491  0.2413 -1.0364  0.9587
  157OSM   C15F17619   5.461   2.040   3.658  0.1952  0.5409  0.5647
  157OSM   H15F17620   5.360   2.079   3.684  0.9968  1.4788  2.4648
  157OSM   H15G17621   5.510   2.121   3.599  0.9717 -0.9827 -0.9690
  157OSM   C16F17622   5.544   2.007   3.788  0.8094 -0.6681 -0.1733
  157OSM   H16F17623   5.649   1.985   3.760  1.0795 -1.7879  1.6035
  157OSM   H16G17624   5.489   1.917   3.822 -0.4964 -0.6585 -2.0613
  157OSM   C17F17625   5.540   2.132   3.877  0.2060  0.0831  0.5647
  157OSM   H17F17626   5.437   2.172   3.878  0.4768  1.0985 -2.4162
  157OSM   H17G17627   5.619   2.201   3.840  0.0652 -0.8968 -1.7115
  157OSM   C18F17628   5.572   2.081   4.013  0.2735  0.5050  0.3076
  157OSM   H18F17629   5.565   2.159   4.092 -2.6669  1.4705 -0.7504
  157OSM   H18G17630   5.668   2.025   4.010  0.1000  0.0920 -4.3867
  157OSM   H18H17631   5.493   2.005   4.033  1.4153 -0.6348  0.5790
  158OSM      N17632   4.853   1.033   1.992 -0.5355 -0.1306  0.0660
  158OSM    C1517633   4.890   1.170   2.016 -0.4490 -0.2498 -0.3583
  158OSM   H15A17634   4.998   1.179   2.017 -0.6026  2.2581 -0.0533
  158OSM   H15B17635   4.858   1.203   2.114 -1.9313  1.6410 -1.4017
  158OSM   H15C17636   4.853   1.245   1.947  0.7077  0.6001 -0.0947
  158OSM    C1417637   4.709   1.018   1.993  0.8889 -0.4560  0.1464
  158OSM   H14A17638   4.683   0.933   1.932  1.6979 -0.2102 -0.5595
  158OSM   H14B17639   4.650   1.095   1.947  0.3652 -1.2533 -0.5350
  158OSM   H14C17640   4.673   0.999   2.094 -2.7923  1.2384 -0.6786
  158OSM    C1317641   4.898   0.994   1.851  0.0921 -0.1631 -0.7630
  158OSM   H13A17642   4.858   0.900   1.818  0.2449 -0.0298 -1.3418
  158OSM   H13B17643   5.004   1.001   1.832  0.0045 -0.7137 -1.5140
  158OSM   H13C17644   4.844   1.060   1.784 -2.0818 -1.5789 -0.5211
  158OSM    C1217645   4.910   0.934   2.106  0.6256 -0.9441 -0.1214
  158OSM   H12A17646   5.015   0.956   2.114  0.1603  1.3843  0.3914
  158OSM   H12B17647   4.892   0.834   2.070  0.9743 -1.6685  1.6386
  158OSM    C1117648   4.843   0.936   2.253  0.0455  1.5338  0.1125
  158OSM   H11A17649   4.845   1.043   2.283 -1.3859  1.5421  0.2332
  158OSM   H11B17650   4.901   0.865   2.315  0.2237  0.6373 -1.0478
  158OSM      P17651   4.662   0.750   2.220  0.3415  0.0961 -0.2319
  158OSM    O1317652   4.543   0.753   2.131 -0.4594 -0.6314 -0.1520
  158OSM    O1417653   4.780   0.664   2.182  0.6350  0.5596 -0.0557
  158OSM    O1117654   4.620   0.709   2.362  0.0214 -0.5742  0.0820
  158OSM    O1217655   4.705   0.895   2.247 -0.8066  0.8053  0.8415
  158OSM    C1S17656   4.536   0.595   2.378  0.5047 -0.5768  0.4694
  158OSM    H1S17657   4.582   0.503   2.335 -1.3305 -1.8563  1.1022
  158OSM    H1T17658   4.435   0.618   2.338  0.6537  0.8836  0.8751
  158OSM     NF17659   4.429   0.442   2.546  0.1147  0.4340 -0.1612
  158OSM    HNF17660   4.337   0.444   2.584  0.5760 -0.9159  1.1261
  158OSM    C2S17661   4.511   0.565   2.528  0.2238 -0.4115 -0.0045
  158OSM    H2S17662   4.613   0.552   2.571  1.2077  0.9158 -1.8136
  158OSM    C3S17663   4.445   0.693   2.591  0.3948 -0.2809  0.3791
  158OSM    H3S17664   4.355   0.712   2.530  0.0533 -1.6612  0.4359
  158OSM     O317665   4.528   0.810   2.590 -0.2432  0.2271  0.4954
  158OSM    HO317666   4.569   0.793   2.505  0.3018 -1.9292  1.1357
  158OSM    C4S17667   4.384   0.665   2.726  0.2368 -0.4281  0.0119
  158OSM    H4S17668   4.284   0.620   2.722  0.7295 -1.4973 -0.9628
  158OSM    C5S17669   4.442   0.691   2.846 -0.6534 -0.2672  0.2531
  158OSM    H5S17670   4.526   0.761   2.846 -2.5660  2.1834  0.0197
  158OSM    C6S17671   4.375   0.670   2.975 -0.0742  0.1630  0.2488
  158OSM    H6S17672   4.427   0.585   3.024 -1.7083 -0.5388  0.8521
  158OSM    H6T17673   4.269   0.637   2.963 -0.4549  1.5567 -0.4837
  158OSM    C7S17674   4.367   0.795   3.066  0.1922 -0.1878  0.0133
  158OSM    H7S17675   4.297   0.866   3.017 -0.5667 -1.0220 -0.1320
  158OSM    H7T17676   4.470   0.836   3.071  0.2839 -0.3944 -0.1653
  158OSM    C8S17677   4.324   0.757   3.209  0.5505 -0.1652 -0.5337
  158OSM    H8S17678   4.384   0.665   3.227  0.3121 -0.2973 -0.4057
  158OSM    H8T17679   4.218   0.724   3.207  0.7211 -0.7520 -3.7731
  158OSM    C9S17680   4.345   0.851   3.319 -0.3569 -0.8310 -0.3613
  158OSM    H9S17681   4.270   0.932   3.306  0.2706 -0.6689 -3.7846
  158OSM    H9T17682   4.444   0.900   3.308 -1.8859  3.7684  2.9892
  158OSM   C10S17683   4.333   0.787   3.453  0.4188 -0.0373  0.2735
  158OSM   H10S17684   4.401   0.699   3.460  1.0833  0.4430 -0.0273
  158OSM   H10T17685   4.240   0.730   3.472  0.3599  0.3943  1.3012
  158OSM   C11S17686   4.364   0.893   3.561  0.0841  0.2043  0.1550
  158OSM   H11S17687   4.280   0.966   3.561 -2.6749 -2.7462 -0.0875
  158OSM   H11T17688   4.463   0.938   3.536  0.0825  1.2005  1.8495
  158OSM   C12S17689   4.365   0.824   3.702 -0.0174 -0.7651  0.1692
  158OSM   H12S17690   4.462   0.770   3.709 -0.5627 -2.0457 -1.4391
  158OSM   H12T17691   4.285   0.749   3.718 -0.8850  0.2821  0.8724
  158OSM   C13S17692   4.345   0.930   3.808 -0.0352 -0.8025 -0.2815
  158OSM   H13S17693   4.250   0.985   3.788  0.3783  0.1127  0.2366
  158OSM   H13T17694   4.427   1.004   3.807 -0.8478  0.1125 -0.8781
  158OSM   C14S17695   4.323   0.876   3.949  0.5309  0.9652 -0.2717
  158OSM   H14S17696   4.422   0.835   3.976 -0.3174 -2.6311 -1.9786
  158OSM   H14T17697   4.255   0.788   3.953  1.4519  0.2688  3.0550
  158OSM   C15S17698   4.266   0.978   4.054  0.2548 -1.0619  0.6453
  158OSM   H15S17699   4.282   0.936   4.155 -2.9611 -0.8330  1.3438
  158OSM   H15T17700   4.157   0.989   4.036  0.2883 -0.5375  0.7365
  158OSM   C16S17701   4.338   1.109   4.051 -0.1724  0.1482 -0.5034
  158OSM   H16S17702   4.301   1.172   3.967 -0.4975  0.0153 -0.4628
  158OSM   H16T17703   4.447   1.105   4.031 -0.0300  0.8251  0.1084
  158OSM   C17S17704   4.306   1.193   4.170 -0.7001 -0.0360  0.3215
  158OSM   H17S17705   4.372   1.280   4.149  1.2347 -1.9451 -2.2402
  158OSM   H17T17706   4.333   1.137   4.262  0.6108  0.5331  0.3024
  158OSM   C18S17707   4.159   1.240   4.192 -0.6678 -0.3342 -0.0680
  158OSM   H18S17708   4.125   1.308   4.111  0.0574 -0.7857 -0.7657
  158OSM   H18T17709   4.152   1.301   4.284  1.6939  0.3886 -0.2978
  158OSM   H18U17710   4.097   1.148   4.201 -0.6725 -0.2177  1.1904
  158OSM    C1F17711   4.480   0.328   2.500  0.4712  0.4795  0.4870
  158OSM     OF17712   4.596   0.313   2.467  0.1628  0.0979  0.2594
  158OSM    C2F17713   4.375   0.217   2.500 -0.4844 -0.6976 -0.9320
  158OSM    H2F17714   4.380   0.175   2.397  0.0629 -1.8160 -0.4612
  158OSM    H2G17715   4.271   0.254   2.515 -0.5645 -0.7282 -1.3900
  158OSM    C3F17716   4.410   0.114   2.609  0.0690  0.9475  0.1761
  158OSM    H3F17717   4.512   0.072   2.594 -0.1610  1.1326 -2.3682
  158OSM    H3G17718   4.340   0.030   2.586 -0.2487  1.8565 -2.6034
  158OSM    C4F17719   4.371   0.166   2.749  0.0010  0.5299 -0.0649
  158OSM    H4F17720   4.261   0.155   2.763  0.2148 -0.3976  1.0117
  158OSM    H4G17721   4.399   0.274   2.747  0.5226  0.3996 -2.6844
  158OSM    C5F17722   4.442   0.083   2.863  0.1359 -0.5981  0.2759
  158OSM    H5F17723   4.550   0.109   2.872  0.1864 -0.4682 -0.6089
  158OSM    H5G17724   4.437  -0.027   2.846 -0.0485 -0.5611  0.0844
  158OSM    C6F17725   4.372   0.115   2.993 -0.2783  0.4127 -0.2393
  158OSM    H6F17726   4.267   0.079   2.985 -0.4443  0.9383 -0.5349
  158OSM    H6G17727   4.358   0.225   2.999 -1.3625  0.2950 -0.3775
  158OSM    C7F17728   4.439   0.072   3.126 -0.2643  0.4538  0.1276
  158OSM    H7F17729   4.542   0.107   3.148 -0.1461  0.2164 -0.0415
  158OSM    H7G17730   4.448  -0.039   3.132 -0.3984  0.5304  2.6431
  158OSM    C8F17731   4.343   0.110   3.245 -0.0549 -0.1086  0.4827
  158OSM    H8F17732   4.384   0.064   3.338 -1.1474  0.2355  1.1632
  158OSM    H8G17733   4.254   0.051   3.214 -0.6357  1.1668 -0.3513
  158OSM    C9F17734   4.318   0.252   3.269 -0.1910 -0.0830  0.7430
  158OSM    H9F17735   4.229   0.288   3.215 -0.3873  3.9130  3.2933
  158OSM   C10F17736   4.382   0.346   3.345  0.1151  0.2088 -0.2085
  158OSM   H10F17737   4.348   0.451   3.345 -0.1080  0.1664  1.3025
  158OSM   C11F17738   4.503   0.321   3.440  0.8542 -0.2050  0.0936
  158OSM   H11F17739   4.579   0.400   3.421  0.0419 -0.1766 -4.0775
  158OSM   H11G17740   4.550   0.232   3.393  0.9644  0.7227 -1.6579
  158OSM   C12F17741   4.457   0.290   3.584 -0.3019  0.3585  0.3728
  158OSM   H12F17742   4.534   0.232   3.637 -0.6785 -1.3913 -0.9029
  158OSM   H12G17743   4.368   0.224   3.576  0.6363 -0.8153 -1.0265
  158OSM   C13F17744   4.418   0.422   3.650  0.3289  0.0925  0.1875
  158OSM   H13F17745   4.342   0.478   3.590  0.7109  0.4406  0.0199
  158OSM   H13G17746   4.502   0.493   3.633 -1.1146  1.3263 -2.3961
  158OSM   C14F17747   4.400   0.422   3.800  1.1150  0.6172 -1.4725
  158OSM   H14F17748   4.403   0.529   3.829  1.0811  0.2523 -0.0134
  158OSM   H14G17749   4.479   0.370   3.858 -2.2990 -0.3102  2.9181
  158OSM   C15F17750   4.262   0.360   3.852 -0.1485  0.0049 -0.3236
  158OSM   H15F17751   4.237   0.265   3.801 -0.8610 -0.2092  0.4021
  158OSM   H15G17752   4.181   0.433   3.827  1.2383  1.2440 -1.3677
  158OSM   C16F17753   4.248   0.342   4.003  0.1215  0.1838 -0.4593
  158OSM   H16F17754   4.317   0.269   4.050  0.2889 -0.2498 -1.3442
  158OSM   H16G17755   4.143   0.310   4.019 -0.3424  2.7047  2.4646
  158OSM   C17F17756   4.250   0.473   4.085 -0.1007  0.3719  0.5706
  158OSM   H17F17757   4.198   0.459   4.181 -0.3569  1.0970  0.5438
  158OSM   H17G17758   4.181   0.541   4.031 -0.8452 -1.2097 -0.5530
  158OSM   C18F17759   4.383   0.540   4.111  0.7393  0.2040 -0.1208
  158OSM   H18F17760   4.455   0.479   4.169 -1.1578  1.6699  4.1490
  158OSM   H18G17761   4.366   0.633   4.169  1.5391 -0.1875  0.7679
  158OSM   H18H17762   4.430   0.582   4.019  1.7899  1.6529  1.0301
  159OSM      N17763   5.338   2.222   2.379 -0.6219 -0.0559  0.5448
  159OSM    C1517764   5.470   2.164   2.334  0.1212 -0.1900 -0.4976
  159OSM   H15A17765   5.522   2.149   2.427 -0.7299  3.4132  0.7512
  159OSM   H15B17766   5.534   2.232   2.279  0.3379 -0.8836 -1.1135
  159OSM   H15C17767   5.456   2.079   2.269  2.0364  0.1964 -1.4740
  159OSM    C1417768   5.281   2.292   2.258  0.5392 -0.5052 -0.3879
  159OSM   H14A17769   5.177   2.317   2.276  0.5197 -0.1929 -0.8911
  159OSM   H14B17770   5.278   2.223   2.176  0.4159  0.5002 -1.2572
  159OSM   H14C17771   5.338   2.375   2.218  2.6953 -0.9736  1.4953
  159OSM    C1317772   5.250   2.109   2.415 -0.4341 -0.7042  0.3000
  159OSM   H13A17773   5.288   2.057   2.502 -1.7824 -1.4797  0.4366
  159OSM   H13B17774   5.220   2.052   2.328 -0.6008  0.5450 -0.4853
  159OSM   H13C17775   5.154   2.146   2.446 -0.4306 -0.0526 -0.4156
  159OSM    C1217776   5.369   2.320   2.488  0.0886 -0.2554  0.0376
  159OSM   H12A17777   5.278   2.366   2.525  2.0615  2.0354  2.4950
  159OSM   H12B17778   5.415   2.410   2.449 -0.1448 -0.6419 -1.1587
  159OSM    C1117779   5.448   2.263   2.617  0.3597  0.0443 -0.3543
  159OSM   H11A17780   5.429   2.158   2.647  0.6253 -0.1153 -0.7340
  159OSM   H11B17781   5.418   2.325   2.704  2.6365 -2.6336  2.5839
  159OSM      P17782   5.689   2.366   2.621  0.1315  0.2871  0.2855
  159OSM    O1317783   5.817   2.306   2.592  0.0758  0.3167  0.1191
  159OSM    O1417784   5.659   2.485   2.535  0.6060  0.1259 -0.1292
  159OSM    O1117785   5.667   2.385   2.772 -0.1788  0.8209 -0.2448
  159OSM    O1217786   5.588   2.256   2.588  0.0147 -0.3421 -0.0848
  159OSM    C1S17787   5.734   2.497   2.832  0.6750  0.4667 -0.5802
  159OSM    H1S17788   5.684   2.591   2.801 -0.2764  0.6908  1.4485
  159OSM    H1T17789   5.836   2.509   2.790  0.4748 -2.9268 -2.3935
  159OSM     NF17790   5.799   2.619   3.036 -0.5206  0.2413  0.3448
  159OSM    HNF17791   5.896   2.639   3.025  0.2632 -2.8382  0.5923
  159OSM    C2S17792   5.754   2.488   2.984 -0.1345 -0.1103  0.9768
  159OSM    H2S17793   5.655   2.476   3.032 -0.8017  0.3808 -0.2301
  159OSM    C3S17794   5.845   2.364   3.016  0.2795 -0.1039 -0.3604
  159OSM    H3S17795   5.942   2.385   2.965 -0.0299  0.8681 -0.5794
  159OSM     O317796   5.808   2.237   2.955  0.0328 -0.4132  0.4488
  159OSM    HO317797   5.744   2.256   2.886  0.3998 -0.5304  0.0718
  159OSM    C4S17798   5.862   2.349   3.158 -0.2332 -0.9801  0.4249
  159OSM    H4S17799   5.774   2.313   3.215 -0.5141  0.5333  0.9798
  159OSM    C5S17800   5.967   2.382   3.235 -0.9511  0.4512 -0.0336
  159OSM    H5S17801   6.058   2.408   3.179 -2.1795  2.8553 -1.0784
  159OSM    C6S17802   5.977   2.363   3.388  0.3263 -0.3367  1.1655
  159OSM    H6S17803   5.925   2.447   3.439 -3.0007 -1.5733  0.0630
  159OSM    H6T17804   6.085   2.357   3.414  0.8840  0.3175 -0.8081
  159OSM    C7S17805   5.911   2.236   3.437  0.1908  0.0554  0.4125
  159OSM    H7S17806   5.945   2.149   3.377  0.2836  1.1841 -1.2478
  159OSM    H7T17807   5.800   2.239   3.449  0.3593 -0.9143  2.5782
  159OSM    C8S17808   5.962   2.205   3.581  0.1634 -0.6664 -0.4715
  159OSM    H8S17809   5.942   2.294   3.644 -0.0302 -0.7887 -0.3592
  159OSM    H8T17810   6.065   2.166   3.571  0.1181 -1.0356  0.4471
  159OSM    C9S17811   5.883   2.087   3.641  0.0532 -0.1216 -0.2250
  159OSM    H9S17812   5.895   1.994   3.583 -1.2891 -0.5979  0.2232
  159OSM    H9T17813   5.776   2.118   3.652 -0.1722 -1.2387  0.8235
  159OSM   C10S17814   5.937   2.046   3.783  0.1578  0.4954  0.0567
  159OSM   H10S17815   5.858   1.999   3.846  1.2768 -4.0399 -1.5303
  159OSM   H10T17816   5.991   2.128   3.834 -0.4746  0.2030  1.2412
  159OSM   C11S17817   6.048   1.930   3.774 -0.2325  0.2469  0.4796
  159OSM   H11S17818   6.095   1.911   3.873  0.0768  0.4818  0.3779
  159OSM   H11T17819   6.124   1.971   3.705  0.3252 -0.5096  0.6253
  159OSM   C12S17820   5.995   1.791   3.727  0.2355 -0.4636 -0.0834
  159OSM   H12S17821   6.078   1.719   3.742  0.0416 -0.6141  0.2614
  159OSM   H12T17822   5.955   1.800   3.623  0.1156  1.0663  0.0666
  159OSM   C13S17823   5.879   1.746   3.822 -0.1657 -0.4990 -0.7848
  159OSM   H13S17824   5.864   1.637   3.812 -0.4440 -0.7629  1.7504
  159OSM   H13T17825   5.785   1.785   3.778 -1.0870 -0.1988  1.3163
  159OSM   C14S17826   5.893   1.774   3.970  0.1330 -0.3304  0.4774
  159OSM   H14S17827   5.892   1.879   4.005  2.6075 -0.6346  1.6456
  159OSM   H14T17828   5.986   1.730   4.011 -0.0708 -2.1742 -0.8735
  159OSM   C15S17829   5.770   1.701   4.040  0.5277 -0.8954  0.8382
  159OSM   H15S17830   5.777   1.592   4.018  0.4665 -0.7741  0.2033
  159OSM   H15T17831   5.678   1.730   3.986  0.6317 -2.2220 -0.1133
  159OSM   C16S17832   5.751   1.715   4.192 -0.7740 -0.1835 -0.6976
  159OSM   H16S17833   5.657   1.659   4.211  0.4027 -1.3475  2.2021
  159OSM   H16T17834   5.739   1.821   4.223 -0.3389 -0.0458 -0.9819
  159OSM   C17S17835   5.862   1.638   4.266 -0.0187 -0.5184  0.0476
  159OSM   H17S17836   5.960   1.660   4.218 -1.4136 -0.4254 -2.9625
  159OSM   H17T17837   5.847   1.528   4.266  0.9705 -0.6661 -0.1484
  159OSM   C18S17838   5.857   1.681   4.412 -0.3989 -0.3778  0.3327
  159OSM   H18S17839   5.930   1.637   4.483 -0.7496  0.6229  1.3397
  159OSM   H18T17840   5.752   1.670   4.445 -0.8375 -3.1609 -1.6400
  159OSM   H18U17841   5.888   1.786   4.431  3.0963 -1.5567  2.0536
  159OSM    C1F17842   5.714   2.727   3.026 -0.2768  0.5027 -0.3751
  159OSM     OF17843   5.599   2.720   2.980  0.2142  0.5112 -0.4472
  159OSM    C2F17844   5.766   2.861   3.061 -0.6992  0.3822 -0.0257
  159OSM    H2F17845   5.820   2.898   2.971  0.1085 -0.3327  0.1503
  159OSM    H2G17846   5.849   2.843   3.133  0.4801 -1.7643 -1.8220
  159OSM    C3F17847   5.664   2.967   3.108 -0.3235  0.4428  0.4933
  159OSM    H3F17848   5.590   2.977   3.025  1.7746  0.7104 -1.4436
  159OSM    H3G17849   5.722   3.061   3.119 -1.8825  1.3357  1.4607
  159OSM    C4F17850   5.593   2.955   3.246 -0.0658  0.1066 -0.2449
  159OSM    H4F17851   5.537   2.859   3.247  2.1228 -1.2803 -1.9853
  159OSM    H4G17852   5.512   3.028   3.265 -0.0341 -0.3163  1.7661
  159OSM    C5F17853   5.693   2.952   3.357  0.4387  0.1273  0.3029
  159OSM    H5F17854   5.771   3.027   3.332  0.1806 -1.0388 -5.3312
  159OSM    H5G17855   5.740   2.853   3.375  0.2242 -0.2612 -1.1045
  159OSM    C6F17856   5.627   2.997   3.492  0.9733  0.4008 -0.5111
  159OSM    H6F17857   5.550   2.918   3.510  2.8617 -1.1572  1.2694
  159OSM    H6G17858   5.579   3.096   3.476  1.6026  1.0987  1.5377
  159OSM    C7F17859   5.715   2.978   3.621  0.8307 -0.3586 -0.0709
  159OSM    H7F17860   5.800   3.051   3.617 -0.3793  1.2714  1.9329
  159OSM    H7G17861   5.767   2.880   3.629  3.0995  0.9122  2.5923
  159OSM    C8F17862   5.630   3.012   3.741 -0.1221  0.1013 -0.5895
  159OSM    H8F17863   5.579   3.110   3.739 -1.1768 -0.4232 -0.2423
  159OSM    H8G17864   5.707   3.005   3.821 -0.7578 -0.8784 -0.0407
  159OSM    C9F17865   5.527   2.909   3.786 -0.6508 -0.3839  0.0814
  159OSM    H9F17866   5.513   2.833   3.707  1.6391 -0.6520 -0.1116
  159OSM   C10F17867   5.474   2.885   3.911 -0.9387  0.5239  0.6263
  159OSM   H10F17868   5.404   2.801   3.925  0.8547 -1.2299 -0.4133
  159OSM   C11F17869   5.482   2.957   4.039 -0.3584 -0.6363  0.7853
  159OSM   H11F17870   5.390   2.935   4.097  0.0249 -0.2890  1.5340
  159OSM   H11G17871   5.478   3.067   4.026  2.3848 -0.6731 -1.2656
  159OSM   C12F17872   5.609   2.923   4.122  0.0928 -1.0059 -0.3438
  159OSM   H12F17873   5.623   2.984   4.214  1.7317  0.5465 -1.5474
  159OSM   H12G17874   5.695   2.934   4.053  1.6219 -1.2507  1.4304
  159OSM   C13F17875   5.615   2.769   4.166  0.6755  0.9358  0.3599
  159OSM   H13F17876   5.616   2.703   4.077 -2.1002 -1.5407  2.0020
  159OSM   H13G17877   5.524   2.731   4.215  0.7503 -1.7103 -1.3443
  159OSM   C14F17878   5.733   2.744   4.259 -0.7088 -0.2435  0.1228
  159OSM   H14F17879   5.752   2.638   4.287 -0.9358  0.0120  1.2965
  159OSM   H14G17880   5.704   2.797   4.352 -2.0128 -0.8866  0.1176
  159OSM   C15F17881   5.870   2.798   4.205 -0.1212 -0.3934 -0.2911
  159OSM   H15F17882   5.852   2.906   4.187 -1.7238 -0.6940 -0.6328
  159OSM   H15G17883   5.900   2.760   4.105 -3.0653  0.6742 -1.6902
  159OSM   C16F17884   5.982   2.796   4.307 -0.1951  0.1486 -0.2245
  159OSM   H16F17885   5.933   2.829   4.401  0.3536 -3.6103  1.5766
  159OSM   H16G17886   6.069   2.862   4.285  0.4783 -0.1881  1.2969
  159OSM   C17F17887   6.036   2.663   4.347 -0.3623  0.5824  0.0781
  159OSM   H17F17888   6.092   2.624   4.259  4.0525  0.1292  2.7839
  159OSM   H17G17889   5.948   2.599   4.369 -0.1917  0.6638  1.0440
  159OSM   C18F17890   6.130   2.656   4.462 -0.1796  0.3028 -0.3383
  159OSM   H18F17891   6.174   2.556   4.481  0.5990  0.6062 -0.5294
  159OSM   H18G17892   6.078   2.687   4.556 -1.0878 -0.4894 -0.5567
  159OSM   H18H17893   6.219   2.721   4.457 -0.1770  0.1869 -2.3097
  160OSM      N17894   2.918   1.864   1.438  0.1918 -0.0564  0.0671
  160OSM    C1517895   2.822   1.874   1.317  0.3463 -0.3479 -0.4472
  160OSM   H15A17896   2.726   1.828   1.339  0.4103  0.0666  0.7981
  160OSM   H15B17897   2.859   1.833   1.224  0.9091  2.5208 -1.5863
  160OSM   H15C17898   2.813   1.979   1.291  1.0830 -0.1254  0.1545
  160OSM    C1417899   2.871   1.950   1.550  0.6194  0.1031 -0.1288
  160OSM   H14A17900   2.944   1.966   1.627 -2.1326  2.5767  2.2227
  160OSM   H14B17901   2.781   1.908   1.592  0.9490  0.1227  0.6082
  160OSM   H14C17902   2.856   2.047   1.506 -2.5705  0.0174  0.5287
  160OSM    C1317903   2.917   1.728   1.485 -0.2307 -0.0399  0.2381
  160OSM   H13A17904   2.822   1.698   1.527 -0.4159  1.0052  0.5893
  160OSM   H13B17905   3.002   1.713   1.549 -0.2692  2.4878  0.9835
  160OSM   H13C17906   2.932   1.669   1.395  3.1491  0.1707  0.5359
  160OSM    C1217907   3.056   1.904   1.395  0.1780 -0.0553  0.5041
  160OSM   H12A17908   3.047   2.002   1.350 -1.9338 -0.3477  0.1590
  160OSM   H12B17909   3.085   1.838   1.314 -0.7859 -0.4087  0.4306
  160OSM    C1117910   3.176   1.904   1.497  0.4441  0.1520  0.4219
  160OSM   H11A17911   3.276   1.916   1.450  0.4222  0.9105  0.5666
  160OSM   H11B17912   3.177   1.804   1.546 -1.4367 -0.3762 -0.5085
  160OSM      P17913   3.177   2.160   1.569  0.0410  0.5279  0.4681
  160OSM    O1317914   3.152   2.178   1.425  0.2817  0.2816  0.0992
  160OSM    O1417915   3.087   2.236   1.656 -1.0956  0.1618 -0.3624
  160OSM    O1117916   3.329   2.186   1.602  0.7508  0.7245 -0.4568
  160OSM    O1217917   3.162   2.000   1.602  0.0116  0.3270  0.2816
  160OSM    C1S17918   3.401   2.122   1.707  0.3239 -0.5430 -0.1709
  160OSM    H1S17919   3.324   2.080   1.775 -1.7676  1.8147 -0.9087
  160OSM    H1T17920   3.452   2.199   1.769  0.1444 -1.4904  1.2054
  160OSM     NF17921   3.554   1.968   1.798 -0.0381  0.4918  0.4450
  160OSM    HNF17922   3.652   1.982   1.815  1.2990 -2.3880 -3.4271
  160OSM    C2S17923   3.503   2.019   1.670 -0.2103 -0.1361 -0.3762
  160OSM    H2S17924   3.453   1.939   1.612  0.5683 -0.4872 -0.5763
  160OSM    C3S17925   3.603   2.094   1.581 -0.3297 -0.0816  0.4956
  160OSM    H3S17926   3.644   2.182   1.633 -0.2576  1.3112 -1.7800
  160OSM     O317927   3.548   2.150   1.462  0.0415 -0.6366  0.0166
  160OSM    HO317928   3.457   2.161   1.490  0.3696 -0.8625  1.2321
  160OSM    C4S17929   3.721   1.997   1.547 -0.0188 -0.7111 -0.3751
  160OSM    H4S17930   3.693   1.897   1.510 -0.3721 -0.4290 -0.8759
  160OSM    C5S17931   3.852   2.020   1.571  0.0464 -0.3497 -0.3807
  160OSM    H5S17932   3.899   2.117   1.596  0.9124 -1.7333  4.1636
  160OSM    C6S17933   3.960   1.916   1.546  0.0185  1.0139  0.1466
  160OSM    H6S17934   4.057   1.936   1.596  0.1220  0.9413 -0.0215
  160OSM    H6T17935   3.981   1.917   1.437 -1.7799 -1.0168 -0.3021
  160OSM    C7S17936   3.921   1.767   1.581  0.2654 -0.1700  0.3455
  160OSM    H7S17937   4.010   1.702   1.564 -1.4611 -2.3703 -0.7958
  160OSM    H7T17938   3.847   1.721   1.512 -2.1819 -0.2800  2.8612
  160OSM    C8S17939   3.869   1.737   1.726 -0.0542  1.1530 -0.3993
  160OSM    H8S17940   3.770   1.787   1.736 -0.6846 -0.4047  1.8900
  160OSM    H8T17941   3.944   1.782   1.795 -0.8626  1.7229  0.1198
  160OSM    C9S17942   3.863   1.583   1.758  0.1669  0.0223  0.0133
  160OSM    H9S17943   3.964   1.538   1.758  0.4359  0.6333  0.2825
  160OSM    H9T17944   3.799   1.532   1.682 -0.6527  0.7895  0.1708
  160OSM   C10S17945   3.806   1.560   1.895  0.7271  0.4432 -0.4341
  160OSM   H10S17946   3.708   1.612   1.891  0.6496  0.4159  0.7859
  160OSM   H10T17947   3.867   1.601   1.979  0.0684 -2.4002  1.5633
  160OSM   C11S17948   3.785   1.410   1.923  0.2525 -0.5293  0.3799
  160OSM   H11S17949   3.877   1.355   1.952  0.2741 -0.9457 -0.4423
  160OSM   H11T17950   3.757   1.352   1.832 -1.4188  1.3317 -0.3721
  160OSM   C12S17951   3.674   1.389   2.033  0.3599  0.1358 -0.1189
  160OSM   H12S17952   3.722   1.427   2.126  5.1752 -0.0784 -2.2357
  160OSM   H12T17953   3.655   1.280   2.043  3.1522 -0.9891 -4.2166
  160OSM   C13S17954   3.535   1.454   2.004 -0.0795  0.7552 -0.5521
  160OSM   H13S17955   3.528   1.457   1.893  3.5365  1.1944 -0.8918
  160OSM   H13T17956   3.528   1.559   2.041 -0.3513  0.6131 -0.1937
  160OSM   C14S17957   3.406   1.385   2.047  0.5457 -0.0826  0.2288
  160OSM   H14S17958   3.388   1.348   2.150 -0.9715  0.9535  0.3714
  160OSM   H14T17959   3.389   1.302   1.975 -1.6529  1.3854 -1.0574
  160OSM   C15S17960   3.286   1.477   2.027  0.8672  1.1311 -0.0651
  160OSM   H15S17961   3.304   1.522   1.927 -2.9380 -0.9264 -1.8804
  160OSM   H15T17962   3.283   1.552   2.109  1.7364 -0.5097  1.5700
  160OSM   C16S17963   3.151   1.399   2.022 -0.5711  0.2663 -0.1160
  160OSM   H16S17964   3.145   1.354   2.123  0.3735  2.6557  1.0985
  160OSM   H16T17965   3.149   1.310   1.956  1.4958  1.7063 -2.3105
  160OSM   C17S17966   3.031   1.484   1.997  0.0928  0.2340  0.2371
  160OSM   H17S17967   3.059   1.559   1.920 -0.1108  1.4476  1.3169
  160OSM   H17T17968   3.013   1.544   2.088  2.3514  0.6528  0.4541
  160OSM   C18S17969   2.906   1.409   1.953 -0.2271 -0.4069  0.1952
  160OSM   H18S17970   2.906   1.368   1.850  0.9881  0.3021 -0.1087
  160OSM   H18T17971   2.814   1.469   1.969 -0.9456 -1.3751 -0.2691
  160OSM   H18U17972   2.915   1.322   2.021 -1.6972 -0.3001  0.5539
  160OSM    C1F17973   3.491   1.875   1.869 -0.1358 -0.0129 -0.6698
  160OSM     OF17974   3.393   1.813   1.831  0.6768 -0.4712  0.5604
  160OSM    C2F17975   3.550   1.844   2.004  1.1441 -0.2779  0.1780
  160OSM    H2F17976   3.621   1.927   2.026  1.5247  0.0107 -1.8962
  160OSM    H2G17977   3.607   1.749   1.995  0.8026 -0.7987  2.8011
  160OSM    C3F17978   3.441   1.835   2.109  0.0537 -0.3562  0.2070
  160OSM    H3F17979   3.362   1.759   2.091  1.6762 -2.2189  0.6776
  160OSM    H3G17980   3.396   1.936   2.123  0.1186 -0.1856 -0.7438
  160OSM    C4F17981   3.506   1.801   2.245 -0.6869  0.4164 -0.0516
  160OSM    H4F17982   3.537   1.695   2.254  1.6358  0.8057 -2.2746
  160OSM    H4G17983   3.428   1.833   2.317 -1.0595 -0.2566 -0.1540
  160OSM    C5F17984   3.631   1.893   2.280 -0.1491  0.4801 -0.4511
  160OSM    H5F17985   3.609   2.002   2.283 -0.5389  0.4130 -0.7846
  160OSM    H5G17986   3.706   1.863   2.204 -1.9871  0.9436 -2.5291
  160OSM    C6F17987   3.697   1.861   2.422  1.1516 -0.3887  0.9437
  160OSM    H6F17988   3.779   1.933   2.446  1.4242 -1.0922  2.2398
  160OSM    H6G17989   3.726   1.754   2.434  0.2816 -0.7973 -0.3306
  160OSM    C7F17990   3.597   1.889   2.541  0.4453 -0.4590  0.1057
  160OSM    H7F17991   3.516   1.814   2.531  0.2997 -0.2466 -0.3505
  160OSM    H7G17992   3.558   1.992   2.530  0.0258 -0.3515  2.1655
  160OSM    C8F17993   3.674   1.868   2.681  0.5418 -0.4254 -0.1663
  160OSM    H8F17994   3.761   1.936   2.668 -1.1307  1.4247 -3.0317
  160OSM    H8G17995   3.702   1.761   2.675 -0.6639 -0.7809  0.2447
  160OSM    C9F17996   3.594   1.891   2.806 -0.8323  0.3508 -0.1754
  160OSM    H9F17997   3.496   1.842   2.804 -0.4716 -0.3957  0.1866
  160OSM   C10F17998   3.631   1.960   2.920  0.5031 -0.4699  0.0167
  160OSM   H10F17999   3.548   1.992   2.985 -0.4701  2.3885 -2.4269
  160OSM   C11F18000   3.759   2.037   2.938  0.1420  0.7323  0.3962
  160OSM   H11F18001   3.749   2.138   2.892 -0.6252 -0.4806 -2.2611
  160OSM   H11G18002   3.840   1.984   2.884  0.2197 -0.0468  1.2593
  160OSM   C12F18003   3.789   2.059   3.088  0.0920 -0.2041 -0.1551
  160OSM   H12F18004   3.897   2.083   3.097 -0.1110  1.2250 -1.1420
  160OSM   H12G18005   3.775   1.966   3.146 -1.3412  1.7757  2.9056
  160OSM   C13F18006   3.712   2.179   3.146  0.3031  0.7282 -0.1094
  160OSM   H13F18007   3.605   2.155   3.124 -0.0896  1.5412  0.8397
  160OSM   H13G18008   3.739   2.272   3.091  3.2947 -1.6721 -3.0714
  160OSM   C14F18009   3.724   2.193   3.290  0.1506 -0.8814 -0.3804
  160OSM   H14F18010   3.827   2.187   3.333 -0.5715 -0.1531  1.5905
  160OSM   H14G18011   3.669   2.105   3.330 -2.3854  0.2798 -1.1685
  160OSM   C15F18012   3.657   2.323   3.336  0.4046  0.7297 -0.0360
  160OSM   H15F18013   3.549   2.315   3.309  0.5473 -2.6335 -0.0477
  160OSM   H15G18014   3.711   2.402   3.280  1.5849 -0.3369 -0.4543
  160OSM   C16F18015   3.685   2.343   3.488  0.5720  0.1244  0.0902
  160OSM   H16F18016   3.796   2.348   3.490  0.8170 -1.9513 -2.2252
  160OSM   H16G18017   3.641   2.257   3.543 -2.2902  1.8285  0.6643
  160OSM   C17F18018   3.605   2.466   3.547  0.3304 -0.2059 -0.2536
  160OSM   H17F18019   3.502   2.446   3.509  1.1087 -0.3395 -2.4461
  160OSM   H17G18020   3.632   2.562   3.499 -1.5383  0.1213 -0.7399
  160OSM   C18F18021   3.608   2.494   3.694  0.8263 -0.0387  0.2407
  160OSM   H18F18022   3.588   2.602   3.711 -1.2096 -0.4762  0.9406
  160OSM   H18G18023   3.704   2.471   3.743  0.0120  0.9564  2.4119
  160OSM   H18H18024   3.531   2.430   3.743 -1.1397  1.0219 -1.3021
  161OSM      N18025   5.386   0.433   2.118  0.5138  0.3271  0.0276
  161OSM    C1518026   5.285   0.458   2.227 -0.0922  0.4424 -0.5356
  161OSM   H15A18027   5.191   0.499   2.193 -0.2670  0.8335  0.4084
  161OSM   H15B18028   5.320   0.522   2.306 -2.1443  0.7790  0.1769
  161OSM   H15C18029   5.265   0.360   2.267 -0.9895  0.1494 -1.6198
  161OSM    C1418030   5.489   0.358   2.188 -0.5569 -0.1854  0.4841
  161OSM   H14A18031   5.577   0.343   2.128  2.1621  0.3489  4.0097
  161OSM   H14B18032   5.453   0.267   2.234 -0.9554 -0.7534 -0.9036
  161OSM   H14C18033   5.526   0.417   2.271 -0.9688  1.7728 -0.6725
  161OSM    C1318034   5.335   0.344   2.011 -0.6979 -0.1070  0.0243
  161OSM   H13A18035   5.251   0.391   1.962 -0.8098 -0.3942 -0.0634
  161OSM   H13B18036   5.312   0.246   2.050  1.4044 -0.5021  0.3921
  161OSM   H13C18037   5.407   0.317   1.936 -0.7547 -0.7570  0.1946
  161OSM    C1218038   5.450   0.560   2.056 -0.0050 -1.0206 -0.7782
  161OSM   H12A18039   5.530   0.535   1.989  0.0683  2.7496 -2.3679
  161OSM   H12B18040   5.510   0.610   2.130 -1.2968  1.4265 -1.2760
  161OSM    C1118041   5.363   0.653   1.973 -0.2334  0.1562  0.0460
  161OSM   H11A18042   5.306   0.591   1.901 -2.1581 -0.8147  2.2439
  161OSM   H11B18043   5.439   0.718   1.926  0.2947  1.6616  2.7638
  161OSM      P18044   5.297   0.872   2.105 -0.4420  0.0818 -0.1525
  161OSM    O1318045   5.432   0.878   2.165  0.1230 -0.0520  0.3199
  161OSM    O1418046   5.270   0.969   1.997 -0.3277  0.1649  0.1987
  161OSM    O1118047   5.177   0.889   2.212  0.4461 -0.1842  0.2821
  161OSM    O1218048   5.265   0.723   2.053  0.1764  0.2853 -0.0702
  161OSM    C1S18049   5.180   0.819   2.344 -0.1562 -0.3462  1.2159
  161OSM    H1S18050   5.241   0.727   2.343  1.9489  0.9838  1.2776
  161OSM    H1T18051   5.079   0.779   2.367  0.0999 -0.8021  1.5776
  161OSM     NF18052   5.214   0.846   2.590  0.3633  0.3352  0.0216
  161OSM    HNF18053   5.143   0.873   2.654  1.4006 -0.6751  1.6713
  161OSM    C2S18054   5.219   0.913   2.464  0.7302 -0.0096 -0.4422
  161OSM    H2S18055   5.324   0.951   2.459  1.2400 -1.3312 -0.0967
  161OSM    C3S18056   5.124   1.040   2.460  0.2191 -0.3947 -1.0434
  161OSM    H3S18057   5.018   1.027   2.490 -0.1682  1.2722 -1.5984
  161OSM     O318058   5.110   1.104   2.337 -0.6403 -0.3711  0.1534
  161OSM    HO318059   5.152   1.034   2.286  2.1836 -0.6749  2.5757
  161OSM    C4S18060   5.164   1.135   2.580  0.8329  0.2109 -0.5253
  161OSM    H4S18061   5.107   1.111   2.671 -1.1324  3.2047 -0.8490
  161OSM    C5S18062   5.250   1.240   2.585 -0.1178  0.6778 -0.0252
  161OSM    H5S18063   5.291   1.282   2.492  0.6073 -1.8767 -0.9473
  161OSM    C6S18064   5.281   1.323   2.704 -0.1224 -0.1083 -0.2021
  161OSM    H6S18065   5.212   1.411   2.699  0.6067  0.4643 -0.3445
  161OSM    H6T18066   5.376   1.380   2.698  0.4608 -0.5231  3.2705
  161OSM    C7S18067   5.293   1.262   2.845 -0.3929  0.0049 -0.3283
  161OSM    H7S18068   5.368   1.181   2.833  0.7471  1.0483 -0.5607
  161OSM    H7T18069   5.196   1.222   2.880 -0.1656 -0.2367  0.0392
  161OSM    C8S18070   5.345   1.362   2.959 -0.0305 -0.6394 -0.6642
  161OSM    H8S18071   5.274   1.447   2.972  0.0684 -0.6600  0.0906
  161OSM    H8T18072   5.450   1.393   2.943  0.5463 -0.8210  2.1595
  161OSM    C9S18073   5.341   1.288   3.092 -0.3171  0.5818 -0.2128
  161OSM    H9S18074   5.380   1.187   3.067 -0.2430  0.5719 -0.0541
  161OSM    H9T18075   5.240   1.281   3.138  0.1696  1.3413  1.0206
  161OSM   C10S18076   5.445   1.339   3.187  0.3236 -0.2072 -0.1328
  161OSM   H10S18077   5.430   1.446   3.210 -0.9748 -0.3095 -0.4370
  161OSM   H10T18078   5.547   1.323   3.146  0.1162 -1.4306 -0.2124
  161OSM   C11S18079   5.434   1.272   3.326  0.3194  0.0071  0.1052
  161OSM   H11S18080   5.410   1.166   3.302  1.2610  0.4520 -3.3313
  161OSM   H11T18081   5.347   1.306   3.386 -0.0397 -2.6956  1.2681
  161OSM   C12S18082   5.563   1.285   3.411  0.9049 -0.1415  0.3581
  161OSM   H12S18083   5.533   1.364   3.483  0.6275 -0.7500  0.9207
  161OSM   H12T18084   5.646   1.321   3.347  0.6250  0.3573  0.2739
  161OSM   C13S18085   5.607   1.153   3.481  0.2208 -0.1542  0.2607
  161OSM   H13S18086   5.646   1.078   3.408  1.4142  0.2715  0.4305
  161OSM   H13T18087   5.513   1.117   3.528 -0.1129  0.1373 -0.1805
  161OSM   C14S18088   5.711   1.174   3.589  0.5412 -0.6308 -0.3442
  161OSM   H14S18089   5.799   1.226   3.548  0.0821  0.2016 -0.2988
  161OSM   H14T18090   5.735   1.071   3.625 -1.4301 -1.9361 -2.4779
  161OSM   C15S18091   5.643   1.247   3.710 -0.4077  1.1014 -0.3367
  161OSM   H15S18092   5.544   1.201   3.730  0.8350 -2.4762 -1.6175
  161OSM   H15T18093   5.630   1.355   3.686 -0.7089  1.2705  0.5473
  161OSM   C16S18094   5.710   1.222   3.843  0.6908 -0.5964  0.5301
  161OSM   H16S18095   5.815   1.259   3.834  0.5229  0.0189  0.9740
  161OSM   H16T18096   5.709   1.113   3.863  3.7749 -1.3955 -2.7049
  161OSM   C17S18097   5.647   1.289   3.961 -0.8675 -0.3508 -0.2165
  161OSM   H17S18098   5.538   1.264   3.956 -0.8584 -0.2121 -1.3066
  161OSM   H17T18099   5.658   1.395   3.930  3.7928 -0.8220 -0.8139
  161OSM   C18S18100   5.699   1.268   4.105  0.6590  0.2065 -0.1146
  161OSM   H18S18101   5.667   1.170   4.145 -2.0623  1.9533  2.4350
  161OSM   H18T18102   5.640   1.332   4.175  0.6570  1.3214 -1.0985
  161OSM   H18U18103   5.808   1.286   4.118  1.0279 -1.4026 -0.7718
  161OSM    C1F18104   5.304   0.750   2.622  0.2549  0.0747  0.3617
  161OSM     OF18105   5.395   0.713   2.542 -0.0727  0.7480 -0.2408
  161OSM    C2F18106   5.285   0.696   2.764 -0.0027  0.1327  0.0448
  161OSM    H2F18107   5.212   0.612   2.761  1.7598 -1.6379  2.5396
  161OSM    H2G18108   5.238   0.772   2.830  0.0614 -0.4018  0.7298
  161OSM    C3F18109   5.421   0.643   2.823  0.3225  0.4512  0.2002
  161OSM    H3F18110   5.508   0.709   2.803  1.1346 -0.1591  1.5915
  161OSM    H3G18111   5.452   0.548   2.774 -3.1412 -1.2878  1.1264
  161OSM    C4F18112   5.426   0.626   2.978 -0.3069  0.5459  0.2229
  161OSM    H4F18113   5.513   0.557   2.978  1.1903  2.3448  0.8123
  161OSM    H4G18114   5.346   0.559   3.016  0.5761 -1.9555 -2.0157
  161OSM    C5F18115   5.452   0.750   3.068 -0.0844 -0.0022  0.8238
  161OSM    H5F18116   5.372   0.826   3.054 -0.4903 -0.4459  0.7141
  161OSM    H5G18117   5.550   0.788   3.033 -0.6865  0.5261 -0.3205
  161OSM    C6F18118   5.483   0.714   3.218  0.2296  0.2165  0.7664
  161OSM    H6F18119   5.565   0.639   3.216  0.5537  0.5641 -1.9219
  161OSM    H6G18120   5.393   0.665   3.262  0.6177 -1.5245 -0.2608
  161OSM    C7F18121   5.511   0.833   3.303  0.4009 -0.3288  0.4226
  161OSM    H7F18122   5.415   0.888   3.296  1.2328  0.9953 -1.2070
  161OSM    H7G18123   5.592   0.889   3.253  0.3717 -0.4090  0.2859
  161OSM    C8F18124   5.548   0.788   3.445  0.4473 -0.0400 -0.3829
  161OSM    H8F18125   5.576   0.884   3.493 -1.8234  0.9951 -1.0047
  161OSM    H8G18126   5.642   0.730   3.454 -0.7072 -1.8506  0.7628
  161OSM    C9F18127   5.432   0.722   3.521 -0.6949 -0.5458 -0.3426
  161OSM    H9F18128   5.388   0.636   3.470  1.8639 -1.2363 -1.5233
  161OSM   C10F18129   5.386   0.766   3.639  0.2341 -0.1814 -0.1721
  161OSM   H10F18130   5.300   0.713   3.684 -0.0115 -0.2167 -0.6685
  161OSM   C11F18131   5.433   0.882   3.715  0.2909 -0.8063  0.2810
  161OSM   H11F18132   5.368   0.968   3.691  0.1952 -1.0459 -0.3232
  161OSM   H11G18133   5.527   0.926   3.677 -0.2171  0.0887  0.0380
  161OSM   C12F18134   5.444   0.882   3.869  0.7413  0.1834 -0.2923
  161OSM   H12F18135   5.520   0.957   3.901  1.2527 -0.9463  1.2891
  161OSM   H12G18136   5.474   0.784   3.912  1.8102  0.3171 -0.6825
  161OSM   C13F18137   5.318   0.919   3.939 -0.3942 -0.3357  0.2140
  161OSM   H13F18138   5.228   0.862   3.906 -2.0692  3.7605 -3.2390
  161OSM   H13G18139   5.310   1.024   3.904  0.6319 -0.7146 -1.2201
  161OSM   C14F18140   5.326   0.932   4.089 -0.0390 -0.1804  0.8041
  161OSM   H14F18141   5.415   0.988   4.125 -1.5916  2.4088  0.8266
  161OSM   H14G18142   5.334   0.829   4.129  2.3183 -0.3593  0.0152
  161OSM   C15F18143   5.194   1.001   4.142  0.4838  0.5453 -0.2359
  161OSM   H15F18144   5.109   0.952   4.089  0.6798  0.1950 -0.2285
  161OSM   H15G18145   5.206   1.108   4.116  1.3834  0.5689  0.2646
  161OSM   C16F18146   5.189   0.990   4.295 -0.4087  0.1398  0.0771
  161OSM   H16F18147   5.253   1.073   4.332 -0.1702  0.2371 -0.5448
  161OSM   H16G18148   5.215   0.897   4.350 -2.9704 -0.3440  0.5880
  161OSM   C17F18149   5.049   1.014   4.330  0.5103 -0.2480 -0.1978
  161OSM   H17F18150   4.997   0.925   4.287  0.6119 -0.4209  0.0396
  161OSM   H17G18151   5.010   1.108   4.285  0.8664  0.4896  0.9853
  161OSM   C18F18152   5.021   1.012   4.476 -0.6433 -0.2207  0.2321
  161OSM   H18F18153   4.932   1.074   4.497 -0.4340 -0.5718  2.5004
  161OSM   H18G18154   5.106   1.060   4.530 -0.0157 -0.8505 -0.1656
  161OSM   H18H18155   5.011   0.905   4.506 -0.3278 -0.3781 -0.2149
  162OSM      N18156   2.289   2.268   2.009  0.1440  0.0934  0.4857
  162OSM    C1518157   2.221   2.408   2.014  0.1713  0.8509  0.5105
  162OSM   H15A18158   2.150   2.413   2.094 -2.4278  1.2467 -1.6840
  162OSM   H15B18159   2.151   2.416   1.932  0.0488  1.4146  0.6673
  162OSM   H15C18160   2.290   2.491   2.008 -1.1816  1.9580 -0.1493
  162OSM    C1418161   2.381   2.270   1.892 -0.1462 -0.0367  0.0362
  162OSM   H14A18162   2.449   2.353   1.901 -0.6650  0.5040 -0.8278
  162OSM   H14B18163   2.330   2.296   1.800 -2.7214  0.3238  1.4737
  162OSM   H14C18164   2.445   2.184   1.882 -0.1162 -0.2027  1.4445
  162OSM    C1318165   2.357   2.258   2.140  0.0830 -0.4576 -0.5173
  162OSM   H13A18166   2.389   2.158   2.164  0.9590  0.0663  0.5968
  162OSM   H13B18167   2.293   2.290   2.221  0.9853  2.3111 -0.7889
  162OSM   H13C18168   2.449   2.315   2.146  1.0123 -1.8689 -1.0054
  162OSM    C1218169   2.185   2.150   2.007  0.1695 -0.2055  0.4842
  162OSM   H12A18170   2.137   2.139   2.103  1.7380  1.7540  1.5546
  162OSM   H12B18171   2.237   2.055   1.997  1.0663  0.3915 -0.8031
  162OSM    C1118172   2.070   2.159   1.901 -0.1380  0.4318 -0.2414
  162OSM   H11A18173   2.012   2.065   1.896  3.3210 -1.8035 -2.4399
  162OSM   H11B18174   2.107   2.160   1.796 -1.1171 -0.8757 -0.6197
  162OSM      P18175   1.869   2.272   2.019 -0.4571  0.0263  0.0266
  162OSM    O1318176   1.804   2.404   2.034  0.0865 -0.3758 -0.5271
  162OSM    O1418177   1.782   2.164   1.971 -0.2845 -0.1816 -0.0614
  162OSM    O1118178   1.939   2.224   2.152 -0.3372  0.0273  0.7434
  162OSM    O1218179   1.986   2.279   1.914 -0.1116  0.8640 -0.0447
  162OSM    C1S18180   1.878   2.116   2.226 -0.9306 -0.1563 -0.5258
  162OSM    H1S18181   1.905   2.021   2.176 -1.9330 -0.1348 -1.1299
  162OSM    H1T18182   1.769   2.123   2.246 -0.9627  0.2750 -0.8319
  162OSM     NF18183   1.910   1.971   2.416 -0.1104  0.4136  0.5421
  162OSM    HNF18184   1.826   1.962   2.468 -0.2039  1.4380  0.5812
  162OSM    C2S18185   1.956   2.097   2.362  0.1399 -0.8354  0.1880
  162OSM    H2S18186   2.065   2.089   2.341  0.1912  1.7601 -0.8601
  162OSM    C3S18187   1.930   2.226   2.447 -0.7474 -0.1758  0.0749
  162OSM    H3S18188   1.823   2.247   2.469 -0.5170  0.1329  0.9337
  162OSM     O318189   1.973   2.356   2.399  0.1327  0.4028  0.0958
  162OSM    HO318190   1.985   2.328   2.308 -1.1875  0.2683 -0.0656
  162OSM    C4S18191   2.001   2.199   2.574  0.1093  0.0763 -0.0183
  162OSM    H4S18192   1.924   2.190   2.653 -0.9748 -0.7697 -1.1356
  162OSM    C5S18193   2.133   2.212   2.607 -0.2193  0.4015  0.2481
  162OSM    H5S18194   2.206   2.232   2.527  2.1128  1.0635  2.4326
  162OSM    C6S18195   2.196   2.187   2.747 -0.4648 -0.6171 -0.0550
  162OSM    H6S18196   2.234   2.275   2.802 -0.2674 -1.4368  1.1525
  162OSM    H6T18197   2.291   2.129   2.737 -1.0591 -1.5514 -0.4368
  162OSM    C7S18198   2.097   2.115   2.839  0.4494  0.3744  0.5505
  162OSM    H7S18199   2.072   2.023   2.782  0.5816  0.3699  0.5001
  162OSM    H7T18200   1.997   2.161   2.858  0.9049  1.0524  1.3856
  162OSM    C8S18201   2.150   2.088   2.978 -0.9812 -0.3286  0.3940
  162OSM    H8S18202   2.254   2.050   2.987 -0.7416  0.6053  1.7252
  162OSM    H8T18203   2.086   2.004   3.015 -1.3947  0.2459  0.9995
  162OSM    C9S18204   2.150   2.211   3.068 -0.1645  0.2417  0.6742
  162OSM    H9S18205   2.055   2.266   3.080 -0.0656  0.5749 -0.0225
  162OSM    H9T18206   2.218   2.285   3.021 -1.0919  0.8701  0.3138
  162OSM   C10S18207   2.195   2.175   3.206  0.4809 -0.0029 -0.7531
  162OSM   H10S18208   2.290   2.119   3.220  1.8966  2.0846 -1.4624
  162OSM   H10T18209   2.119   2.103   3.244  0.9057 -0.7585 -1.3062
  162OSM   C11S18210   2.191   2.303   3.290  0.4108  0.2364 -0.2898
  162OSM   H11S18211   2.092   2.352   3.276 -0.0610 -0.8354 -0.7594
  162OSM   H11T18212   2.262   2.377   3.247 -1.7784  1.9757 -1.1038
  162OSM   C12S18213   2.241   2.280   3.437 -0.1487  0.1338  0.4118
  162OSM   H12S18214   2.325   2.207   3.433 -1.5493 -1.4671 -1.6905
  162OSM   H12T18215   2.157   2.222   3.481  0.6310 -0.7585  0.7614
  162OSM   C13S18216   2.273   2.406   3.515 -0.5587 -0.3710  0.3346
  162OSM   H13S18217   2.177   2.445   3.558 -0.4349  1.0729 -0.6215
  162OSM   H13T18218   2.308   2.479   3.439  1.4471 -2.1298 -0.5398
  162OSM   C14S18219   2.375   2.375   3.632  0.6084 -0.2992  0.3172
  162OSM   H14S18220   2.400   2.463   3.695 -1.3353  0.0565  0.6424
  162OSM   H14T18221   2.471   2.346   3.584  0.0312  2.6646 -3.0192
  162OSM   C15S18222   2.327   2.260   3.724 -0.3252  0.0807 -0.2508
  162OSM   H15S18223   2.337   2.164   3.668  1.3842 -0.6266  1.1692
  162OSM   H15T18224   2.221   2.278   3.751 -0.9484  1.3914 -3.1663
  162OSM   C16S18225   2.416   2.256   3.847  0.1079 -0.2412 -0.5234
  162OSM   H16S18226   2.401   2.351   3.901  2.5971 -0.6550  1.0447
  162OSM   H16T18227   2.525   2.243   3.831  0.8605  2.9434  1.2210
  162OSM   C17S18228   2.365   2.149   3.954 -0.0062 -1.0815  0.7321
  162OSM   H17S18229   2.401   2.050   3.918  1.5174 -0.0598 -0.7376
  162OSM   H17T18230   2.255   2.142   3.965  0.0759 -1.0510  1.6710
  162OSM   C18S18231   2.418   2.167   4.094 -0.7024  0.4805  0.1684
  162OSM   H18S18232   2.416   2.068   4.145 -0.3025 -0.9191 -2.3871
  162OSM   H18T18233   2.357   2.241   4.150 -0.4520 -0.5856  1.9293
  162OSM   H18U18234   2.525   2.196   4.098 -0.4430 -0.3893 -0.2573
  162OSM    C1F18235   1.970   1.852   2.388 -0.2967  0.5510 -0.8137
  162OSM     OF18236   2.067   1.855   2.319 -0.1030  0.5028 -0.1096
  162OSM    C2F18237   1.908   1.724   2.431  0.3036 -0.8189 -0.2198
  162OSM    H2F18238   1.906   1.661   2.340 -1.5045 -0.0120 -0.7985
  162OSM    H2G18239   1.800   1.744   2.447  0.1158 -1.0513 -1.1419
  162OSM    C3F18240   1.986   1.649   2.544 -0.1682 -0.3258  0.7146
  162OSM    H3F18241   2.083   1.609   2.507  0.3525  0.0380  1.6585
  162OSM    H3G18242   1.928   1.561   2.579  0.0434  0.4463  3.1485
  162OSM    C4F18243   2.024   1.731   2.671  0.7073 -0.2139  0.1208
  162OSM    H4F18244   1.934   1.786   2.707  0.7730 -0.0798  0.0818
  162OSM    H4G18245   2.096   1.814   2.654 -0.2453  1.0353  1.8162
  162OSM    C5F18246   2.074   1.652   2.794  0.0036 -0.3017  0.6549
  162OSM    H5F18247   2.180   1.618   2.789  0.3931  0.7185  1.5464
  162OSM    H5G18248   2.008   1.564   2.807  1.2719 -1.3649  0.1885
  162OSM    C6F18249   2.062   1.734   2.930  0.3669 -0.3929  0.1791
  162OSM    H6F18250   1.960   1.777   2.929  1.9912  3.9596  1.6854
  162OSM    H6G18251   2.121   1.828   2.929 -1.4650  0.7993 -0.4311
  162OSM    C7F18252   2.082   1.653   3.050  0.2600  0.4101 -0.6630
  162OSM    H7F18253   2.177   1.599   3.030  0.3622  0.6093 -0.7144
  162OSM    H7G18254   1.993   1.587   3.064  1.7152 -1.6933 -0.7754
  162OSM    C8F18255   2.090   1.732   3.186  0.4703 -0.4085 -0.3699
  162OSM    H8F18256   2.165   1.813   3.179 -0.8370  0.7233 -1.9219
  162OSM    H8G18257   2.131   1.669   3.268  0.9510  0.2325 -0.1125
  162OSM    C9F18258   1.966   1.809   3.228  0.0618 -0.0065  0.6914
  162OSM    H9F18259   1.915   1.862   3.145 -0.3673  0.0252  0.9729
  162OSM   C10F18260   1.920   1.823   3.351 -0.2826 -0.0537  0.1658
  162OSM   H10F18261   1.826   1.880   3.358 -0.4024 -0.1524 -0.5118
  162OSM   C11F18262   1.968   1.765   3.477  0.0051  0.1490 -0.1135
  162OSM   H11F18263   1.992   1.657   3.469  2.7829  0.2927  3.4202
  162OSM   H11G18264   1.889   1.753   3.554  1.1318  0.5201  1.1433
  162OSM   C12F18265   2.090   1.837   3.531 -0.5222  0.6783 -0.0916
  162OSM   H12F18266   2.055   1.941   3.547 -0.3708  0.4886  1.6226
  162OSM   H12G18267   2.173   1.849   3.459 -0.9698  0.7492 -0.6002
  162OSM   C13F18268   2.142   1.794   3.674  0.2106 -0.5959  0.2180
  162OSM   H13F18269   2.210   1.876   3.707 -2.7122  2.6206 -1.0721
  162OSM   H13G18270   2.195   1.697   3.664  2.9107  0.8925 -0.9764
  162OSM   C14F18271   2.033   1.801   3.779 -0.3959  0.5381  0.6370
  162OSM   H14F18272   1.956   1.722   3.766 -0.8803  1.2171 -0.7439
  162OSM   H14G18273   1.969   1.892   3.785 -1.2375  0.2344 -2.3464
  162OSM   C15F18274   2.095   1.792   3.910 -0.8935  0.1438  0.2051
  162OSM   H15F18275   2.172   1.872   3.915  0.1803 -0.9414  2.9925
  162OSM   H15G18276   2.154   1.698   3.920  0.1780  0.8138  0.3623
  162OSM   C16F18277   2.010   1.823   4.037  0.0960  0.2064  0.4257
  162OSM   H16F18278   1.936   1.747   4.069 -0.0313 -0.0466 -0.4634
  162OSM   H16G18279   1.952   1.913   4.006  0.3965  0.1918 -0.1955
  162OSM   C17F18280   2.095   1.869   4.162  0.0610  0.4266 -0.6059
  162OSM   H17F18281   2.024   1.891   4.244 -1.2631  0.5000 -1.7467
  162OSM   H17G18282   2.142   1.967   4.139  0.5921  0.2865 -0.1604
  162OSM   C18F18283   2.201   1.768   4.207 -0.0311 -0.1722 -0.2003
  162OSM   H18F18284   2.145   1.683   4.250 -0.7957 -1.1740 -3.0044
  162OSM   H18G18285   2.264   1.821   4.282  0.7172  0.2699 -1.1152
  162OSM   H18H18286   2.271   1.732   4.128  0.6303 -1.1656  0.8094
  163OSM      N18287   5.896   1.434   1.949 -0.2227  0.6681 -0.4174
  163OSM    C1518288   5.795   1.332   2.006 -0.2228  0.3302 -0.6521
  163OSM   H15A18289   5.713   1.383   2.053  1.1300  1.7247  0.2884
  163OSM   H15B18290   5.847   1.281   2.087  0.3032 -0.7965 -1.6613
  163OSM   H15C18291   5.764   1.261   1.931 -3.7890 -0.8981  1.7378
  163OSM    C1418292   5.983   1.371   1.847  0.2294 -1.0106 -0.0453
  163OSM   H14A18293   6.055   1.303   1.890 -0.2368  0.1074  2.7024
  163OSM   H14B18294   6.039   1.450   1.799 -1.1399 -0.3373 -0.5743
  163OSM   H14C18295   5.928   1.325   1.766  0.4172  2.0403 -2.0514
  163OSM    C1318296   5.814   1.531   1.862  0.3656  0.1097  0.1665
  163OSM   H13A18297   5.747   1.589   1.924 -1.1101 -0.7784 -0.5640
  163OSM   H13B18298   5.756   1.474   1.791  0.1487  1.3890 -0.7143
  163OSM   H13C18299   5.872   1.603   1.805  1.2060 -0.5215  0.2108
  163OSM    C1218300   5.969   1.496   2.055  0.2920 -0.1504 -0.6346
  163OSM   H12A18301   6.031   1.573   2.012 -1.2799  0.6208 -1.6080
  163OSM   H12B18302   6.036   1.426   2.103 -2.3593 -1.2307  1.7866
  163OSM    C1118303   5.897   1.566   2.163 -0.3700  0.2012 -0.5682
  163OSM   H11A18304   5.963   1.587   2.250  0.0294  0.2329 -0.8735
  163OSM   H11B18305   5.808   1.512   2.200  1.0004 -1.2167  0.7865
  163OSM      P18306   5.944   1.818   2.100  0.5612 -0.0475 -0.0699
  163OSM    O1318307   6.064   1.787   2.017  0.6378  0.4625  0.2944
  163OSM    O1418308   5.862   1.934   2.054 -0.1393 -0.1856  0.3455
  163OSM    O1118309   5.980   1.836   2.250  0.0938  0.4638 -0.2271
  163OSM    O1218310   5.852   1.691   2.109  0.1712 -0.1732 -0.8316
  163OSM    C1S18311   5.893   1.883   2.358 -0.0695 -0.0519 -0.3555
  163OSM    H1S18312   5.786   1.882   2.328  0.3177  0.2632 -1.8528
  163OSM    H1T18313   5.919   1.989   2.377 -1.4402  1.1595 -4.3109
  163OSM     NF18314   5.820   1.843   2.586 -0.0276  0.4281  0.6748
  163OSM    HNF18315   5.857   1.900   2.659  1.2301  1.7746 -0.9191
  163OSM    C2S18316   5.916   1.805   2.489  0.2882 -0.3363  0.5425
  163OSM    H2S18317   5.911   1.695   2.471 -5.2984 -0.2345 -0.5444
  163OSM    C3S18318   6.063   1.826   2.540 -0.6750 -0.0327  0.2896
  163OSM    H3S18319   6.071   1.935   2.564 -0.8202 -0.5807  3.1360
  163OSM     O318320   6.167   1.807   2.443  0.2426 -0.4459  0.0764
  163OSM    HO318321   6.128   1.825   2.357  1.9531  3.9298 -0.0753
  163OSM    C4S18322   6.104   1.748   2.662 -0.6607  0.2290 -0.8383
  163OSM    H4S18323   6.134   1.643   2.648  1.4867  0.8363 -1.1008
  163OSM    C5S18324   6.125   1.795   2.781 -0.4263 -0.7473 -0.8322
  163OSM    H5S18325   6.116   1.903   2.796 -0.5070 -0.5978 -1.8614
  163OSM    C6S18326   6.181   1.715   2.898  0.1170 -0.6369  0.2654
  163OSM    H6S18327   6.247   1.634   2.862  2.4484  0.4828  1.7554
  163OSM    H6T18328   6.093   1.666   2.945  0.7168 -2.6493 -0.6088
  163OSM    C7S18329   6.247   1.793   3.006 -0.3081 -0.6376 -0.9729
  163OSM    H7S18330   6.329   1.849   2.957 -1.4987  0.0509 -2.2507
  163OSM    H7T18331   6.278   1.714   3.077  1.0117 -1.7143 -2.6600
  163OSM    C8S18332   6.147   1.886   3.086 -0.3624 -0.4240  0.4069
  163OSM    H8S18333   6.074   1.827   3.146 -2.0540  0.3681 -0.8024
  163OSM    H8T18334   6.074   1.943   3.024 -0.8328  2.1994  3.1006
  163OSM    C9S18335   6.216   1.984   3.188 -0.3302 -0.1670  0.2116
  163OSM    H9S18336   6.257   1.927   3.274  1.8634 -0.8641 -1.2055
  163OSM    H9T18337   6.137   2.046   3.236  0.0753 -0.6969  1.6036
  163OSM   C10S18338   6.322   2.078   3.120 -0.1987  0.7358  0.7608
  163OSM   H10S18339   6.282   2.120   3.026 -0.6736  0.3393  0.7841
  163OSM   H10T18340   6.408   2.017   3.084 -0.8394 -0.0501  0.5395
  163OSM   C11S18341   6.357   2.198   3.209 -0.1205  0.3140 -0.0560
  163OSM   H11S18342   6.287   2.223   3.292  2.5144  0.9954  2.0777
  163OSM   H11T18343   6.361   2.290   3.147 -1.0672  1.2288  1.1666
  163OSM   C12S18344   6.489   2.170   3.289 -0.2606  1.0133  0.0505
  163OSM   H12S18345   6.528   2.271   3.316  0.0408  0.7602  0.5811
  163OSM   H12T18346   6.560   2.107   3.231 -0.1432 -0.2602  1.5173
  163OSM   C13S18347   6.454   2.092   3.423  0.2447 -0.3857  0.2629
  163OSM   H13S18348   6.536   2.017   3.429  2.8997  1.8801 -3.3873
  163OSM   H13T18349   6.353   2.047   3.418  0.3754 -0.6642  0.1142
  163OSM   C14S18350   6.451   2.176   3.555  0.3707 -0.8633  0.3460
  163OSM   H14S18351   6.553   2.218   3.568  0.4741 -0.1492 -2.2081
  163OSM   H14T18352   6.438   2.119   3.650 -1.0170 -1.7923 -0.3605
  163OSM   C15S18353   6.347   2.286   3.551 -0.3237  0.1990  0.6920
  163OSM   H15S18354   6.246   2.245   3.529  0.5147 -0.8800 -1.5056
  163OSM   H15T18355   6.372   2.355   3.468 -1.5779  1.5764  1.4227
  163OSM   C16S18356   6.339   2.376   3.675  0.4279  0.6888  0.8227
  163OSM   H16S18357   6.249   2.440   3.669  0.9163  1.3119 -0.0776
  163OSM   H16T18358   6.428   2.442   3.685  1.1214  0.1158 -1.2039
  163OSM   C17S18359   6.340   2.299   3.811 -0.6155 -0.2063  0.2550
  163OSM   H17S18360   6.436   2.243   3.823 -0.7522 -0.3101  0.8681
  163OSM   H17T18361   6.255   2.227   3.802  0.9503 -1.8998 -3.0411
  163OSM   C18S18362   6.307   2.377   3.931  0.3898  0.3633  0.1693
  163OSM   H18S18363   6.212   2.427   3.903 -0.3017 -0.7949  0.3863
  163OSM   H18T18364   6.385   2.451   3.958  1.4569 -1.0530  1.1379
  163OSM   H18U18365   6.291   2.311   4.019  0.9959  2.6429  2.0638
  163OSM    C1F18366   5.692   1.814   2.573 -0.4590  0.1127  0.2151
  163OSM     OF18367   5.662   1.713   2.510 -0.0129  0.3606 -0.0023
  163OSM    C2F18368   5.596   1.902   2.643  0.4921  0.8898  0.1383
  163OSM    H2F18369   5.506   1.905   2.578  0.5706 -0.5691 -0.0609
  163OSM    H2G18370   5.637   2.005   2.655  0.3051  0.7242  2.7839
  163OSM    C3F18371   5.546   1.845   2.775  0.2305 -0.4482 -0.0656
  163OSM    H3F18372   5.636   1.850   2.840  0.0898 -2.4962  0.3693
  163OSM    H3G18373   5.510   1.740   2.761 -0.4895 -0.2999  0.5706
  163OSM    C4F18374   5.433   1.928   2.844 -0.4940  0.0187  0.0362
  163OSM    H4F18375   5.381   1.863   2.917  0.2138 -1.7419 -0.9649
  163OSM    H4G18376   5.361   1.975   2.773 -0.7543  1.0428  0.9410
  163OSM    C5F18377   5.495   2.035   2.935 -0.1188  0.0576 -0.2958
  163OSM    H5F18378   5.529   2.113   2.864  0.8557  0.0371  0.1405
  163OSM    H5G18379   5.567   1.979   2.997  2.3108  1.3699 -1.7840
  163OSM    C6F18380   5.401   2.110   3.028 -0.3595  0.3533  0.0160
  163OSM    H6F18381   5.372   2.045   3.114 -0.8946  0.7739  0.1592
  163OSM    H6G18382   5.321   2.155   2.966  0.2434  0.9060 -0.3698
  163OSM    C7F18383   5.465   2.240   3.081 -0.3518  0.3199 -0.1427
  163OSM    H7F18384   5.499   2.309   3.000 -0.6848  0.9446  0.2409
  163OSM    H7G18385   5.559   2.200   3.126 -1.7270 -1.2493  1.4584
  163OSM    C8F18386   5.385   2.300   3.189 -0.3727 -0.6630 -0.1251
  163OSM    H8F18387   5.379   2.234   3.278  0.1449  0.2308  0.5895
  163OSM    H8G18388   5.282   2.307   3.148 -0.4014  1.2963  0.1580
  163OSM    C9F18389   5.426   2.444   3.214 -0.3679 -0.3014 -0.3380
  163OSM    H9F18390   5.427   2.498   3.118 -0.9006 -0.7532 -0.6009
  163OSM   C10F18391   5.491   2.491   3.319 -0.8638  0.2569 -0.3504
  163OSM   H10F18392   5.531   2.592   3.332  1.4594 -0.8467  1.8420
  163OSM   C11F18393   5.515   2.403   3.441 -0.4550  0.1293  0.8647
  163OSM   H11F18394   5.603   2.433   3.502 -0.8687 -0.1497  1.6085
  163OSM   H11G18395   5.536   2.295   3.421  0.8576 -0.2113  3.6808
  163OSM   C12F18396   5.394   2.389   3.544 -0.8234 -0.0633  0.2270
  163OSM   H12F18397   5.442   2.349   3.635 -0.0590 -1.0200 -0.5676
  163OSM   H12G18398   5.323   2.311   3.509 -0.9536  0.2275 -0.1750
  163OSM   C13F18399   5.320   2.512   3.592  0.2984 -0.0496  1.1718
  163OSM   H13F18400   5.236   2.529   3.521  0.2900  0.4468  1.2975
  163OSM   H13G18401   5.396   2.592   3.580  1.7897 -1.6151 -0.2705
  163OSM   C14F18402   5.263   2.508   3.730  0.1284 -0.0369 -0.0369
  163OSM   H14F18403   5.323   2.461   3.811 -0.2973  0.5425  0.6193
  163OSM   H14G18404   5.178   2.438   3.716  0.9321 -0.8444 -1.0211
  163OSM   C15F18405   5.217   2.650   3.762 -0.0410 -0.3489 -0.3738
  163OSM   H15F18406   5.146   2.679   3.681 -2.4869 -0.1485  1.7479
  163OSM   H15G18407   5.297   2.726   3.742 -1.5020  1.8732  1.6815
  163OSM   C16F18408   5.146   2.663   3.896 -0.0068  0.8308 -0.0654
  163OSM   H16F18409   5.232   2.682   3.963  1.1440 -0.6009 -1.0880
  163OSM   H16G18410   5.094   2.571   3.929 -2.0777  0.9212 -2.7414
  163OSM   C17F18411   5.047   2.782   3.909  0.6450 -0.3330 -0.0335
  163OSM   H17F18412   4.959   2.766   3.843 -0.6826  0.6763  1.4290
  163OSM   H17G18413   5.087   2.878   3.870  2.7175 -1.4957 -0.9607
  163OSM   C18F18414   5.007   2.802   4.057 -0.1732  0.5429  0.7982
  163OSM   H18F18415   4.949   2.896   4.065 -0.3267  0.6724 -1.3717
  163OSM   H18G18416   5.093   2.810   4.128 -0.4532  2.9240  0.9701
  163OSM   H18H18417   4.943   2.721   4.098  0.1530 -0.2549 -0.2533
  164OSM      N18418   2.509   6.424   2.164  0.5098  0.5085 -0.0356
  164OSM    C1518419   2.458   6.294   2.105  0.1250  0.1065 -0.9205
  164OSM   H15A18420   2.437   6.303   2.000  2.4744  1.1843 -1.3514
  164OSM   H15B18421   2.366   6.269   2.156  1.0981  1.8260  1.9242
  164OSM   H15C18422   2.524   6.209   2.116 -0.3980 -0.1844  0.1499
  164OSM    C1418423   2.629   6.469   2.076 -0.1520 -0.7935 -0.5653
  164OSM   H14A18424   2.676   6.564   2.099 -1.0105 -0.7743  1.2693
  164OSM   H14B18425   2.598   6.483   1.973 -0.1978 -0.0672 -0.4626
  164OSM   H14C18426   2.704   6.393   2.090 -0.6305 -1.2162 -0.2714
  164OSM    C1318427   2.407   6.524   2.165 -0.0458  0.0300  0.3726
  164OSM   H13A18428   2.390   6.560   2.064 -0.9166 -1.5816 -0.0853
  164OSM   H13B18429   2.453   6.609   2.213 -0.5111 -0.3503  1.5111
  164OSM   H13C18430   2.319   6.486   2.215  1.2690  1.3994  4.0522
  164OSM    C1218431   2.559   6.378   2.302  0.7642  0.4561 -0.2480
  164OSM   H12A18432   2.640   6.309   2.287  2.3752  1.4801  2.8406
  164OSM   H12B18433   2.487   6.311   2.348  3.6807 -1.9878  1.0746
  164OSM    C1118434   2.620   6.489   2.396  0.2936  0.3359 -0.0957
  164OSM   H11A18435   2.663   6.434   2.483  0.4885 -0.7474 -0.8517
  164OSM   H11B18436   2.534   6.549   2.434 -2.3097 -1.2206 -3.0370
  164OSM      P18437   2.742   6.709   2.375 -0.2151  0.3971 -0.3616
  164OSM    O1318438   2.848   6.761   2.290 -0.1361  0.1179  0.0405
  164OSM    O1418439   2.602   6.767   2.362 -0.7150 -0.1592 -0.2608
  164OSM    O1118440   2.778   6.709   2.527  0.0214 -0.1098 -0.3021
  164OSM    O1218441   2.721   6.559   2.333  0.3877  0.0054 -0.7881
  164OSM    C1S18442   2.790   6.832   2.605  0.2352 -0.0752 -0.4575
  164OSM    H1S18443   2.698   6.890   2.582  0.7098  0.1304 -1.9847
  164OSM    H1T18444   2.874   6.896   2.569  0.1139 -0.7095 -1.9679
  164OSM     NF18445   2.838   6.937   2.829  1.0016 -0.2037 -0.3350
  164OSM    HNF18446   2.931   6.945   2.865  0.1476  0.0345  1.9310
  164OSM    C2S18447   2.809   6.813   2.762 -0.1752 -0.1376  0.0893
  164OSM    H2S18448   2.715   6.774   2.807  0.0341 -0.8656 -0.0952
  164OSM    C3S18449   2.914   6.695   2.787 -0.3654  0.4773  0.4005
  164OSM    H3S18450   3.000   6.727   2.723  0.2201 -1.3285  0.2395
  164OSM     O318451   2.874   6.571   2.728 -0.0729 -0.9264 -0.1209
  164OSM    HO318452   2.809   6.597   2.663  0.7993  0.1824 -0.5919
  164OSM    C4S18453   2.941   6.679   2.939  0.0787  0.4370  1.7613
  164OSM    H4S18454   3.022   6.741   2.980  0.0500  1.1748  0.7257
  164OSM    C5S18455   2.878   6.594   3.017 -0.3648  0.4715  0.2529
  164OSM    H5S18456   2.811   6.517   2.977  0.5977 -0.8452  1.0636
  164OSM    C6S18457   2.898   6.571   3.166 -0.1540  0.5782 -0.1646
  164OSM    H6S18458   2.956   6.477   3.177  0.4990  0.8879 -0.8624
  164OSM    H6T18459   2.805   6.558   3.226  1.8711  2.0284  3.6921
  164OSM    C7S18460   2.967   6.696   3.245 -0.0851 -0.1079  0.0886
  164OSM    H7S18461   2.943   6.799   3.209 -0.1783 -0.1791 -0.0508
  164OSM    H7T18462   3.077   6.683   3.242  0.0841  1.3521 -1.2990
  164OSM    C8S18463   2.939   6.675   3.400  0.4086  0.4311  0.1001
  164OSM    H8S18464   2.960   6.569   3.425  0.8177  0.5326  0.2039
  164OSM    H8T18465   2.831   6.695   3.410 -0.1236 -2.0285 -0.1070
  164OSM    C9S18466   3.015   6.774   3.487  1.3157  0.7279 -0.1724
  164OSM    H9S18467   2.984   6.875   3.450  0.3704  0.8877  0.9929
  164OSM    H9T18468   3.124   6.757   3.484  0.9906 -1.6317 -0.3933
  164OSM   C10S18469   2.972   6.770   3.635  0.4140 -0.5836 -0.0030
  164OSM   H10S18470   2.865   6.796   3.649  1.0212  2.9347 -0.9813
  164OSM   H10T18471   3.022   6.862   3.671  0.3772 -0.0249 -1.3129
  164OSM   C11S18472   3.005   6.636   3.709 -0.0747 -0.4036 -0.3932
  164OSM   H11S18473   3.110   6.607   3.685  0.2642  1.4381 -1.3273
  164OSM   H11T18474   2.931   6.568   3.661 -0.2272 -0.7068  0.2681
  164OSM   C12S18475   2.976   6.631   3.858  0.2072  0.5006 -0.5031
  164OSM   H12S18476   3.044   6.698   3.915  1.8806 -1.3381 -0.2332
  164OSM   H12T18477   3.003   6.534   3.906 -0.9982  0.4116  0.0309
  164OSM   C13S18478   2.835   6.667   3.891  0.2133 -0.3398  0.5903
  164OSM   H13S18479   2.775   6.607   3.818 -1.2263  1.7417 -0.0275
  164OSM   H13T18480   2.819   6.777   3.886 -3.5368 -0.7401  0.8427
  164OSM   C14S18481   2.819   6.624   4.040 -0.1261  0.0786  0.2360
  164OSM   H14S18482   2.894   6.669   4.108 -0.0733 -2.2748  1.8759
  164OSM   H14T18483   2.839   6.515   4.037 -1.5657 -0.1914 -0.5649
  164OSM   C15S18484   2.676   6.642   4.093  0.2624  0.3612  0.1113
  164OSM   H15S18485   2.676   6.567   4.176  0.8058  0.4381  0.1825
  164OSM   H15T18486   2.599   6.600   4.025  0.6676 -1.0385  0.4834
  164OSM   C16S18487   2.653   6.781   4.143  0.0278 -0.2261  0.3625
  164OSM   H16S18488   2.691   6.847   4.062  0.5871 -0.3147  0.5462
  164OSM   H16T18489   2.727   6.800   4.225 -0.3946  1.4137  0.3987
  164OSM   C17S18490   2.502   6.800   4.158  0.6438  0.1249  0.1413
  164OSM   H17S18491   2.445   6.741   4.083  0.0521 -1.0850  1.4840
  164OSM   H17T18492   2.479   6.906   4.133 -2.5712 -0.0213  1.9769
  164OSM   C18S18493   2.439   6.776   4.297 -0.0043  0.2448  0.1550
  164OSM   H18S18494   2.502   6.831   4.371 -1.6764  0.6645  1.3344
  164OSM   H18T18495   2.432   6.671   4.333  1.6402  0.4098  1.1069
  164OSM   H18U18496   2.337   6.816   4.309 -1.0188 -2.0239 -0.3466
  164OSM    C1F18497   2.743   7.037   2.838 -0.1320 -0.3891 -0.0021
  164OSM     OF18498   2.631   7.026   2.787  0.0719  0.0074  0.0419
  164OSM    C2F18499   2.786   7.167   2.901 -0.5020  0.3339 -1.1693
  164OSM    H2F18500   2.788   7.242   2.819  1.6171  0.9131 -0.6368
  164OSM    H2G18501   2.891   7.160   2.936 -0.7274 -3.0781 -0.7383
  164OSM    C3F18502   2.696   7.198   3.023  0.2356 -0.3940  0.2625
  164OSM    H3F18503   2.725   7.138   3.112 -0.1209  0.8029  1.2145
  164OSM    H3G18504   2.588   7.183   3.004  0.1499  1.5596 -1.0189
  164OSM    C4F18505   2.694   7.345   3.072  0.2013  0.0401  0.2761
  164OSM    H4F18506   2.641   7.410   2.998  0.0889 -0.3515  0.0120
  164OSM    H4G18507   2.801   7.374   3.072 -0.2669  2.1798 -2.3525
  164OSM    C5F18508   2.632   7.366   3.218  0.0763 -0.3285  0.1000
  164OSM    H5F18509   2.659   7.280   3.283  2.2157  0.4538  0.3346
  164OSM    H5G18510   2.523   7.361   3.196  0.7298 -1.9029 -3.7771
  164OSM    C6F18511   2.661   7.495   3.291  0.1502 -0.1709  0.2536
  164OSM    H6F18512   2.595   7.567   3.238 -0.1585 -0.5980  0.0600
  164OSM    H6G18513   2.765   7.533   3.281  0.0585 -0.4964 -3.2432
  164OSM    C7F18514   2.622   7.493   3.440 -0.2549  0.1656 -0.4743
  164OSM    H7F18515   2.670   7.402   3.481  2.0884  1.7669  0.5574
  164OSM    H7G18516   2.513   7.491   3.459 -0.5535  0.8961 -1.9331
  164OSM    C8F18517   2.665   7.621   3.525  0.6676 -0.3336 -0.5531
  164OSM    H8F18518   2.622   7.708   3.471  0.2032 -0.4617 -0.3937
  164OSM    H8G18519   2.776   7.630   3.521  0.5333  1.7074 -0.8759
  164OSM    C9F18520   2.609   7.615   3.666 -0.4571  0.3173  0.1917
  164OSM    H9F18521   2.515   7.671   3.680  0.0947  1.3144  0.0450
  164OSM   C10F18522   2.668   7.550   3.768  0.2837  0.7116 -0.2146
  164OSM   H10F18523   2.622   7.558   3.868  0.5069  1.4827 -0.1647
  164OSM   C11F18524   2.797   7.468   3.765  0.6773 -0.5961 -0.0182
  164OSM   H11F18525   2.835   7.452   3.662  1.9086  1.4405  0.0623
  164OSM   H11G18526   2.766   7.366   3.795 -1.7264 -0.4564 -1.7507
  164OSM   C12F18527   2.916   7.511   3.856 -0.1826  0.1469 -0.6810
  164OSM   H12F18528   2.966   7.605   3.824  1.7811 -0.1916  1.2331
  164OSM   H12G18529   2.998   7.437   3.865  1.6626  1.8025 -2.7062
  164OSM   C13F18530   2.864   7.554   3.997  0.6716 -0.5505 -0.0677
  164OSM   H13F18531   2.818   7.465   4.044  0.5641 -0.6636 -0.3841
  164OSM   H13G18532   2.790   7.635   3.979  1.6994  0.2375 -0.8718
  164OSM   C14F18533   2.970   7.606   4.096 -0.0481 -0.2997  0.3552
  164OSM   H14F18534   3.026   7.684   4.041  0.8429 -1.7582 -0.8847
  164OSM   H14G18535   3.045   7.526   4.118  0.0348 -0.1427  0.6521
  164OSM   C15F18536   2.905   7.651   4.224 -0.6967 -0.8887  0.3258
  164OSM   H15F18537   2.864   7.559   4.271 -0.9277  0.2355  2.4829
  164OSM   H15G18538   2.820   7.718   4.197  0.7597  1.3038  0.9684
  164OSM   C16F18539   3.004   7.723   4.328  0.0812  0.5939  0.3926
  164OSM   H16F18540   3.061   7.811   4.293  1.5333 -0.3881  0.1788
  164OSM   H16G18541   3.075   7.646   4.366 -1.0469 -0.9293 -0.4564
  164OSM   C17F18542   2.913   7.754   4.449  0.4885  0.3126 -0.3681
  164OSM   H17F18543   2.883   7.663   4.505  0.8857 -0.2142 -0.9898
  164OSM   H17G18544   2.824   7.813   4.419  0.2466  0.2959  0.3175
  164OSM   C18F18545   2.991   7.838   4.554  0.2007  0.2999 -0.8297
  164OSM   H18F18546   3.004   7.943   4.519 -1.7206  0.2316 -1.8727
  164OSM   H18G18547   3.092   7.802   4.584 -0.7023 -0.6944  1.2009
  164OSM   H18H18548   2.929   7.852   4.645  2.4476 -0.2065  0.8727
  165SAPS     N18549   6.486   4.641   6.735 -0.2076 -0.5787 -0.8874
  165SAPS   HN118550   6.501   4.655   6.633 -0.1384  0.6682 -0.7216
  165SAPS   HN218551   6.557   4.700   6.783 -0.8107  1.1512 -2.0072
  165SAPS   HN318552   6.506   4.544   6.765 -2.8633 -0.9490 -0.0880
  165SAPS   C1218553   6.350   4.689   6.758 -0.6247  0.1829  0.4936
  165SAPS  H12A18554   6.296   4.610   6.708  0.8904  0.3477 -1.5108
  165SAPS   C1318555   6.310   4.692   6.907 -0.0248 -0.0142 -0.4117
  165SAPS  O13A18556   6.394   4.660   6.994 -0.2985 -0.5329  0.5083
  165SAPS  O13B18557   6.188   4.701   6.936  0.9444  0.3353 -0.4595
  165SAPS   C1118558   6.318   4.824   6.688  0.2624  0.7223  0.1924
  165SAPS  H11A18559   6.213   4.846   6.717 -0.8947 -0.8182 -2.4074
  165SAPS  H11B18560   6.322   4.808   6.578 -1.0121 -0.7339  0.3201
  165SAPS     P18561   6.348   5.066   6.782 -0.5514  0.0726  0.0188
  165SAPS   O1318562   6.205   5.068   6.804  0.6024 -0.7032  0.0873
  165SAPS   O1418563   6.443   5.110   6.886  0.2328  0.0665  0.0614
  165SAPS   O1218564   6.401   4.921   6.733 -0.1131  0.4536 -0.4901
  165SAPS   O1118565   6.379   5.136   6.646 -0.0801  0.0137  0.2912
  165SAPS    C118566   6.296   5.225   6.571 -0.9155 -0.6072  0.5679
  165SAPS    HA18567   6.232   5.291   6.633 -0.5095  2.8622 -2.3721
  165SAPS    HB18568   6.369   5.299   6.530  0.7320 -1.0723  2.5012
  165SAPS    C218569   6.217   5.148   6.457  0.4733  0.3684  0.7130
  165SAPS    HS18570   6.150   5.070   6.499 -0.5485  0.4393 -0.6961
  165SAPS   O2118571   6.313   5.096   6.350 -0.0328  0.6745  0.1558
  165SAPS   C2118572   6.284   4.976   6.312 -0.2328 -0.1234  1.1165
  165SAPS   O2218573   6.176   4.918   6.335 -0.9019 -0.3504  0.4310
  165SAPS   C2218574   6.398   4.909   6.224  0.0513 -0.3430 -0.1288
  165SAPS   H2R18575   6.471   4.989   6.198 -0.9776  1.1875  1.4396
  165SAPS   H2S18576   6.452   4.831   6.282 -0.1288  0.5291  1.2475
  165SAPS    C318577   6.125   5.248   6.383  0.4230  0.3030  0.1626
  165SAPS    HX18578   6.188   5.338   6.363  1.3973 -0.1473  1.1215
  165SAPS    HY18579   6.042   5.280   6.449  1.0386  0.7573  0.7363
  165SAPS   O3118580   6.077   5.218   6.252 -0.1972 -0.2023  0.3478
  165SAPS   C3118581   5.974   5.131   6.256 -0.3269  0.0925  0.2171
  165SAPS   O3218582   5.917   5.095   6.357 -0.0237 -0.3706 -0.3388
  165SAPS   C3218583   5.926   5.091   6.110 -0.2377  0.2553  0.3229
  165SAPS   H2X18584   6.013   5.055   6.051  0.9305  0.2482  1.9688
  165SAPS   H2Y18585   5.877   5.177   6.061 -0.5019 -1.3371 -2.3764
  165SAPS   C2318586   6.348   4.862   6.086  0.6037  0.2510 -0.4800
  165SAPS   H3R18587   6.415   4.909   6.011  2.3352 -1.1033  0.1543
  165SAPS   H3S18588   6.245   4.897   6.063 -0.5065 -1.6770  1.2578
  165SAPS   C2418589   6.356   4.712   6.064 -0.4542  0.1056 -0.4132
  165SAPS   H4R18590   6.464   4.687   6.057 -0.2047 -0.4286  3.3628
  165SAPS   H4S18591   6.316   4.689   5.962 -0.9920  0.6796 -0.3395
  165SAPS   C2518592   6.277   4.631   6.164 -0.4326 -0.7370 -0.2596
  165SAPS   H5R18593   6.315   4.653   6.265  0.2602  1.1399 -0.8893
  165SAPS   C2618594   6.169   4.558   6.143 -0.1994  0.0235 -0.1073
  165SAPS   H6R18595   6.119   4.512   6.230  1.8668 -3.5501 -0.5903
  165SAPS   C2718596   6.102   4.536   6.010  0.4625 -1.0117 -0.1281
  165SAPS   H7R18597   6.055   4.435   6.009  1.2817 -1.4604  1.6308
  165SAPS   H7S18598   6.172   4.543   5.924 -1.0968  0.5113 -1.3275
  165SAPS   C2818599   5.995   4.648   5.997 -0.2213  0.2929 -0.1250
  165SAPS   H8R18600   5.989   4.719   6.081  0.6908  1.1452 -0.7526
  165SAPS   C2918601   5.934   4.691   5.878  0.1157  0.4792  0.1894
  165SAPS   H9R18602   5.851   4.762   5.892 -1.1335 -0.6514 -1.1735
  165SAPS  C21018603   5.946   4.629   5.742 -0.2301  0.0876 -1.3321
  165SAPS  H10R18604   6.052   4.633   5.708  0.6922 -0.8253  1.2427
  165SAPS  H10S18605   5.877   4.684   5.674 -2.1328  1.3959  1.4623
  165SAPS  C21118606   5.901   4.488   5.741  0.7349 -0.0613  0.2841
  165SAPS  H11R18607   5.860   4.456   5.838  1.6459 -1.0047  0.3811
  165SAPS  C21218608   5.917   4.406   5.633  0.2100 -0.1891 -0.3078
  165SAPS  H12R18609   5.870   4.307   5.645 -1.7320  0.7765  0.5221
  165SAPS  C21318610   5.960   4.445   5.492  0.0537 -0.2624  0.2151
  165SAPS  H13R18611   5.946   4.555   5.497 -0.8857 -0.3419 -0.5629
  165SAPS  H13S18612   5.891   4.411   5.413  0.6174 -1.1140  0.0810
  165SAPS  C21418613   6.112   4.409   5.486 -0.2867 -0.6350  0.3922
  165SAPS  H14R18614   6.181   4.465   5.551 -0.8038 -2.3126  2.4878
  165SAPS  C21518615   6.173   4.319   5.410 -0.5637  0.5390 -0.4155
  165SAPS  H15R18616   6.281   4.299   5.419 -0.9691 -1.0965  1.3858
  165SAPS  C21618617   6.111   4.226   5.314 -0.0692  0.4496 -0.4087
  165SAPS  H16R18618   6.007   4.247   5.282  0.1861  0.1868 -1.4433
  165SAPS  H16S18619   6.112   4.120   5.347 -0.4082  1.1606  2.1172
  165SAPS  C21718620   6.199   4.222   5.188  0.5886 -0.5822 -0.4212
  165SAPS  H17R18621   6.308   4.212   5.205  1.5404  4.1364 -2.3552
  165SAPS  H17S18622   6.185   4.324   5.147  1.2794 -0.2349  0.1917
  165SAPS  C21818623   6.149   4.111   5.092 -0.2956 -0.0071 -0.2882
  165SAPS  H18R18624   6.039   4.124   5.080 -1.0415 -2.1245  3.0336
  165SAPS  H18S18625   6.171   4.009   5.129 -2.5703 -2.1044 -4.0692
  165SAPS  C21918626   6.228   4.123   4.957 -0.1374  0.7219 -0.7402
  165SAPS  H19R18627   6.200   4.032   4.900 -0.3566  0.4843 -0.2571
  165SAPS  H19S18628   6.336   4.120   4.981 -0.2070 -0.0250 -0.4955
  165SAPS  C22018629   6.196   4.251   4.878 -0.6282 -0.1854 -0.0707
  165SAPS  H20R18630   6.255   4.250   4.783  0.7130  0.7968  0.7087
  165SAPS  H20S18631   6.216   4.344   4.936 -1.4579 -0.1087  0.1020
  165SAPS  H20T18632   6.086   4.251   4.862 -0.5197 -0.4767 -0.9012
  165SAPS   C3318633   5.832   4.973   6.115  0.4784  0.3369  0.1303
  165SAPS   H3X18634   5.870   4.883   6.166 -1.2145  0.3265  1.4725
  165SAPS   H3Y18635   5.815   4.943   6.009  0.0084 -1.1527  0.6174
  165SAPS   C3418636   5.692   5.004   6.167  0.2317  0.3444 -0.0194
  165SAPS   H4X18637   5.650   5.072   6.090 -2.3028 -1.6041 -0.4948
  165SAPS   H4Y18638   5.684   5.067   6.258  0.3901 -0.0246  0.2523
  165SAPS   C3518639   5.588   4.886   6.158  1.0106  0.4526 -0.1621
  165SAPS   H5X18640   5.501   4.893   6.226  1.0240 -1.0556  0.0583
  165SAPS   H5Y18641   5.651   4.805   6.201 -0.8737 -1.4528 -0.8290
  165SAPS   C3618642   5.545   4.855   6.016 -0.1208  0.6709 -0.1948
  165SAPS   H6X18643   5.629   4.881   5.948  1.8785 -1.5634  1.2280
  165SAPS   H6Y18644   5.451   4.906   5.987 -0.5396  0.4738  0.7596
  165SAPS   C3718645   5.516   4.709   5.999  0.3495  0.3582 -0.7350
  165SAPS   H7X18646   5.416   4.683   6.040 -0.6030  1.4831 -2.2406
  165SAPS   H7Y18647   5.597   4.643   6.035  0.7305  1.0991 -0.2134
  165SAPS   C3818648   5.503   4.684   5.843  0.1168  0.7129 -0.2322
  165SAPS   H8X18649   5.596   4.718   5.793  0.2309 -0.4861 -0.8768
  165SAPS   H8Y18650   5.422   4.735   5.785  0.0704 -1.4167 -2.1615
  165SAPS   C3918651   5.495   4.537   5.817 -0.5467 -0.9401  0.3313
  165SAPS   H9X18652   5.415   4.487   5.875 -1.2860  1.5266  1.5690
  165SAPS   H9Y18653   5.589   4.484   5.844  0.2427  1.0983  1.8690
  165SAPS  C31018654   5.466   4.497   5.660 -0.4512  0.3332  1.0750
  165SAPS  H10X18655   5.529   4.558   5.591  0.0900 -1.7802 -0.3763
  165SAPS  H10Y18656   5.359   4.519   5.639  0.0300  0.7853 -1.2307
  165SAPS  C31118657   5.488   4.344   5.628 -0.1189 -0.8610  0.4379
  165SAPS  H11X18658   5.407   4.305   5.693  0.8629  0.2945  2.4411
  165SAPS  H11Y18659   5.583   4.298   5.661  0.0398 -2.4262 -1.9574
  165SAPS  C31218660   5.459   4.304   5.488 -0.0859  0.2846 -0.4677
  165SAPS  H12X18661   5.373   4.356   5.440 -0.6340  0.2661  0.4728
  165SAPS  H12Y18662   5.444   4.194   5.494  0.7071  0.1189 -1.2901
  165SAPS  C31318663   5.582   4.318   5.396  0.7833 -0.1725  0.0597
  165SAPS  H13X18664   5.662   4.249   5.431 -0.8543 -1.4483  1.4102
  165SAPS  H13Y18665   5.634   4.415   5.411  0.4649 -0.1772  1.3772
  165SAPS  C31418666   5.538   4.299   5.248  0.3275  0.2651 -0.0425
  165SAPS  H14X18667   5.474   4.385   5.217 -0.6163 -0.4379 -0.1013
  165SAPS  H14Y18668   5.464   4.217   5.234 -0.4171  0.9635 -0.2838
  165SAPS  C31518669   5.652   4.279   5.151 -0.3833  0.1549 -0.2143
  165SAPS  H15X18670   5.733   4.217   5.197 -1.0605 -2.5335 -2.3574
  165SAPS  H15Y18671   5.714   4.369   5.133  2.5037 -0.7043  3.8907
  165SAPS  C31618672   5.612   4.207   5.024  0.3463 -0.6341  0.5759
  165SAPS  H16X18673   5.546   4.284   4.978 -0.1588 -0.3236  1.7796
  165SAPS  H16Y18674   5.568   4.110   5.056 -0.0477 -0.6070  0.1263
  165SAPS  C31718675   5.731   4.181   4.932  0.0579 -0.0666 -0.0768
  165SAPS  H17X18676   5.793   4.111   4.991 -1.8408 -2.9588 -1.2511
  165SAPS  H17Y18677   5.785   4.277   4.919 -0.8267  0.3233 -1.0417
  165SAPS  C31818678   5.680   4.120   4.800  0.2073 -0.6572 -0.7591
  165SAPS  H18X18679   5.626   4.023   4.805 -1.2004 -0.1746 -4.0343
  165SAPS  H18Y18680   5.765   4.096   4.733  1.2671  2.6198 -0.7580
  165SAPS  H18Z18681   5.602   4.186   4.754 -1.2005 -1.5777  0.2122
  166SAPS     N18682   5.260   5.651   6.930 -0.1363 -0.0638 -0.4594
  166SAPS   HN118683   5.160   5.621   6.924  0.3931 -2.9765  2.5078
  166SAPS   HN218684   5.321   5.567   6.929 -0.9696 -0.7265  0.7443
  166SAPS   HN318685   5.267   5.693   7.025 -0.8279  2.4316 -1.4318
  166SAPS   C1218686   5.298   5.755   6.826 -0.2844 -0.0123  0.3797
  166SAPS  H12A18687   5.244   5.844   6.854  1.5250  1.7601 -1.4707
  166SAPS   C1318688   5.450   5.785   6.832  0.3896 -0.3964 -0.5854
  166SAPS  O13A18689   5.518   5.747   6.932  0.4289  0.4034  0.4483
  166SAPS  O13B18690   5.502   5.871   6.747  0.4726 -0.9714  0.1082
  166SAPS   C1118691   5.258   5.695   6.688 -0.4821  0.7205  0.7562
  166SAPS  H11A18692   5.282   5.769   6.609 -2.3044  0.5966  0.0232
  166SAPS  H11B18693   5.147   5.702   6.695 -0.5568 -0.7880  1.3362
  166SAPS     P18694   5.258   5.492   6.525 -0.1098 -0.0495  0.0537
  166SAPS   O1318695   5.364   5.400   6.478 -0.1751  0.0885  0.2772
  166SAPS   O1418696   5.130   5.428   6.559 -0.1784  0.6384 -0.1756
  166SAPS   O1218697   5.310   5.563   6.660 -0.0025 -0.0638 -0.2530
  166SAPS   O1118698   5.234   5.606   6.416 -0.0254 -0.2429  0.3610
  166SAPS    C118699   5.352   5.652   6.347 -0.0368  0.2155 -0.7134
  166SAPS    HA18700   5.442   5.674   6.409 -0.6026  0.6662 -0.0319
  166SAPS    HB18701   5.374   5.577   6.268 -0.3884  0.5561 -1.1474
  166SAPS    C218702   5.320   5.793   6.280 -0.3131  0.3017 -0.0468
  166SAPS    HS18703   5.297   5.858   6.367  2.0708  0.6725  0.3763
  166SAPS   O2118704   5.211   5.780   6.194  0.3294  0.6588  0.1579
  166SAPS   C2118705   5.172   5.892   6.137  0.5466  0.5570  1.0238
  166SAPS   O2218706   5.211   6.004   6.150  0.2325 -0.5099 -0.2098
  166SAPS   C2218707   5.052   5.851   6.041 -0.9579 -0.6076 -0.2302
  166SAPS   H2R18708   5.078   5.745   6.020  0.6520 -0.3250  0.1898
  166SAPS   H2S18709   4.971   5.869   6.115 -0.5760 -2.2587  0.6600
  166SAPS    C318710   5.453   5.840   6.221  0.4234 -0.0303 -0.5500
  166SAPS    HX18711   5.538   5.828   6.292  0.3611 -0.4526 -0.5459
  166SAPS    HY18712   5.449   5.950   6.203  0.0936 -0.0041 -0.3287
  166SAPS   O3118713   5.476   5.779   6.089  0.1250 -0.1760 -0.8282
  166SAPS   C3118714   5.544   5.666   6.090  0.4487  0.5204 -0.1847
  166SAPS   O3218715   5.601   5.613   6.183 -0.1419 -0.2975 -0.4781
  166SAPS   C3218716   5.552   5.609   5.950  0.6948  0.2818 -0.2310
  166SAPS   H2X18717   5.451   5.569   5.931  1.6198 -1.3621 -1.9987
  166SAPS   H2Y18718   5.624   5.524   5.957  1.0241  0.4919 -0.9874
  166SAPS   C2318719   5.015   5.945   5.929  0.4802  0.0415  1.3396
  166SAPS   H3R18720   5.098   5.941   5.855  0.5675 -2.2018  1.4834
  166SAPS   H3S18721   5.004   6.051   5.961  0.8490  0.3835  0.3551
  166SAPS   C2418722   4.878   5.924   5.855  0.0684  0.4459  0.0902
  166SAPS   H4R18723   4.864   6.008   5.783  1.0440  0.3281 -0.2467
  166SAPS   H4S18724   4.794   5.929   5.927 -0.0197 -0.5611  0.0614
  166SAPS   C2518725   4.862   5.803   5.775  0.4169  1.0745 -0.0566
  166SAPS   H5R18726   4.885   5.710   5.830  1.1281  0.7226 -0.9335
  166SAPS   C2618727   4.820   5.784   5.647  0.2418 -0.1759 -0.2011
  166SAPS   H6R18728   4.817   5.678   5.616 -1.6264 -0.3721  0.4982
  166SAPS   C2718729   4.783   5.891   5.545 -1.0264 -0.1599  0.4020
  166SAPS   H7R18730   4.799   5.992   5.587 -2.3633 -0.2097  1.0679
  166SAPS   H7S18731   4.673   5.893   5.535 -1.1685  0.6693  1.9651
  166SAPS   C2818732   4.861   5.891   5.410 -0.4761  0.0326 -0.5291
  166SAPS   H8R18733   4.969   5.872   5.413  0.2083  3.2640 -0.5734
  166SAPS   C2918734   4.796   5.912   5.292  0.3479  0.2436 -0.1393
  166SAPS   H9R18735   4.842   5.908   5.192 -0.9152  1.8375 -0.8405
  166SAPS  C21018736   4.648   5.951   5.260 -0.2944  0.3641 -0.0128
  166SAPS  H10R18737   4.634   6.044   5.200 -1.8842  1.8033  2.3920
  166SAPS  H10S18738   4.596   5.976   5.355  0.0592  0.9969  0.0247
  166SAPS  C21118739   4.580   5.838   5.205 -0.3304  0.1321 -0.0137
  166SAPS  H11R18740   4.529   5.774   5.279  1.8214 -0.0389  1.4180
  166SAPS  C21218741   4.559   5.805   5.076  0.1578 -0.7431  0.5726
  166SAPS  H12R18742   4.499   5.715   5.054 -0.9618 -0.4175  2.1295
  166SAPS  C21318743   4.607   5.885   4.960  0.2318 -0.2410 -0.0098
  166SAPS  H13R18744   4.718   5.888   4.959  0.2746 -1.4331 -0.1402
  166SAPS  H13S18745   4.585   5.993   4.978  1.7448 -0.0307  0.7053
  166SAPS  C21418746   4.562   5.841   4.825  0.9189 -0.1671  0.6363
  166SAPS  H14R18747   4.461   5.800   4.812  0.9280 -0.8100  2.4203
  166SAPS  C21518748   4.639   5.833   4.714 -0.7391 -0.4280 -0.5460
  166SAPS  H15R18749   4.584   5.803   4.624 -0.0491  0.6922 -1.3690
  166SAPS  C21618750   4.782   5.886   4.702 -0.6591  0.2731 -0.5024
  166SAPS  H16R18751   4.800   5.989   4.741  1.1180  0.5656 -1.9767
  166SAPS  H16S18752   4.790   5.895   4.592 -0.5774 -1.2968 -0.6533
  166SAPS  C21718753   4.893   5.784   4.740 -0.3330 -0.3878 -0.2813
  166SAPS  H17R18754   4.881   5.682   4.697 -0.6876  0.2952 -1.8493
  166SAPS  H17S18755   4.878   5.762   4.848  2.0873 -3.3276 -0.4153
  166SAPS  C21818756   5.042   5.833   4.711  0.6142  0.3415 -0.0724
  166SAPS  H18R18757   5.120   5.771   4.760  1.2552  0.3023 -1.1206
  166SAPS  H18S18758   5.047   5.937   4.748 -4.5217  1.4970 -1.8155
  166SAPS  C21918759   5.082   5.840   4.561  0.0486 -0.3281  0.1329
  166SAPS  H19R18760   5.178   5.896   4.558 -0.0331 -0.1448  0.7136
  166SAPS  H19S18761   5.018   5.918   4.516  1.1170 -0.1962 -1.2319
  166SAPS  C22018762   5.079   5.709   4.480 -0.5847  0.1401  0.0719
  166SAPS  H20R18763   5.101   5.724   4.372 -0.6740 -0.4252 -0.0293
  166SAPS  H20S18764   4.975   5.669   4.485  0.2302 -1.9248  2.9875
  166SAPS  H20T18765   5.145   5.625   4.511 -1.2278  0.5086  2.6337
  166SAPS   C3318766   5.599   5.693   5.830  0.0808 -0.0578  0.3796
  166SAPS   H3X18767   5.709   5.710   5.839  0.1344 -0.3764  0.3425
  166SAPS   H3Y18768   5.534   5.783   5.834 -0.7455 -0.6454  0.4221
  166SAPS   C3418769   5.573   5.624   5.691 -0.3431 -0.7776  0.3543
  166SAPS   H4X18770   5.465   5.644   5.675 -0.0382  0.2979 -0.5432
  166SAPS   H4Y18771   5.590   5.516   5.705  3.2175 -0.2677  0.8911
  166SAPS   C3518772   5.647   5.700   5.584  0.3442  0.3129  0.2868
  166SAPS   H5X18773   5.758   5.700   5.595  0.6905 -0.7749 -2.2988
  166SAPS   H5Y18774   5.623   5.808   5.583 -1.3178 -0.0046  2.0657
  166SAPS   C3618775   5.616   5.649   5.439 -0.0305 -0.3420  0.3386
  166SAPS   H6X18776   5.676   5.713   5.371  0.5935  0.6890  1.7963
  166SAPS   H6Y18777   5.508   5.665   5.417  0.2378  1.0027 -0.0604
  166SAPS   C3718778   5.654   5.503   5.428 -0.0272  0.1420 -0.5753
  166SAPS   H7X18779   5.589   5.438   5.490 -0.8189  2.0226  0.6777
  166SAPS   H7Y18780   5.760   5.483   5.455 -0.8034 -0.9663  1.9739
  166SAPS   C3818781   5.632   5.448   5.284  0.5022  0.6315  0.3582
  166SAPS   H8X18782   5.717   5.467   5.214  0.5369 -0.0973  0.1965
  166SAPS   H8Y18783   5.544   5.482   5.226 -0.5667  1.9510  2.6174
  166SAPS   C3918784   5.604   5.293   5.301  0.0319 -0.2914 -0.1237
  166SAPS   H9X18785   5.508   5.277   5.354 -0.1158  1.6312  0.2626
  166SAPS   H9Y18786   5.679   5.251   5.372  0.1744 -0.6475 -0.4831
  166SAPS  C31018787   5.619   5.210   5.174 -0.0354 -0.0016 -0.5786
  166SAPS  H10X18788   5.659   5.110   5.201  1.5656  0.8788  0.4834
  166SAPS  H10Y18789   5.682   5.268   5.102  0.2875  1.8344  1.0817
  166SAPS  C31118790   5.485   5.182   5.104  0.4835  0.2103 -0.3428
  166SAPS  H11X18791   5.449   5.276   5.058  2.9351 -0.1972 -3.4507
  166SAPS  H11Y18792   5.418   5.146   5.185  2.2686 -2.2833  0.1389
  166SAPS  C31218793   5.491   5.070   4.996 -0.0302  0.2238 -0.2049
  166SAPS  H12X18794   5.436   4.978   5.023  0.9217 -0.3715 -0.2286
  166SAPS  H12Y18795   5.599   5.042   4.994 -0.3863 -1.1892 -1.4995
  166SAPS  C31318796   5.455   5.114   4.857 -0.1632  0.6101  0.0146
  166SAPS  H13X18797   5.526   5.194   4.829 -3.3803  3.2413 -1.2108
  166SAPS  H13Y18798   5.353   5.155   4.843 -0.4660 -0.7140 -2.1037
  166SAPS  C31418799   5.466   5.004   4.747 -0.0855  0.6823 -0.5733
  166SAPS  H14X18800   5.463   5.066   4.655 -0.8964  0.3460 -0.7858
  166SAPS  H14Y18801   5.376   4.939   4.734  1.0627 -0.9901 -0.4580
  166SAPS  C31518802   5.593   4.928   4.739  0.5246  0.3693 -0.2920
  166SAPS  H15X18803   5.600   4.852   4.819  3.0382  0.3079 -0.5014
  166SAPS  H15Y18804   5.666   5.009   4.763 -0.9738  1.8408 -0.5052
  166SAPS  C31618805   5.606   4.870   4.600  0.6970 -0.0040 -0.6987
  166SAPS  H16X18806   5.583   4.943   4.520  0.7683  1.4186  0.5504
  166SAPS  H16Y18807   5.539   4.781   4.597  0.7165 -0.1361  1.4710
  166SAPS  C31718808   5.752   4.816   4.583  0.4172  0.8937 -0.5253
  166SAPS  H17X18809   5.768   4.745   4.667 -2.0114 -0.9567 -1.4706
  166SAPS  H17Y18810   5.823   4.898   4.602  1.0497  0.6852 -1.8867
  166SAPS  C31818811   5.777   4.747   4.447  0.2620  0.0256 -0.4426
  166SAPS  H18X18812   5.878   4.699   4.447  0.2495 -0.0840  1.4713
  166SAPS  H18Y18813   5.775   4.822   4.366  0.0422 -1.3175 -1.7199
  166SAPS  H18Z18814   5.700   4.671   4.425 -0.5169  0.1279  1.7013
  167SAPS     N18815   2.798   5.492   6.746  0.6051  0.5670 -0.1533
  167SAPS   HN118816   2.735   5.526   6.821  0.8076  3.0261 -1.0012
  167SAPS   HN218817   2.786   5.558   6.666  2.8927  2.1173  0.6575
  167SAPS   HN318818   2.771   5.397   6.713  0.5755  1.1645 -1.9966
  167SAPS   C1218819   2.936   5.485   6.806  0.0153  0.1383  0.2655
  167SAPS  H12A18820   2.962   5.583   6.844 -0.4696  1.2994 -2.1844
  167SAPS   C1318821   2.962   5.378   6.922  0.1555 -0.3060  0.1146
  167SAPS  O13A18822   2.862   5.322   6.970  0.3841  0.0405 -0.1073
  167SAPS  O13B18823   3.078   5.357   6.954 -0.2034 -0.2619  0.1369
  167SAPS   C1118824   3.036   5.468   6.691 -0.6581 -0.0190  0.2179
  167SAPS  H11A18825   3.137   5.466   6.738 -0.7711  0.6526  0.5045
  167SAPS  H11B18826   3.020   5.550   6.618  0.1387 -2.6254 -3.1714
  167SAPS     P18827   3.088   5.255   6.534  0.0104  0.4851  0.2011
  167SAPS   O1318828   3.229   5.299   6.545 -0.2177  0.1898  0.0413
  167SAPS   O1418829   3.058   5.113   6.559  0.5445 -0.0706 -0.0041
  167SAPS   O1218830   3.002   5.350   6.622  0.4114 -0.3082 -0.2936
  167SAPS   O1118831   3.036   5.286   6.392  0.1975 -0.1826  0.0389
  167SAPS    C118832   2.915   5.239   6.336 -0.8114 -0.2529 -1.0030
  167SAPS    HA18833   2.932   5.132   6.313 -1.4916 -1.4157  3.0934
  167SAPS    HB18834   2.833   5.246   6.410 -0.1704  1.6911 -0.4165
  167SAPS    C218835   2.897   5.321   6.214  0.2756 -0.6079 -0.5091
  167SAPS    HS18836   2.794   5.288   6.186 -0.1366 -1.2931  1.5878
  167SAPS   O2118837   2.988   5.290   6.108  0.0696  0.0744 -0.4492
  167SAPS   C2118838   2.969   5.178   6.037 -0.0755 -0.1438  0.5291
  167SAPS   O2218839   2.869   5.113   6.045  0.4745  0.6707 -0.5256
  167SAPS   C2218840   3.069   5.156   5.923 -0.5026  0.6450 -0.1276
  167SAPS   H2R18841   3.169   5.131   5.963 -1.1704 -1.8300  0.1217
  167SAPS   H2S18842   3.026   5.071   5.866 -0.8247  2.1984 -2.3549
  167SAPS    C318843   2.881   5.469   6.247  0.5896 -0.5480 -0.3041
  167SAPS    HX18844   2.975   5.508   6.293 -0.5361 -0.7490  2.3658
  167SAPS    HY18845   2.807   5.472   6.329 -0.5389 -0.5054 -1.3050
  167SAPS   O3118846   2.827   5.551   6.143 -0.3675 -0.0370 -0.2376
  167SAPS   C3118847   2.915   5.589   6.054  0.3252 -0.0649  0.2162
  167SAPS   O3218848   3.036   5.567   6.072 -0.3463 -0.6357  0.4345
  167SAPS   C3218849   2.832   5.652   5.942 -1.2651 -0.4039  0.4371
  167SAPS   H2X18850   2.765   5.730   5.984 -1.2457 -0.3517  0.3715
  167SAPS   H2Y18851   2.774   5.570   5.895 -0.4809 -0.8987  0.3185
  167SAPS   C2318852   3.091   5.274   5.831  0.5256  0.1870 -0.0048
  167SAPS   H3R18853   3.159   5.254   5.746 -0.5777  0.2493 -0.9307
  167SAPS   H3S18854   3.137   5.356   5.890  1.2811 -0.9800  1.0884
  167SAPS   C2418855   2.957   5.331   5.763 -0.8021 -0.0801 -0.4089
  167SAPS   H4R18856   2.982   5.423   5.705 -1.9132  0.2221 -0.4443
  167SAPS   H4S18857   2.899   5.353   5.855  0.6104 -1.8960  0.9769
  167SAPS   C2518858   2.887   5.234   5.671 -0.5581 -0.2735  0.6059
  167SAPS   H5R18859   2.902   5.128   5.696 -1.2641 -1.1017 -2.1460
  167SAPS   C2618860   2.841   5.249   5.550 -0.2116 -0.0015  0.2705
  167SAPS   H6R18861   2.793   5.165   5.497 -1.7773  1.1396 -0.2009
  167SAPS   C2718862   2.822   5.379   5.481  0.4412  0.3615  0.4901
  167SAPS   H7R18863   2.800   5.466   5.547 -0.6965  0.3765  0.1185
  167SAPS   H7S18864   2.723   5.372   5.431  0.1991  0.5279  0.9389
  167SAPS   C2818865   2.927   5.406   5.383  0.2242  0.1299 -0.1968
  167SAPS   H8R18866   3.032   5.394   5.411  0.8827 -0.9795 -2.8366
  167SAPS   C2918867   2.914   5.437   5.256 -0.5067 -0.0694  0.4294
  167SAPS   H9R18868   3.007   5.430   5.198 -0.4731 -1.4733  0.6299
  167SAPS  C21018869   2.779   5.465   5.186 -0.4371 -0.9274 -0.1565
  167SAPS  H10R18870   2.809   5.517   5.092 -2.9892 -1.0034 -1.1054
  167SAPS  H10S18871   2.706   5.529   5.241 -2.9169 -2.0901 -1.8856
  167SAPS  C21118872   2.716   5.334   5.149 -0.7747  0.6813  0.1026
  167SAPS  H11R18873   2.728   5.245   5.212  0.2682 -0.4161 -1.5737
  167SAPS  C21218874   2.639   5.312   5.044  0.1801  0.6005  0.2795
  167SAPS  H12R18875   2.598   5.212   5.026  0.0442  0.7760 -0.4502
  167SAPS  C21318876   2.596   5.411   4.937  0.5862  0.1809  0.4527
  167SAPS  H13R18877   2.624   5.512   4.973  1.2731 -0.1624  0.9111
  167SAPS  H13S18878   2.485   5.413   4.939  0.5633  1.2780 -0.5972
  167SAPS  C21418879   2.635   5.391   4.788 -0.0546 -0.4887 -0.0120
  167SAPS  H14R18880   2.696   5.476   4.755 -1.4746  0.9550  0.9760
  167SAPS  C21518881   2.588   5.304   4.700 -0.5400 -0.4225 -0.6432
  167SAPS  H15R18882   2.616   5.310   4.594 -0.4410  3.2441 -0.5323
  167SAPS  C21618883   2.484   5.201   4.735  0.1597  0.5153  0.6973
  167SAPS  H16R18884   2.471   5.199   4.846  0.8724 -0.9908  0.7729
  167SAPS  H16S18885   2.515   5.108   4.684 -1.1755 -0.3139  1.3365
  167SAPS  C21718886   2.336   5.223   4.691  0.2133  0.0678 -0.3607
  167SAPS  H17R18887   2.297   5.323   4.721 -1.4812 -0.4873 -0.6128
  167SAPS  H17S18888   2.261   5.157   4.739 -1.6875  2.5868  0.3803
  167SAPS  C21818889   2.314   5.204   4.539  0.1655  0.2630 -0.3297
  167SAPS  H18R18890   2.384   5.274   4.489 -0.3159  1.3600  0.4845
  167SAPS  H18S18891   2.213   5.238   4.508 -0.2235  0.5379  1.1736
  167SAPS  C21918892   2.337   5.054   4.483 -0.0705 -0.2190  0.7320
  167SAPS  H19R18893   2.266   4.990   4.541 -0.0136  0.2324  1.3032
  167SAPS  H19S18894   2.438   5.015   4.509 -0.0138 -0.9198 -0.4559
  167SAPS  C22018895   2.319   5.039   4.329  0.1889  0.6088 -0.2859
  167SAPS  H20R18896   2.350   5.132   4.276  0.5748  0.8862  0.4077
  167SAPS  H20S18897   2.214   5.014   4.303  0.9252 -1.1556 -1.7591
  167SAPS  H20T18898   2.375   4.951   4.290 -0.5524  0.5486 -1.2588
  167SAPS   C3318899   2.910   5.722   5.829  0.6010 -0.7991 -0.5166
  167SAPS   H3X18900   2.992   5.651   5.804 -0.0662 -2.6304  2.0833
  167SAPS   H3Y18901   2.950   5.816   5.872  0.1729 -1.6053  1.8227
  167SAPS   C3418902   2.832   5.743   5.703  0.0592  0.1378  0.0831
  167SAPS   H4X18903   2.746   5.810   5.727  1.5140  2.1199  0.0864
  167SAPS   H4Y18904   2.778   5.654   5.666 -0.6784  0.4237  0.4528
  167SAPS   C3518905   2.924   5.807   5.600 -0.3486 -0.6698  0.2095
  167SAPS   H5X18906   3.030   5.773   5.603 -0.3848 -0.7371  0.9366
  167SAPS   H5Y18907   2.908   5.912   5.632  2.2272 -0.0741 -0.2099
  167SAPS   C3618908   2.862   5.783   5.463  0.3308  0.3558 -0.0719
  167SAPS   H6X18909   2.780   5.856   5.446  0.4550  0.5921  0.3236
  167SAPS   H6Y18910   2.812   5.685   5.453 -0.3882  0.6536  0.5552
  167SAPS   C3718911   2.963   5.788   5.349 -0.4508 -0.1760  0.6341
  167SAPS   H7X18912   3.006   5.686   5.336  0.7113  0.3725 -0.0344
  167SAPS   H7Y18913   3.053   5.849   5.375  0.7494 -0.0271 -3.1668
  167SAPS   C3818914   2.913   5.830   5.210  0.1275 -0.1206  0.4170
  167SAPS   H8X18915   2.904   5.941   5.207  0.1322 -0.1366 -0.7400
  167SAPS   H8Y18916   2.811   5.786   5.205  0.1102 -0.4283  2.4904
  167SAPS   C3918917   3.004   5.795   5.095  0.0474  0.8236 -0.8670
  167SAPS   H9X18918   3.041   5.691   5.090 -0.1275  0.4591  2.7793
  167SAPS   H9Y18919   3.099   5.851   5.104  1.0653 -0.8291 -1.0439
  167SAPS  C31018920   2.954   5.832   4.958  0.1325 -0.4361  0.0078
  167SAPS  H10X18921   2.904   5.931   4.964  0.8047 -0.1701  2.8877
  167SAPS  H10Y18922   2.871   5.766   4.926 -0.7123  0.5153  0.1993
  167SAPS  C31118923   3.050   5.826   4.844  0.6261 -0.3410  0.1965
  167SAPS  H11X18924   3.009   5.859   4.746 -1.9358 -1.1919  0.9047
  167SAPS  H11Y18925   3.078   5.720   4.824 -2.2787 -0.8509 -1.8854
  167SAPS  C31218926   3.191   5.889   4.867 -0.5942 -0.6440  0.2171
  167SAPS  H12X18927   3.241   5.838   4.951 -1.3382 -2.6878 -0.5138
  167SAPS  H12Y18928   3.186   5.999   4.885 -2.1284 -0.5806 -0.4021
  167SAPS  C31318929   3.301   5.869   4.759  0.1620  0.3844 -0.4266
  167SAPS  H13X18930   3.313   5.759   4.749  0.6840 -0.1550  3.8749
  167SAPS  H13Y18931   3.408   5.888   4.783  0.2733  2.5713 -2.2879
  167SAPS  C31418932   3.289   5.943   4.632 -0.0386  0.8517 -0.1912
  167SAPS  H14X18933   3.280   6.050   4.663 -0.9713  1.2180 -1.6540
  167SAPS  H14Y18934   3.193   5.915   4.585 -0.6806  0.6782  1.1556
  167SAPS  C31518935   3.407   5.944   4.540 -0.5691 -0.2116  0.3295
  167SAPS  H15X18936   3.488   5.985   4.604  0.1213 -0.1182 -0.5735
  167SAPS  H15Y18937   3.399   6.021   4.460 -0.0996 -2.4864 -2.0378
  167SAPS  C31618938   3.455   5.816   4.465 -0.1997 -0.2917 -0.3744
  167SAPS  H16X18939   3.405   5.732   4.517 -0.9735  0.6982  0.5263
  167SAPS  H16Y18940   3.565   5.806   4.477 -0.0276 -0.3332 -1.8948
  167SAPS  C31718941   3.423   5.816   4.317  0.4101  0.8478  0.1008
  167SAPS  H17X18942   3.323   5.861   4.302  0.3926  0.7242 -0.1730
  167SAPS  H17Y18943   3.423   5.711   4.278 -3.6983  0.3568  0.9799
  167SAPS  C31818944   3.532   5.882   4.231 -0.3365 -0.4305  0.1356
  167SAPS  H18X18945   3.504   5.893   4.124  1.0836  0.7893 -0.1509
  167SAPS  H18Y18946   3.628   5.826   4.231  0.4500  0.8616  0.8324
  167SAPS  H18Z18947   3.559   5.977   4.283 -0.5349 -1.4210  2.1532
  168SAPS     N18948   2.017   6.605   6.824 -0.2618  0.0367 -0.2634
  168SAPS   HN118949   2.070   6.691   6.847 -0.7119  0.0546  0.7671
  168SAPS   HN218950   2.051   6.560   6.737 -0.0044 -0.1124 -0.0874
  168SAPS   HN318951   1.915   6.624   6.811 -0.8249 -3.2549 -1.6798
  168SAPS   C1218952   2.042   6.507   6.936 -0.7782  0.5390  0.8774
  168SAPS  H12A18953   2.065   6.572   7.020  0.2275 -0.0302  1.0546
  168SAPS   C1318954   1.922   6.407   6.967 -0.4413 -0.8656  0.0349
  168SAPS  O13A18955   1.817   6.414   6.899 -0.1860  0.7893  0.2125
  168SAPS  O13B18956   1.954   6.304   7.036 -0.0241  0.3188 -0.1202
  168SAPS   C1118957   2.181   6.429   6.906  0.3234 -1.0012  0.0231
  168SAPS  H11A18958   2.157   6.348   6.835  0.2712  0.0561 -1.2007
  168SAPS  H11B18959   2.210   6.376   7.000  2.8336 -0.8897 -0.6107
  168SAPS     P18960   2.401   6.567   6.918 -0.0651  0.0809  0.6216
  168SAPS   O1318961   2.353   6.668   7.012  0.1008 -0.3055 -0.0479
  168SAPS   O1418962   2.488   6.456   6.965  0.1249  0.2159  0.1391
  168SAPS   O1218963   2.278   6.512   6.841 -0.3127  1.0585 -0.6997
  168SAPS   O1118964   2.469   6.636   6.792 -0.0390 -0.0440  0.1723
  168SAPS    C118965   2.531   6.761   6.783 -0.9112 -0.1045  0.7962
  168SAPS    HA18966   2.570   6.797   6.880  0.7163 -0.3381  0.2554
  168SAPS    HB18967   2.620   6.757   6.716  1.8558  1.3238  4.0784
  168SAPS    C218968   2.446   6.870   6.716 -0.6342 -0.1850 -0.4404
  168SAPS    HS18969   2.371   6.905   6.789  0.3471 -0.5530  0.7797
  168SAPS   O2118970   2.384   6.824   6.591  0.2192 -0.1708  0.3557
  168SAPS   C2118971   2.262   6.780   6.614 -0.0462 -0.8016  0.3802
  168SAPS   O2218972   2.197   6.797   6.716  0.7471 -0.6816 -0.5178
  168SAPS   C2218973   2.212   6.718   6.482  0.0891 -0.3964  0.4945
  168SAPS   H2R18974   2.302   6.708   6.417 -0.4181  0.7327 -0.4211
  168SAPS   H2S18975   2.180   6.615   6.509  1.0446 -0.9377 -0.3333
  168SAPS    C318976   2.538   6.996   6.684  0.1650  0.2708 -0.0810
  168SAPS    HX18977   2.626   6.954   6.632 -0.8445 -1.9492 -0.1065
  168SAPS    HY18978   2.573   7.031   6.784 -1.2980 -1.8075  1.2462
  168SAPS   O3118979   2.473   7.101   6.619  0.3815 -0.1997  0.0168
  168SAPS   C3118980   2.473   7.104   6.486  0.1740 -0.1671 -0.0895
  168SAPS   O3218981   2.513   7.019   6.412  0.3678  0.4441  0.3929
  168SAPS   C3218982   2.420   7.242   6.450  0.4564  0.2667 -0.1380
  168SAPS   H2X18983   2.511   7.301   6.427  1.6140 -1.0037  0.9474
  168SAPS   H2Y18984   2.362   7.277   6.538 -0.5121 -1.1372 -0.1731
  168SAPS   C2318985   2.101   6.785   6.401 -0.0172 -0.3371 -0.7437
  168SAPS   H3R18986   2.122   6.892   6.383  2.5321 -0.7490 -0.6494
  168SAPS   H3S18987   2.014   6.787   6.469  1.5744 -1.2547  1.4486
  168SAPS   C2418988   2.071   6.707   6.278 -0.4961 -0.6567 -0.2473
  168SAPS   H4R18989   2.071   6.597   6.295 -1.8563 -0.8995 -1.5737
  168SAPS   H4S18990   2.155   6.719   6.206  0.0455 -1.4833  0.2321
  168SAPS   C2518991   1.931   6.747   6.233 -0.2252  0.1729 -0.3304
  168SAPS   H5R18992   1.860   6.778   6.312  0.6072 -0.3512  0.6564
  168SAPS   C2618993   1.889   6.754   6.106 -0.3338 -0.0203 -0.3564
  168SAPS   H6R18994   1.784   6.784   6.093 -0.6500 -1.1014 -0.4400
  168SAPS   C2718995   1.970   6.706   5.986 -0.4295 -0.3558  0.0669
  168SAPS   H7R18996   2.050   6.639   6.026 -0.3183 -0.1359  0.2162
  168SAPS   H7S18997   2.017   6.791   5.933 -0.5486 -1.4597 -1.8949
  168SAPS   C2818998   1.877   6.631   5.888 -0.1679 -0.4265 -0.9877
  168SAPS   H8R18999   1.781   6.593   5.925 -0.3912  0.5179 -0.5786
  168SAPS   C2919000   1.897   6.591   5.764  0.1288  0.2890 -0.4892
  168SAPS   H9R19001   1.808   6.551   5.712  1.0279 -1.8635 -0.4612
  168SAPS  C21019002   2.021   6.620   5.685  0.1156 -0.6682 -0.1141
  168SAPS  H10R19003   2.055   6.516   5.663  1.0642 -1.2487  3.4103
  168SAPS  H10S19004   2.101   6.666   5.747  0.2785 -0.1561 -0.6958
  168SAPS  C21119005   1.987   6.693   5.561  0.1802 -0.6248  0.1224
  168SAPS  H11R19006   1.950   6.792   5.589 -0.1739 -0.4027 -1.0828
  168SAPS  C21219007   2.003   6.653   5.432 -0.4592 -0.2464 -0.2119
  168SAPS  H12R19008   1.991   6.729   5.354  2.0306  1.2738  0.7604
  168SAPS  C21319009   2.066   6.520   5.395  0.3202  0.5906 -0.3493
  168SAPS  H13R19010   1.985   6.444   5.391  0.8861  0.0064 -1.0685
  168SAPS  H13S19011   2.136   6.469   5.465  1.0513 -0.4704 -1.7839
  168SAPS  C21419012   2.117   6.528   5.255 -0.3415  0.1938 -0.6053
  168SAPS  H14R19013   2.070   6.603   5.189 -0.8116  0.1965 -0.2783
  168SAPS  C21519014   2.209   6.447   5.200  0.1287 -0.1719 -0.1648
  168SAPS  H15R19015   2.223   6.459   5.091 -1.6317  1.1180 -0.2843
  168SAPS  C21619016   2.289   6.338   5.268  0.2880 -0.1195 -0.9747
  168SAPS  H16R19017   2.281   6.253   5.197  0.6709  0.9824 -2.3988
  168SAPS  H16S19018   2.250   6.304   5.366  0.6758 -1.7184 -1.3604
  168SAPS  C21719019   2.442   6.361   5.296 -0.2392 -0.4769 -0.3056
  168SAPS  H17R19020   2.483   6.406   5.203 -0.1159  3.7318  1.5386
  168SAPS  H17S19021   2.498   6.267   5.314  1.1006 -0.0705 -2.1280
  168SAPS  C21819022   2.466   6.465   5.411 -0.6107  0.3204 -0.5499
  168SAPS  H18R19023   2.422   6.564   5.388 -1.2715 -0.0745 -1.0544
  168SAPS  H18S19024   2.576   6.470   5.404 -0.5615 -1.3048 -1.6737
  168SAPS  C21919025   2.432   6.423   5.555 -0.3147 -0.1223 -0.8931
  168SAPS  H19R19026   2.462   6.318   5.572 -0.9131 -0.3541 -1.2194
  168SAPS  H19S19027   2.321   6.433   5.556 -0.5503 -1.5265 -3.7069
  168SAPS  C22019028   2.489   6.523   5.658 -0.1380  0.4356 -0.7343
  168SAPS  H20R19029   2.444   6.623   5.642 -0.1516  1.3809  3.9227
  168SAPS  H20S19030   2.598   6.526   5.635 -0.0543 -1.8455 -0.8505
  168SAPS  H20T19031   2.458   6.493   5.760 -2.2746  0.3094 -1.3680
  168SAPS   C3319032   2.329   7.233   6.325  0.0057  0.2653 -0.7162
  168SAPS   H3X19033   2.234   7.181   6.351 -0.3945  0.8164 -1.0571
  168SAPS   H3Y19034   2.388   7.175   6.251  0.7113 -0.0360  0.0693
  168SAPS   C3419035   2.292   7.369   6.263  0.6007 -0.0840 -0.3301
  168SAPS   H4X19036   2.389   7.421   6.252 -0.5457  2.7722  1.6579
  168SAPS   H4Y19037   2.233   7.439   6.326  0.5886  0.8146 -1.3099
  168SAPS   C3519038   2.216   7.352   6.137 -0.1079  0.2669 -0.0438
  168SAPS   H5X19039   2.285   7.331   6.052 -1.4326  1.3783 -1.4593
  168SAPS   H5Y19040   2.150   7.440   6.119 -1.2295  0.1985  3.1946
  168SAPS   C3619041   2.121   7.230   6.128  0.2319  0.0737  0.0519
  168SAPS   H6X19042   2.048   7.242   6.210 -2.7538 -3.7971 -1.6752
  168SAPS   H6Y19043   2.170   7.134   6.154  0.5500  0.9294  2.9646
  168SAPS   C3719044   2.046   7.224   5.996 -0.3486 -0.4379 -0.8391
  168SAPS   H7X19045   2.126   7.220   5.919 -1.2340 -0.4415 -1.7746
  168SAPS   H7Y19046   1.988   7.316   5.975 -0.9149 -0.4839  0.4452
  168SAPS   C3819047   1.958   7.101   5.977  0.2552  0.0182 -0.5914
  168SAPS   H8X19048   1.860   7.125   6.024  0.6923 -0.5882  0.6907
  168SAPS   H8Y19049   1.992   7.006   6.025 -0.3714 -1.7043 -3.3301
  168SAPS   C3919050   1.942   7.068   5.826 -0.1985 -0.1572  0.2223
  168SAPS   H9X19051   1.893   6.968   5.820  1.6788 -1.0515 -1.0275
  168SAPS   H9Y19052   2.043   7.060   5.781 -0.8299  0.5957 -1.4287
  168SAPS  C31019053   1.856   7.183   5.767 -0.7503  0.5422 -0.1828
  168SAPS  H10X19054   1.919   7.275   5.772 -0.9464  0.6643  0.0294
  168SAPS  H10Y19055   1.775   7.191   5.842 -1.4643  0.5872 -0.9468
  168SAPS  C31119056   1.783   7.152   5.641  0.7695 -0.1280 -0.3733
  168SAPS  H11X19057   1.705   7.229   5.620 -0.4904 -1.6920 -1.7028
  168SAPS  H11Y19058   1.726   7.056   5.643  3.6476 -1.9484  1.5520
  168SAPS  C31219059   1.888   7.147   5.530  0.3741  0.1936 -0.4245
  168SAPS  H12X19060   1.953   7.060   5.555 -2.0314 -2.3665 -2.3373
  168SAPS  H12Y19061   1.939   7.245   5.530  0.9654 -0.0826  0.9620
  168SAPS  C31319062   1.824   7.128   5.393 -0.2607 -0.4653  1.2227
  168SAPS  H13X19063   1.723   7.174   5.390  0.0146  0.1218  0.7380
  168SAPS  H13Y19064   1.818   7.019   5.376 -2.2616  0.0437 -2.0874
  168SAPS  C31419065   1.903   7.191   5.281 -0.4103 -0.5760 -0.4242
  168SAPS  H14X19066   2.013   7.171   5.276 -0.2974  0.1998 -1.6505
  168SAPS  H14Y19067   1.894   7.301   5.287 -2.0317 -0.7805  1.9029
  168SAPS  C31519068   1.843   7.154   5.149 -0.3863 -0.6123  0.4570
  168SAPS  H15X19069   1.751   7.214   5.129  0.8077  1.2123  0.1590
  168SAPS  H15Y19070   1.818   7.046   5.156  1.2400 -1.0592 -0.0430
  168SAPS  C31619071   1.934   7.176   5.023 -0.5065  0.2097  0.3495
  168SAPS  H16X19072   2.020   7.108   5.042 -0.5452  0.9357  3.7879
  168SAPS  H16Y19073   1.983   7.276   5.022  0.9269 -0.4596  0.2604
  168SAPS  C31719074   1.856   7.127   4.892  0.2435  0.0467  0.1963
  168SAPS  H17X19075   1.768   7.191   4.867  0.4503  0.6965  1.0665
  168SAPS  H17Y19076   1.807   7.029   4.910 -1.1206  0.4148 -1.2051
  168SAPS  C31819077   1.945   7.113   4.774 -0.3468 -0.4108  1.0016
  168SAPS  H18X19078   1.887   7.087   4.683  0.7554 -0.1656  0.2015
  168SAPS  H18Y19079   2.021   7.034   4.791 -0.6659 -1.3756 -1.5224
  168SAPS  H18Z19080   1.995   7.211   4.756 -0.6772 -0.1634  1.4104
  169SAPS     N19081   5.147   1.497   7.062 -0.1472  0.0660 -0.1951
  169SAPS   HN119082   5.098   1.585   7.085 -0.1706 -0.1820  0.7361
  169SAPS   HN219083   5.090   1.458   6.985  1.8225 -0.4319 -1.4792
  169SAPS   HN319084   5.154   1.427   7.139  0.1836  1.1718  0.8157
  169SAPS   C1219085   5.288   1.533   7.014 -0.0611  0.2058 -0.2033
  169SAPS  H12A19086   5.279   1.583   6.919 -0.0451  0.7836  0.0994
  169SAPS   C1319087   5.358   1.626   7.121  0.2552  0.8710  1.0996
  169SAPS  O13A19088   5.300   1.650   7.228 -0.1322 -0.3676  0.0405
  169SAPS  O13B19089   5.483   1.640   7.113 -0.5738 -0.3568 -0.1353
  169SAPS   C1119090   5.367   1.407   6.996  0.4218  0.1706  0.0652
  169SAPS  H11A19091   5.387   1.373   7.100  0.9631  0.2335 -0.0115
  169SAPS  H11B19092   5.464   1.437   6.950 -0.0766 -1.6773 -2.3503
  169SAPS     P19093   5.321   1.322   6.758 -0.2770  0.1408 -0.0485
  169SAPS   O1319094   5.242   1.216   6.698 -0.6828 -0.0920  0.3002
  169SAPS   O1419095   5.301   1.464   6.713 -0.1406  0.5624  0.5848
  169SAPS   O1219096   5.290   1.312   6.917  0.4789 -0.2394 -0.2511
  169SAPS   O1119097   5.472   1.270   6.724 -0.0022  0.1347 -0.5178
  169SAPS    C119098   5.570   1.350   6.661  0.2398 -0.4867 -0.0402
  169SAPS    HA19099   5.537   1.456   6.661 -0.1578 -0.6050  0.4688
  169SAPS    HB19100   5.653   1.365   6.734 -0.9452 -0.2844  1.3007
  169SAPS    C219101   5.622   1.291   6.526  0.7220  0.1660 -0.8432
  169SAPS    HS19102   5.708   1.349   6.486 -1.4032  2.6505 -2.1393
  169SAPS   O2119103   5.512   1.288   6.426 -0.1806 -0.3603  0.1496
  169SAPS   C2119104   5.485   1.403   6.358 -0.1172  0.7312  0.6921
  169SAPS   O2219105   5.549   1.506   6.371 -0.9140  0.5472  0.2793
  169SAPS   C2219106   5.364   1.380   6.273  0.0154  0.7535  0.4539
  169SAPS   H2R19107   5.279   1.346   6.337  0.4094 -1.2391 -0.0217
  169SAPS   H2S19108   5.318   1.474   6.236 -1.1156 -0.1369 -0.4657
  169SAPS    C319109   5.669   1.143   6.550  0.0640 -0.5029 -0.2433
  169SAPS    HX19110   5.574   1.101   6.589  0.0709 -0.6754 -0.4102
  169SAPS    HY19111   5.741   1.122   6.632 -0.0779  0.4795  0.1515
  169SAPS   O3119112   5.716   1.085   6.427  0.1960 -0.0070  0.2803
  169SAPS   C3119113   5.717   0.951   6.441 -0.1449  0.8451  0.3055
  169SAPS   O3219114   5.693   0.885   6.540 -0.0644 -0.0955  0.5082
  169SAPS   C3219115   5.767   0.894   6.307 -1.0048 -0.2036  0.0382
  169SAPS   H2X19116   5.861   0.838   6.326 -0.9806 -0.5171 -0.9458
  169SAPS   H2Y19117   5.801   0.975   6.238  2.6116 -0.3969  1.3717
  169SAPS   C2319118   5.378   1.276   6.152  0.0295  0.6534  0.0841
  169SAPS   H3R19119   5.276   1.234   6.144  0.5906 -1.5228  2.9093
  169SAPS   H3S19120   5.443   1.194   6.188  0.3126  1.6738  2.0255
  169SAPS   C2419121   5.436   1.353   6.027 -0.2075 -0.2336  0.8181
  169SAPS   H4R19122   5.527   1.405   6.065 -0.0905  0.8269 -0.7901
  169SAPS   H4S19123   5.353   1.424   6.007 -0.7153 -0.8406  0.7413
  169SAPS   C2519124   5.467   1.256   5.915 -0.2157 -0.3136 -0.0631
  169SAPS   H5R19125   5.558   1.196   5.929 -0.0833 -0.1451 -0.1851
  169SAPS   C2619126   5.389   1.232   5.809  0.6570  0.4476  0.0704
  169SAPS   H6R19127   5.431   1.164   5.734  0.1235 -1.0696  1.1135
  169SAPS   C2719128   5.262   1.309   5.769 -0.2871 -0.6142 -0.3135
  169SAPS   H7R19129   5.281   1.416   5.744 -0.5924 -0.2017  1.1405
  169SAPS   H7S19130   5.194   1.305   5.857 -3.4675 -1.5575 -2.6338
  169SAPS   C2819131   5.188   1.246   5.655  0.7511  0.3071  0.3760
  169SAPS   H8R19132   5.100   1.186   5.683  0.4557  0.9499  0.8738
  169SAPS   C2919133   5.222   1.259   5.527  0.1123 -0.6676 -0.4276
  169SAPS   H9R19134   5.164   1.200   5.455 -0.9313 -1.3474  0.9310
  169SAPS  C21019135   5.342   1.343   5.477  0.3159  0.2217  0.5993
  169SAPS  H10R19136   5.422   1.344   5.555  0.8220 -0.5114  0.1052
  169SAPS  H10S19137   5.314   1.449   5.466  2.4653  0.7142 -0.6174
  169SAPS  C21119138   5.389   1.276   5.352  0.0921 -0.0762  0.2852
  169SAPS  H11R19139   5.458   1.192   5.369 -0.5254 -0.8053 -0.6948
  169SAPS  C21219140   5.348   1.301   5.225 -0.6182 -0.3169 -0.0600
  169SAPS  H12R19141   5.388   1.240   5.142 -1.2581  0.8412 -1.2630
  169SAPS  C21319142   5.231   1.390   5.189 -0.3299 -0.0990  0.2123
  169SAPS  H13R19143   5.259   1.450   5.099 -0.1885 -1.4035 -0.6475
  169SAPS  H13S19144   5.210   1.464   5.268  1.7918  0.6934  0.1104
  169SAPS  C21419145   5.103   1.310   5.176 -0.5783  0.2502  0.2241
  169SAPS  H14R19146   5.053   1.275   5.268 -0.4435  1.0625  0.6184
  169SAPS  C21519147   5.054   1.270   5.065  0.3987 -0.4724  0.0403
  169SAPS  H15R19148   4.963   1.210   5.078 -1.2533  2.1632  1.3349
  169SAPS  C21619149   5.093   1.302   4.925  0.0732 -0.6712 -1.1003
  169SAPS  H16R19150   5.162   1.389   4.924  1.6913 -1.8367  0.8012
  169SAPS  H16S19151   5.015   1.349   4.862  0.6980 -0.2409 -1.5687
  169SAPS  C21719152   5.156   1.194   4.835  0.1157 -0.0801 -0.5074
  169SAPS  H17R19153   5.200   1.242   4.745  0.0933  0.5441 -0.1893
  169SAPS  H17S19154   5.070   1.130   4.808 -0.4214  0.2836  0.2946
  169SAPS  C21819155   5.255   1.102   4.911  0.6392  0.9418 -0.2301
  169SAPS  H18R19156   5.192   1.059   4.993  0.7159 -1.0000 -1.1336
  169SAPS  H18S19157   5.326   1.169   4.963 -0.1670  2.4205 -0.9805
  169SAPS  C21919158   5.338   1.006   4.832  0.4290 -0.0520 -0.0843
  169SAPS  H19R19159   5.269   0.958   4.759  0.3158  0.4788 -0.3334
  169SAPS  H19S19160   5.372   0.931   4.905 -1.5935 -1.3958 -0.4445
  169SAPS  C22019161   5.456   1.070   4.759  0.8217 -0.2221  0.8616
  169SAPS  H20R19162   5.515   0.994   4.703  1.6032  0.2425  1.0288
  169SAPS  H20S19163   5.530   1.118   4.827  2.1026 -1.2564  0.2337
  169SAPS  H20T19164   5.419   1.138   4.679  1.8266  0.3747  0.8738
  169SAPS   C3319165   5.675   0.786   6.247 -0.1662  0.2957  0.0095
  169SAPS   H3X19166   5.662   0.708   6.325  0.6434  0.3850  0.2459
  169SAPS   H3Y19167   5.734   0.732   6.170  0.1346 -2.1773  1.8586
  169SAPS   C3419168   5.547   0.819   6.175  0.4821 -1.0503  0.5399
  169SAPS   H4X19169   5.482   0.872   6.248 -1.0137 -1.9392 -0.0964
  169SAPS   H4Y19170   5.484   0.732   6.145  4.0424 -3.0655 -1.6983
  169SAPS   C3519171   5.573   0.898   6.049  0.5404 -0.0853  0.0604
  169SAPS   H5X19172   5.662   0.960   6.070 -0.6895  0.9528  2.7610
  169SAPS   H5Y19173   5.488   0.966   6.024 -0.0943 -1.1734 -0.8416
  169SAPS   C3619174   5.587   0.794   5.926  0.4188 -0.3677 -0.0015
  169SAPS   H6X19175   5.498   0.728   5.931 -1.0099  1.5196  0.8523
  169SAPS   H6Y19176   5.683   0.741   5.945 -0.2274 -0.4366  4.1305
  169SAPS   C3719177   5.597   0.879   5.796  0.0360 -0.0488  0.6789
  169SAPS   H7X19178   5.660   0.966   5.824  3.1755 -0.8601 -2.9957
  169SAPS   H7Y19179   5.496   0.917   5.769  0.5974  0.2197 -1.1846
  169SAPS   C3819180   5.646   0.802   5.675 -0.4836  0.6990 -0.2424
  169SAPS   H8X19181   5.571   0.724   5.651  0.0458  1.2217 -4.2507
  169SAPS   H8Y19182   5.733   0.743   5.709 -1.7762 -1.8054 -1.0477
  169SAPS   C3919183   5.671   0.894   5.552 -0.4563  0.2486  0.6528
  169SAPS   H9X19184   5.750   0.959   5.596  0.6246 -0.1258 -0.6593
  169SAPS   H9Y19185   5.573   0.931   5.515 -0.9037 -1.6871 -0.2465
  169SAPS  C31019186   5.737   0.809   5.440 -0.3811  0.1253 -0.7107
  169SAPS  H10X19187   5.676   0.718   5.419 -1.7832  0.3055  2.0615
  169SAPS  H10Y19188   5.840   0.772   5.462 -1.3267 -1.7733  0.9167
  169SAPS  C31119189   5.746   0.886   5.308  0.1153 -0.5373  0.4568
  169SAPS  H11X19190   5.829   0.958   5.323  0.2477 -0.5427 -0.2186
  169SAPS  H11Y19191   5.651   0.943   5.295  1.8549  2.7967  1.1315
  169SAPS  C31219192   5.778   0.791   5.195 -0.3862  0.1530  0.4118
  169SAPS  H12X19193   5.700   0.712   5.194 -0.0453 -0.2054 -1.5122
  169SAPS  H12Y19194   5.878   0.742   5.206  0.3179  1.0202 -1.6238
  169SAPS  C31319195   5.762   0.846   5.055 -0.2398 -0.2303 -0.1367
  169SAPS  H13X19196   5.841   0.919   5.030  1.8253 -2.4166 -0.3063
  169SAPS  H13Y19197   5.668   0.904   5.041  0.1046  0.3845  0.0420
  169SAPS  C31419198   5.766   0.724   4.956 -0.2545  0.3989  0.3836
  169SAPS  H14X19199   5.683   0.655   4.983  1.1219 -1.3496  0.3021
  169SAPS  H14Y19200   5.862   0.669   4.966  0.3222  1.5941  1.7248
  169SAPS  C31519201   5.734   0.757   4.809  0.4576 -0.0592 -0.2099
  169SAPS  H15X19202   5.640   0.815   4.796 -0.6660 -2.1393 -2.2958
  169SAPS  H15Y19203   5.720   0.655   4.767  2.4338 -0.7653  0.7369
  169SAPS  C31619204   5.843   0.827   4.734  0.2419  0.3185 -0.9068
  169SAPS  H16X19205   5.937   0.770   4.720  0.0491 -0.5711  1.0431
  169SAPS  H16Y19206   5.870   0.914   4.798  1.0415 -1.8643  1.9286
  169SAPS  C31719207   5.798   0.862   4.583 -0.2598 -0.3188 -1.3430
  169SAPS  H17X19208   5.880   0.910   4.525  0.7162 -2.1316 -1.5529
  169SAPS  H17Y19209   5.721   0.941   4.594 -0.4838 -0.5494 -1.2303
  169SAPS  C31819210   5.729   0.750   4.512 -0.5203  0.3079  0.0376
  169SAPS  H18X19211   5.805   0.674   4.485  0.2114  1.1861 -0.4440
  169SAPS  H18Y19212   5.684   0.794   4.420  1.0090 -1.0498 -1.4363
  169SAPS  H18Z19213   5.649   0.704   4.572 -0.7415  2.8305  1.8416
  170SAPS     N19214   6.384   6.078   6.744  0.1138  0.4262  0.6695
  170SAPS   HN119215   6.471   6.118   6.703 -0.9067 -0.3629 -2.6272
  170SAPS   HN219216   6.321   6.068   6.661  0.9153  0.7067  0.0127
  170SAPS   HN319217   6.343   6.141   6.815 -1.0043  0.8855 -0.3382
  170SAPS   C1219218   6.401   5.943   6.815  0.4694  0.5214 -0.9034
  170SAPS  H12A19219   6.430   5.866   6.744  1.0508 -0.5647  0.4411
  170SAPS   C1319220   6.532   5.940   6.915  1.2071  0.3001 -0.2575
  170SAPS  O13A19221   6.617   6.029   6.922  0.3560 -0.1910  0.0374
  170SAPS  O13B19222   6.529   5.847   6.988  0.0796 -0.3750 -1.1616
  170SAPS   C1119223   6.277   5.894   6.893 -0.3994  0.0447  0.1981
  170SAPS  H11A19224   6.259   5.962   6.978 -3.2424  0.5109 -0.6730
  170SAPS  H11B19225   6.306   5.792   6.925  0.3010 -0.1386 -0.9263
  170SAPS     P19226   6.039   5.802   6.838 -0.1295 -0.1828  0.2196
  170SAPS   O1319227   6.062   5.742   6.971 -0.0043 -0.3960  0.5126
  170SAPS   O1419228   5.907   5.865   6.822  0.5497  0.0361 -0.8806
  170SAPS   O1219229   6.162   5.898   6.806 -0.6819 -0.1712  0.5611
  170SAPS   O1119230   6.050   5.696   6.720  0.1484 -0.1299  0.4216
  170SAPS    C119231   6.175   5.658   6.655 -1.2903  0.2799 -0.4963
  170SAPS    HA19232   6.260   5.680   6.722 -0.5763  1.0392 -1.6155
  170SAPS    HB19233   6.170   5.549   6.632  0.0250  0.4085 -1.5125
  170SAPS    C219234   6.202   5.727   6.522 -0.2707 -0.5293 -0.2167
  170SAPS    HS19235   6.207   5.833   6.555  4.1188 -1.1911  2.0012
  170SAPS   O2119236   6.094   5.684   6.433  0.4170 -0.2541  0.1800
  170SAPS   C2119237   6.025   5.781   6.367 -0.2371  0.4301 -0.0330
  170SAPS   O2219238   6.053   5.898   6.386  0.1460  0.2709 -0.1691
  170SAPS   C2219239   5.924   5.714   6.269 -0.2700 -0.5199  0.3863
  170SAPS   H2R19240   5.828   5.700   6.324 -1.3829 -0.8205 -1.5353
  170SAPS   H2S19241   5.913   5.793   6.191 -0.5562 -1.1960 -0.2734
  170SAPS    C319242   6.337   5.681   6.457  0.3300 -0.9615 -0.3341
  170SAPS    HX19243   6.323   5.573   6.436  4.4638 -1.9404  0.9507
  170SAPS    HY19244   6.418   5.701   6.531 -0.2125  1.7999 -0.4060
  170SAPS   O3119245   6.373   5.757   6.342 -0.3271 -0.8275  0.3493
  170SAPS   C3119246   6.415   5.884   6.362  0.4845  0.6542 -0.1526
  170SAPS   O3219247   6.449   5.923   6.471 -0.4841  0.2124  0.5991
  170SAPS   C3219248   6.404   5.973   6.240  0.1207  0.3636 -0.5205
  170SAPS   H2X19249   6.496   6.034   6.245 -0.2298  0.8959  4.0590
  170SAPS   H2Y19250   6.316   6.038   6.263 -0.7543 -0.4152 -1.5572
  170SAPS   C2319251   5.957   5.579   6.210 -0.0366  0.4708  0.1455
  170SAPS   H3R19252   5.867   5.558   6.148 -1.3474  0.9288  1.8055
  170SAPS   H3S19253   5.963   5.503   6.291  0.5121 -1.4004 -1.5788
  170SAPS   C2419254   6.084   5.564   6.128  0.1814  0.2741  0.0312
  170SAPS   H4R19255   6.103   5.457   6.109 -1.4454  0.0601 -0.5580
  170SAPS   H4S19256   6.176   5.595   6.182  0.7210  2.7466 -2.0714
  170SAPS   C2519257   6.063   5.645   6.000 -0.2111  0.1362 -0.3655
  170SAPS   H5R19258   6.102   5.748   6.001 -1.3145  0.5647 -0.5218
  170SAPS   C2619259   6.021   5.592   5.889  0.1289  0.3263  0.2537
  170SAPS   H6R19260   6.000   5.653   5.800 -1.3600 -0.0103  0.3466
  170SAPS   C2719261   5.943   5.459   5.874 -0.9267 -0.5035 -0.0278
  170SAPS   H7R19262   5.859   5.468   5.946  0.1502  0.0272  1.2016
  170SAPS   H7S19263   6.016   5.379   5.900 -0.3310 -0.5703 -1.7850
  170SAPS   C2819264   5.884   5.436   5.738 -0.0820 -0.7022  0.2863
  170SAPS   H8R19265   5.927   5.494   5.655  1.2762 -0.8997  0.8247
  170SAPS   C2919266   5.798   5.339   5.717 -0.2466 -0.2067  0.2594
  170SAPS   H9R19267   5.750   5.325   5.619 -1.0561 -3.2390  0.9753
  170SAPS  C21019268   5.744   5.253   5.827  0.6679 -0.6877 -0.0494
  170SAPS  H10R19269   5.714   5.324   5.907  0.0050 -0.6641 -0.3149
  170SAPS  H10S19270   5.832   5.189   5.852  0.6842 -0.7250 -0.2025
  170SAPS  C21119271   5.625   5.170   5.789  0.1559 -0.0375  0.2778
  170SAPS  H11R19272   5.523   5.210   5.802  0.5111  2.2687 -2.8637
  170SAPS  C21219273   5.635   5.047   5.736  0.0933  0.4376 -0.2741
  170SAPS  H12R19274   5.537   5.003   5.712 -0.5830 -0.2498  3.1779
  170SAPS  C21319275   5.755   4.959   5.711 -0.2935  0.0577 -0.3880
  170SAPS  H13R19276   5.730   4.852   5.729 -0.4391  0.1613  0.0369
  170SAPS  H13S19277   5.825   4.971   5.796  1.2223  1.2440 -1.7293
  170SAPS  C21419278   5.827   4.988   5.581  0.2469  0.2783  0.6784
  170SAPS  H14R19279   5.889   5.079   5.581  1.5148 -0.5237 -1.5965
  170SAPS  C21519280   5.821   4.916   5.468  0.3491  0.0994 -0.2587
  170SAPS  H15R19281   5.872   4.951   5.378 -2.7699  0.8039 -1.8677
  170SAPS  C21619282   5.733   4.793   5.446  0.0223  0.5137 -0.0313
  170SAPS  H16R19283   5.666   4.767   5.532  0.2687 -0.4105 -0.1111
  170SAPS  H16S19284   5.802   4.707   5.436 -1.2392 -0.5333 -0.0501
  170SAPS  C21719285   5.636   4.807   5.323  0.6789 -0.4630  0.1710
  170SAPS  H17R19286   5.584   4.904   5.337  1.0462 -0.2757  0.2620
  170SAPS  H17S19287   5.553   4.733   5.327 -0.6216  0.9048 -0.7094
  170SAPS  C21819288   5.703   4.804   5.187  0.1753  0.1356  0.2129
  170SAPS  H18R19289   5.802   4.854   5.182 -0.8455  2.2981  0.2526
  170SAPS  H18S19290   5.629   4.846   5.116  1.0114  0.1722 -0.6481
  170SAPS  C21919291   5.731   4.663   5.128  0.8598  0.0847 -0.2435
  170SAPS  H19R19292   5.629   4.618   5.116  0.1515  2.0188 -1.9329
  170SAPS  H19S19293   5.794   4.614   5.205  0.9899 -0.5834 -0.7672
  170SAPS  C22019294   5.804   4.665   4.991 -0.0637  0.1626  0.1203
  170SAPS  H20R19295   5.740   4.713   4.914 -0.7896  0.8566  1.1338
  170SAPS  H20S19296   5.807   4.565   4.943 -2.3120  1.3752 -2.8447
  170SAPS  H20T19297   5.901   4.719   4.999 -0.7137  1.1061  2.4091
  170SAPS   C3319298   6.380   5.912   6.098 -0.1140 -0.4463 -0.4067
  170SAPS   H3X19299   6.352   5.995   6.030 -2.1888 -1.0379 -0.3519
  170SAPS   H3Y19300   6.290   5.849   6.114 -0.4967  0.5350  1.6918
  170SAPS   C3419301   6.500   5.851   6.035 -0.2183  0.5088 -0.1569
  170SAPS   H4X19302   6.507   5.742   6.055  1.6833  0.3624 -1.3096
  170SAPS   H4Y19303   6.583   5.885   6.102 -0.7318  1.0638  0.2055
  170SAPS   C3519304   6.514   5.877   5.888 -0.3307  0.8312 -0.1371
  170SAPS   H5X19305   6.511   5.985   5.863 -3.5788  0.8047 -0.2855
  170SAPS   H5Y19306   6.423   5.825   5.850  3.0580 -4.1329 -2.4833
  170SAPS   C3619307   6.649   5.837   5.833  0.3080 -0.0494 -0.2598
  170SAPS   H6X19308   6.679   5.734   5.861 -1.5743 -0.8746 -1.1434
  170SAPS   H6Y19309   6.718   5.904   5.888 -1.7105  2.3258 -0.4637
  170SAPS   C3719310   6.659   5.860   5.682  0.0356 -0.2693 -0.7038
  170SAPS   H7X19311   6.661   5.967   5.654  0.5010  0.1762  0.8901
  170SAPS   H7Y19312   6.572   5.807   5.638  0.1207 -0.6757 -0.3916
  170SAPS   C3819313   6.775   5.794   5.616 -0.0601  0.5958  1.0003
  170SAPS   H8X19314   6.775   5.683   5.624  0.7822  0.6114  1.4018
  170SAPS   H8Y19315   6.862   5.840   5.667  0.8341  0.6521 -0.5076
  170SAPS   C3919316   6.807   5.833   5.467 -0.3821  0.4823 -1.3189
  170SAPS   H9X19317   6.905   5.784   5.449  0.3344  0.2971  2.3787
  170SAPS   H9Y19318   6.817   5.943   5.453 -2.0857  0.9403  0.5542
  170SAPS  C31019319   6.699   5.774   5.368  0.7787 -0.2334  0.5869
  170SAPS  H10X19320   6.612   5.843   5.375  0.4211 -0.6199  0.0236
  170SAPS  H10Y19321   6.667   5.675   5.407 -0.7852  0.3520  0.8655
  170SAPS  C31119322   6.760   5.762   5.228  0.1210  0.4041 -0.5280
  170SAPS  H11X19323   6.710   5.671   5.189 -2.8139  0.8320  1.9114
  170SAPS  H11Y19324   6.869   5.745   5.236 -0.2235 -1.8551  0.0192
  170SAPS  C31219325   6.714   5.875   5.137 -0.2215 -0.1927  0.9303
  170SAPS  H12X19326   6.751   5.977   5.159  1.3637 -0.3459 -0.7840
  170SAPS  H12Y19327   6.603   5.873   5.143 -0.3902 -3.7714 -0.5916
  170SAPS  C31319328   6.757   5.841   4.990  0.1825 -0.3140 -0.1990
  170SAPS  H13X19329   6.712   5.740   4.973  0.9980 -0.9862  1.4504
  170SAPS  H13Y19330   6.867   5.842   4.980  0.2331  2.6372 -0.1608
  170SAPS  C31419331   6.696   5.930   4.884 -0.6387 -0.0776 -0.2258
  170SAPS  H14X19332   6.752   6.026   4.882  0.8050 -0.8840  0.3424
  170SAPS  H14Y19333   6.591   5.946   4.917  0.0302  1.0151  1.5136
  170SAPS  C31519334   6.705   5.874   4.741 -0.4407  0.1391 -0.4285
  170SAPS  H15X19335   6.645   5.946   4.681  0.8465  0.7141 -1.0628
  170SAPS  H15Y19336   6.652   5.777   4.734  0.2081 -0.0925 -2.7784
  170SAPS  C31619337   6.849   5.861   4.684 -1.1622  0.7505  0.4105
  170SAPS  H16X19338   6.921   5.801   4.744  0.4660  1.4687 -0.7375
  170SAPS  H16Y19339   6.901   5.959   4.680  2.8664 -1.2006 -0.9460
  170SAPS  C31719340   6.842   5.792   4.544 -0.1761  0.5668 -0.8820
  170SAPS  H17X19341   6.797   5.692   4.555  0.1598  0.3762 -1.2317
  170SAPS  H17Y19342   6.945   5.773   4.506 -0.6204 -2.0396 -0.9018
  170SAPS  C31819343   6.770   5.859   4.424 -0.1843 -0.4876  0.5169
  170SAPS  H18X19344   6.785   5.793   4.337  2.2586  2.6282 -1.6829
  170SAPS  H18Y19345   6.820   5.957   4.405  0.6673 -0.8479  0.8274
  170SAPS  H18Z19346   6.665   5.887   4.446  0.3856  1.8024  0.5997
  171SAPS     N19347   2.349   0.964   7.199  0.2065 -0.8891 -0.3667
  171SAPS   HN119348   2.253   0.987   7.231 -0.2405 -1.1127 -1.4887
  171SAPS   HN219349   2.424   1.013   7.251 -0.5857  1.7967 -1.5216
  171SAPS   HN319350   2.363   0.996   7.101  1.5527  2.3801  0.7474
  171SAPS   C1219351   2.369   0.819   7.204  0.0561  0.2636  0.1652
  171SAPS  H12A19352   2.417   0.796   7.110  1.6621 -1.1018  1.2841
  171SAPS   C1319353   2.457   0.764   7.317 -0.0610  0.2911 -0.2965
  171SAPS  O13A19354   2.530   0.848   7.378  0.4754  0.4319 -0.3364
  171SAPS  O13B19355   2.471   0.638   7.331  0.0634  0.0493 -0.0828
  171SAPS   C1119356   2.216   0.771   7.194 -0.1813 -0.0617  0.5224
  171SAPS  H11A19357   2.176   0.769   7.297 -1.7361 -0.2534 -0.0569
  171SAPS  H11B19358   2.209   0.664   7.165  0.1080 -0.0544  0.4236
  171SAPS     P19359   2.081   0.817   6.960  0.1008  0.2277 -0.7159
  171SAPS   O1319360   1.997   0.698   6.965 -0.0739 -0.0857  0.1479
  171SAPS   O1419361   2.012   0.940   6.911  0.3231 -0.1203 -0.0249
  171SAPS   O1219362   2.124   0.844   7.111  0.0451  0.0866 -0.0228
  171SAPS   O1119363   2.218   0.781   6.887 -0.4054  0.2385 -0.5716
  171SAPS    C119364   2.242   0.831   6.756  1.0367  0.1247  0.0478
  171SAPS    HA19365   2.251   0.942   6.752  0.8636  0.4804  4.4692
  171SAPS    HB19366   2.348   0.806   6.733  1.6159  0.8154  1.8196
  171SAPS    C219367   2.153   0.759   6.648  0.8866 -0.4949  0.1324
  171SAPS    HS19368   2.054   0.808   6.656  1.6641  0.8061  2.6529
  171SAPS   O2119369   2.163   0.622   6.678  0.0179  0.1885 -0.0052
  171SAPS   C2119370   2.052   0.553   6.678 -0.0155 -0.3267 -0.3252
  171SAPS   O2219371   1.948   0.606   6.643  0.4019  0.4119  0.0595
  171SAPS   C2219372   2.075   0.404   6.698  0.7495 -0.2354 -0.0850
  171SAPS   H2R19373   2.180   0.386   6.728 -0.1922 -0.9304  3.2516
  171SAPS   H2S19374   2.021   0.363   6.786  0.9866 -1.8715 -0.6694
  171SAPS    C319375   2.205   0.792   6.507  0.2448 -0.4488  0.0174
  171SAPS    HX19376   2.133   0.742   6.440 -1.3063  0.6380  0.8092
  171SAPS    HY19377   2.305   0.748   6.487 -0.2275 -1.4603 -0.1619
  171SAPS   O3119378   2.222   0.934   6.490  0.1491 -0.0072  0.0230
  171SAPS   C3119379   2.162   0.992   6.388 -0.5821  0.2284 -0.3199
  171SAPS   O3219380   2.091   0.926   6.312  0.8073 -0.5433  0.0861
  171SAPS   C3219381   2.189   1.140   6.378 -0.0742  0.4387 -0.2240
  171SAPS   H2X19382   2.233   1.168   6.476 -0.6940  0.8290 -0.0549
  171SAPS   H2Y19383   2.091   1.192   6.378  0.7922  2.2436  2.1438
  171SAPS   C2319384   2.048   0.309   6.581 -0.6148 -0.1454  0.8293
  171SAPS   H3R19385   2.079   0.205   6.605 -0.4986  0.0991  1.7631
  171SAPS   H3S19386   2.110   0.342   6.495 -1.9866  0.3705  0.0172
  171SAPS   C2419387   1.911   0.301   6.516  0.2320 -0.0489  0.2928
  171SAPS   H4R19388   1.920   0.242   6.422 -0.6886  1.7353 -1.0030
  171SAPS   H4S19389   1.883   0.402   6.478 -1.3982 -0.7640 -0.5104
  171SAPS   C2519390   1.806   0.260   6.616 -0.2933  0.1278  0.0261
  171SAPS   H5R19391   1.803   0.313   6.713 -1.9630 -1.5418  0.9561
  171SAPS   C2619392   1.718   0.164   6.602 -0.3586  0.6259 -0.2637
  171SAPS   H6R19393   1.655   0.153   6.691  0.5413  0.0042  0.3118
  171SAPS   C2719394   1.683   0.071   6.493 -0.0804  0.1533 -0.3983
  171SAPS   H7R19395   1.723  -0.029   6.520  1.5108  0.7953 -0.2889
  171SAPS   H7S19396   1.735   0.100   6.399  1.5778  0.2597  0.5086
  171SAPS   C2819397   1.532   0.058   6.452 -0.1817  0.5142 -0.1153
  171SAPS   H8R19398   1.493  -0.042   6.476  0.0757  0.4024 -0.1672
  171SAPS   C2919399   1.463   0.148   6.383  0.1453 -0.1632  0.5381
  171SAPS   H9R19400   1.364   0.117   6.345  0.0127  0.6458  0.2064
  171SAPS  C21019401   1.504   0.290   6.357 -0.5208 -0.7598 -0.2294
  171SAPS  H10R19402   1.608   0.282   6.320 -0.3662  0.8008 -0.1675
  171SAPS  H10S19403   1.510   0.358   6.444  0.9095  1.0762 -1.6791
  171SAPS  C21119404   1.419   0.361   6.254  0.2241  0.1663 -0.5996
  171SAPS  H11R19405   1.365   0.447   6.296  2.0036  0.4626  1.2726
  171SAPS  C21219406   1.431   0.355   6.121  0.4805 -0.0047  0.6386
  171SAPS  H12R19407   1.378   0.430   6.062  1.7804 -0.5413 -1.3179
  171SAPS  C21319408   1.491   0.244   6.043 -0.4814  0.6476  0.0965
  171SAPS  H13R19409   1.590   0.219   6.086 -0.8129  0.5003  0.7978
  171SAPS  H13S19410   1.504   0.283   5.940  0.2348 -0.0924 -0.1075
  171SAPS  C21419411   1.405   0.115   6.039 -0.2904 -0.1355 -0.5763
  171SAPS  H14R19412   1.316   0.111   6.104 -0.4294 -0.4933 -0.7918
  171SAPS  C21519413   1.450   0.005   5.974 -1.0706  1.0811  0.3451
  171SAPS  H15R19414   1.388  -0.085   5.979 -0.5452  0.7783  2.6426
  171SAPS  C21619415   1.583  -0.008   5.893  0.1780  0.2398  0.6569
  171SAPS  H16R19416   1.630  -0.101   5.931  0.6860  0.1961 -0.0555
  171SAPS  H16S19417   1.651   0.077   5.915 -2.1386  1.4172  4.2723
  171SAPS  C21719418   1.560  -0.004   5.738  0.0627  0.4803  0.1862
  171SAPS  H17R19419   1.660  -0.028   5.696  0.3371 -0.0179  1.0979
  171SAPS  H17S19420   1.525   0.097   5.706 -0.8007 -0.0468 -0.5510
  171SAPS  C21819421   1.462  -0.101   5.674 -0.3298  0.2463 -0.3978
  171SAPS  H18R19422   1.364  -0.080   5.722  0.2848  2.3712 -0.0027
  171SAPS  H18S19423   1.481  -0.209   5.694 -0.4847  0.1088 -0.9688
  171SAPS  C21919424   1.457  -0.069   5.524  0.5171  0.4064 -0.3996
  171SAPS  H19R19425   1.560  -0.088   5.485  0.8418  1.3367 -0.0144
  171SAPS  H19S19426   1.438   0.038   5.502  1.2610  0.4037 -1.0907
  171SAPS  C22019427   1.366  -0.173   5.456  0.2060  0.0422  0.0302
  171SAPS  H20R19428   1.417  -0.271   5.463  1.5354  0.7713  1.2332
  171SAPS  H20S19429   1.345  -0.143   5.351  2.8015 -0.6350 -0.7524
  171SAPS  H20T19430   1.266  -0.181   5.504 -0.6158  1.2293 -1.3861
  171SAPS   C3319431   2.274   1.168   6.258  0.1403  0.5590 -0.4005
  171SAPS   H3X19432   2.364   1.104   6.245 -1.1086 -0.9920 -2.0154
  171SAPS   H3Y19433   2.317   1.269   6.272  2.2642 -0.2038 -1.0061
  171SAPS   C3419434   2.189   1.179   6.130  0.1606  0.0994 -0.3640
  171SAPS   H4X19435   2.110   1.256   6.139  0.4201  0.2143  1.3386
  171SAPS   H4Y19436   2.144   1.078   6.116  0.5461 -0.1930  0.4488
  171SAPS   C3519437   2.280   1.209   6.011  0.3814 -0.0586  0.0510
  171SAPS   H5X19438   2.345   1.120   5.996  0.2655 -0.0764 -0.3792
  171SAPS   H5Y19439   2.350   1.295   6.016 -0.8252  0.9754 -0.3453
  171SAPS   C3619440   2.193   1.206   5.882 -0.4191  0.1108  0.7022
  171SAPS   H6X19441   2.162   1.310   5.855  2.3587  0.7543 -0.3487
  171SAPS   H6Y19442   2.099   1.149   5.894 -0.9499  0.7747 -0.1374
  171SAPS   C3719443   2.277   1.162   5.766 -0.3990  0.1900 -0.1837
  171SAPS   H7X19444   2.310   1.057   5.780  3.7290  1.1983 -0.9151
  171SAPS   H7Y19445   2.366   1.228   5.758  0.3959 -0.7051  0.9253
  171SAPS   C3819446   2.199   1.168   5.641 -0.2874 -0.1325 -0.0992
  171SAPS   H8X19447   2.154   1.268   5.622 -1.0109 -0.2715  0.8165
  171SAPS   H8Y19448   2.108   1.106   5.658 -0.0179 -0.4032  0.3665
  171SAPS   C3919449   2.288   1.117   5.528  0.0445  0.7815 -0.2298
  171SAPS   H9X19450   2.294   1.009   5.552  1.2081  1.3925  2.5903
  171SAPS   H9Y19451   2.392   1.155   5.539  1.3440 -2.6219  0.3494
  171SAPS  C31019452   2.247   1.139   5.383 -0.9515  0.0797  0.4255
  171SAPS  H10X19453   2.237   1.247   5.362  0.9869 -0.1523 -2.1971
  171SAPS  H10Y19454   2.148   1.095   5.358  0.2895 -2.2421 -0.7377
  171SAPS  C31119455   2.358   1.085   5.290  0.1945 -0.1866 -0.0471
  171SAPS  H11X19456   2.393   0.989   5.334 -0.1138  0.3764  1.4866
  171SAPS  H11Y19457   2.449   1.148   5.285  1.5669 -1.9044  1.7472
  171SAPS  C31219458   2.297   1.062   5.154  0.2292  0.7045 -0.1011
  171SAPS  H12X19459   2.238   1.152   5.129 -0.2476  0.2204 -0.7639
  171SAPS  H12Y19460   2.223   0.979   5.160  2.2739 -1.2348 -0.1922
  171SAPS  C31319461   2.406   1.032   5.055  0.1859 -0.1565  0.3163
  171SAPS  H13X19462   2.491   0.975   5.098  1.3951  1.5631  0.3261
  171SAPS  H13Y19463   2.452   1.132   5.038  0.4001 -0.3458 -0.2302
  171SAPS  C31419464   2.344   0.970   4.931 -0.3183  0.0663 -0.7614
  171SAPS  H14X19465   2.266   0.891   4.944 -1.1413  0.7242 -1.6317
  171SAPS  H14Y19466   2.427   0.937   4.865  2.4329  0.1997  2.4011
  171SAPS  C31519467   2.264   1.076   4.853  0.6729  0.6037  0.5137
  171SAPS  H15X19468   2.333   1.150   4.808  2.9043 -0.3529  2.1829
  171SAPS  H15Y19469   2.190   1.125   4.919 -0.2304 -0.0395  0.0114
  171SAPS  C31619470   2.187   1.005   4.732 -0.5004 -0.7111 -0.2675
  171SAPS  H16X19471   2.103   0.948   4.778 -0.3718 -0.9289 -0.3042
  171SAPS  H16Y19472   2.266   0.937   4.693  0.4112 -0.5886  1.2639
  171SAPS  C31719473   2.141   1.090   4.608  0.3587  0.3560 -0.4604
  171SAPS  H17X19474   2.068   1.159   4.657  0.1774 -0.1058 -0.0723
  171SAPS  H17Y19475   2.095   1.040   4.521  0.2399  0.2981 -0.3644
  171SAPS  C31819476   2.256   1.164   4.548  0.1405 -0.1993  0.6915
  171SAPS  H18X19477   2.322   1.095   4.491 -0.6463 -2.4443  2.3404
  171SAPS  H18Y19478   2.305   1.222   4.630  1.6205 -2.3528  1.4435
  171SAPS  H18Z19479   2.210   1.244   4.486  0.6599  1.0559  1.8824
  172SAPS     N19480   0.738   0.621   6.930 -0.9482  0.3633 -0.7143
  172SAPS   HN119481   0.644   0.636   6.970  0.4436  1.8057  2.4011
  172SAPS   HN219482   0.776   0.715   6.907 -0.3093  0.4477  0.5412
  172SAPS   HN319483   0.738   0.558   6.847 -0.8267 -0.9921  0.2656
  172SAPS   C1219484   0.811   0.542   7.044  0.4119 -0.7596  0.2553
  172SAPS  H12A19485   0.776   0.594   7.132 -3.1037 -0.8265 -0.9478
  172SAPS   C1319486   0.751   0.396   7.058  0.0751 -0.0982  0.0479
  172SAPS  O13A19487   0.672   0.357   6.975  0.2756 -0.1519  0.0364
  172SAPS  O13B19488   0.788   0.329   7.159  0.2661 -0.6068  0.2009
  172SAPS   C1119489   0.962   0.538   7.031 -0.4024  0.3483  0.9825
  172SAPS  H11A19490   0.987   0.461   6.954  2.3252  2.1695 -0.1005
  172SAPS  H11B19491   0.999   0.495   7.127 -0.2486 -1.0414  0.3246
  172SAPS     P19492   1.166   0.673   6.935  0.2377 -0.0444  0.6193
  172SAPS   O1319493   1.151   0.795   6.857  0.0135 -1.1121  0.2007
  172SAPS   O1419494   1.276   0.670   7.033  0.2690 -0.4456  0.2033
  172SAPS   O1219495   1.028   0.663   7.013  0.0014  0.1665  0.0690
  172SAPS   O1119496   1.176   0.553   6.832  0.8301 -0.2231 -0.4750
  172SAPS    C119497   1.280   0.537   6.744 -0.7522  0.5619  0.1812
  172SAPS    HA19498   1.310   0.634   6.699  0.3791  1.0901  1.9808
  172SAPS    HB19499   1.362   0.478   6.789  0.2207 -0.0772 -2.3077
  172SAPS    C219500   1.222   0.459   6.619  0.4685 -0.4357  1.0776
  172SAPS    HS19501   1.298   0.448   6.539 -0.1522 -1.9398  0.6577
  172SAPS   O2119502   1.114   0.536   6.569 -1.0083 -0.8616 -0.2986
  172SAPS   C2119503   1.141   0.641   6.488 -0.2404  0.5540 -0.3359
  172SAPS   O2219504   1.251   0.696   6.476 -1.0147  0.0252  0.1022
  172SAPS   C2219505   1.014   0.677   6.407  0.4572  0.1167 -0.0680
  172SAPS   H2R19506   0.948   0.588   6.396  1.1802 -0.4529  0.1159
  172SAPS   H2S19507   0.962   0.755   6.466  1.1714  0.0053  0.7268
  172SAPS    C319508   1.165   0.327   6.670 -0.5518  0.4888 -0.6107
  172SAPS    HX19509   1.094   0.346   6.752  1.1254 -2.0536  1.5827
  172SAPS    HY19510   1.253   0.270   6.707  0.8295  1.3375 -2.3979
  172SAPS   O3119511   1.107   0.251   6.564 -0.1525  0.4124 -0.1067
  172SAPS   C3119512   1.037   0.148   6.597  0.4305  0.0957  0.3301
  172SAPS   O3219513   1.017   0.102   6.705  0.1129  0.7674  0.2176
  172SAPS   C3219514   0.969   0.092   6.472  0.3723  0.7683 -0.0367
  172SAPS   H2X19515   1.012   0.145   6.384  2.1697  0.1354  0.4191
  172SAPS   H2Y19516   0.862   0.123   6.464  0.2565  0.2753 -0.4456
  172SAPS   C2319517   1.037   0.722   6.258  0.3352 -0.1139 -0.0109
  172SAPS   H3R19518   1.133   0.777   6.249  0.6497 -0.9304 -2.8021
  172SAPS   H3S19519   0.953   0.783   6.221  0.1641  0.1946  0.8726
  172SAPS   C2419520   1.061   0.606   6.157 -0.3940  0.6329  0.6773
  172SAPS   H4R19521   0.965   0.562   6.122 -0.0598  0.4923 -0.0592
  172SAPS   H4S19522   1.122   0.530   6.211 -2.4258 -1.1867  0.5658
  172SAPS   C2519523   1.127   0.644   6.032 -0.5790 -0.8968 -0.5537
  172SAPS   H5R19524   1.193   0.726   6.064 -1.4458 -0.1187 -0.6958
  172SAPS   C2619525   1.098   0.604   5.905  0.2130 -0.0613 -0.0724
  172SAPS   H6R19526   1.156   0.647   5.822 -0.5964  2.6300  0.6490
  172SAPS   C2719527   1.014   0.479   5.879 -0.6948  0.2122 -0.0584
  172SAPS   H7R19528   0.973   0.495   5.777  0.2530  0.1692 -0.4531
  172SAPS   H7S19529   0.930   0.469   5.952  1.5013 -1.2834  2.4410
  172SAPS   C2819530   1.095   0.348   5.892 -0.5364  0.1427 -0.0333
  172SAPS   H8R19531   1.123   0.322   5.995  0.8802  1.4991 -0.0416
  172SAPS   C2919532   1.125   0.259   5.794 -0.5166 -0.4641 -0.5975
  172SAPS   H9R19533   1.167   0.159   5.811 -0.0206 -0.4614 -1.7028
  172SAPS  C21019534   1.114   0.284   5.645 -0.2326 -0.1136  0.0452
  172SAPS  H10R19535   1.221   0.292   5.618 -0.4286 -0.1230 -0.7747
  172SAPS  H10S19536   1.078   0.388   5.628 -0.2029  0.0117  0.7218
  172SAPS  C21119537   1.033   0.189   5.554  0.3218 -0.0909  0.4480
  172SAPS  H11R19538   0.960   0.130   5.612 -0.8555  0.9920  0.1213
  172SAPS  C21219539   1.043   0.168   5.421 -0.2164 -0.2557 -0.1274
  172SAPS  H12R19540   0.974   0.090   5.386  0.1037 -0.5487 -0.1087
  172SAPS  C21319541   1.137   0.231   5.321  0.0136 -0.6042 -0.1900
  172SAPS  H13R19542   1.242   0.210   5.348  0.4556  1.3848 -0.1652
  172SAPS  H13S19543   1.125   0.342   5.318 -0.4051 -0.6603 -2.3020
  172SAPS  C21419544   1.116   0.190   5.174 -0.3647  0.3709  0.0008
  172SAPS  H14R19545   1.014   0.194   5.133  0.7409  0.5997 -2.9159
  172SAPS  C21519546   1.214   0.152   5.087  0.0561  0.2627  0.0479
  172SAPS  H15R19547   1.188   0.137   4.981  0.1688  0.6453 -0.0361
  172SAPS  C21619548   1.358   0.127   5.113 -0.5497  0.1514  0.2733
  172SAPS  H16R19549   1.384   0.130   5.221  2.4473 -0.9405 -0.3209
  172SAPS  H16S19550   1.416   0.211   5.067 -2.1284  1.0119 -0.2025
  172SAPS  C21719551   1.409  -0.009   5.055 -0.0715  0.5210  0.3091
  172SAPS  H17R19552   1.429   0.002   4.946 -0.5708 -1.0328  0.0360
  172SAPS  H17S19553   1.343  -0.096   5.075  1.0805  0.1444  2.8369
  172SAPS  C21819554   1.547  -0.059   5.107 -0.1549  0.7997 -0.1298
  172SAPS  H18R19555   1.542  -0.096   5.212  1.0100 -0.5725 -0.5116
  172SAPS  H18S19556   1.607   0.033   5.091 -0.2474  0.6411 -1.5572
  172SAPS  C21919557   1.629  -0.169   5.030  0.2525 -0.0220 -0.4391
  172SAPS  H19R19558   1.633  -0.154   4.920  2.0784 -1.1555 -0.5674
  172SAPS  H19S19559   1.576  -0.262   5.060  1.1663 -0.5616 -0.4844
  172SAPS  C22019560   1.771  -0.182   5.087  0.2994  0.1012 -0.1816
  172SAPS  H20R19561   1.821  -0.266   5.034  2.0591  1.6151 -1.0351
  172SAPS  H20S19562   1.773  -0.209   5.195  1.3254 -2.1326 -0.6878
  172SAPS  H20T19563   1.837  -0.093   5.077  0.7420  0.0538  1.8137
  172SAPS   C3319564   0.979  -0.065   6.441  0.1710 -0.4790  0.2063
  172SAPS   H3X19565   0.923  -0.104   6.529  1.0817  0.4318  1.2205
  172SAPS   H3Y19566   1.078  -0.114   6.454  0.1364 -0.1307  2.2383
  172SAPS   C3419567   0.931  -0.109   6.304 -0.6601  0.1082  0.9323
  172SAPS   H4X19568   0.844  -0.042   6.287 -1.1987 -1.0557 -1.1525
  172SAPS   H4Y19569   0.902  -0.216   6.309 -3.0949  0.6775  0.4901
  172SAPS   C3519570   1.029  -0.088   6.181 -0.0600 -0.6303  0.3146
  172SAPS   H5X19571   1.108  -0.164   6.199  1.4072  1.1767  1.8895
  172SAPS   H5Y19572   1.078   0.012   6.174 -1.2028 -0.1321 -1.4258
  172SAPS   C3619573   0.955  -0.120   6.049 -0.7998  0.0436 -0.2443
  172SAPS   H6X19574   0.879  -0.043   6.024  1.1848  1.4900 -2.0751
  172SAPS   H6Y19575   0.896  -0.214   6.059 -1.3785  0.2801 -1.2848
  172SAPS   C3719576   1.049  -0.120   5.933  0.4998  0.4824  0.5842
  172SAPS   H7X19577   1.135  -0.187   5.952  1.4263  1.3353 -0.4629
  172SAPS   H7Y19578   1.082  -0.014   5.924 -1.5177  0.9626 -2.8838
  172SAPS   C3819579   0.967  -0.138   5.799 -0.1678  0.2466 -0.6736
  172SAPS   H8X19580   1.037  -0.115   5.716  1.9260 -1.9948  0.3327
  172SAPS   H8Y19581   0.888  -0.061   5.789  1.2081  1.6651 -1.0867
  172SAPS   C3919582   0.899  -0.271   5.755 -0.3980 -0.1237  0.8202
  172SAPS   H9X19583   0.828  -0.285   5.840 -0.8417 -0.1403  0.4514
  172SAPS   H9Y19584   0.985  -0.340   5.760 -0.7676 -0.6718 -0.2836
  172SAPS  C31019585   0.823  -0.265   5.625  1.1163  0.5914 -0.0101
  172SAPS  H10X19586   0.747  -0.185   5.636  0.9523  0.7702 -2.0882
  172SAPS  H10Y19587   0.776  -0.363   5.606  0.0183  1.3349 -1.2747
  172SAPS  C31119588   0.907  -0.239   5.498  0.1946  0.8683  0.7871
  172SAPS  H11X19589   0.993  -0.308   5.510  0.5753  0.5799 -2.5757
  172SAPS  H11Y19590   0.948  -0.136   5.487  0.9731  0.3450 -1.8637
  172SAPS  C31219591   0.844  -0.271   5.361  0.5096  0.5042 -0.4810
  172SAPS  H12X19592   0.767  -0.192   5.347  0.3525  0.2128 -1.3271
  172SAPS  H12Y19593   0.795  -0.371   5.356  1.1844  0.0185  1.7087
  172SAPS  C31319594   0.947  -0.269   5.248  0.1085  0.0275 -0.1035
  172SAPS  H13X19595   1.025  -0.347   5.259 -0.1778 -0.3547 -0.7078
  172SAPS  H13Y19596   0.989  -0.167   5.251  0.8331 -0.2825  0.8487
  172SAPS  C31419597   0.881  -0.285   5.111 -0.5481 -0.1791  0.3886
  172SAPS  H14X19598   0.790  -0.225   5.091 -0.2050  0.8242  1.6572
  172SAPS  H14Y19599   0.865  -0.393   5.095  0.8493 -0.1404 -1.7341
  172SAPS  C31519600   0.985  -0.261   4.997  0.3401 -0.3456 -0.0102
  172SAPS  H15X19601   1.009  -0.153   5.008  2.4137 -0.6802 -0.7548
  172SAPS  H15Y19602   0.948  -0.266   4.893  0.8758 -0.9441 -0.1785
  172SAPS  C31619603   1.109  -0.345   5.009 -0.0905  0.8283 -0.4263
  172SAPS  H16X19604   1.184  -0.316   5.085  1.5203 -1.2666 -1.1230
  172SAPS  H16Y19605   1.081  -0.453   5.014 -2.5196  1.4127 -0.1020
  172SAPS  C31719606   1.175  -0.328   4.873  0.2903 -0.5783 -0.0606
  172SAPS  H17X19607   1.175  -0.219   4.852 -3.7322 -0.4056  0.1144
  172SAPS  H17Y19608   1.122  -0.386   4.794  0.2551 -1.6020  0.6971
  172SAPS  C31819609   1.318  -0.370   4.866 -0.1882  0.2344 -0.5642
  172SAPS  H18X19610   1.315  -0.474   4.905 -0.6194  0.2075 -0.6665
  172SAPS  H18Y19611   1.379  -0.305   4.933 -1.7050  0.1749  0.9560
  172SAPS  H18Z19612   1.348  -0.362   4.760 -0.1793 -0.7404 -0.6496
  173SAPS     N19613   5.923   4.794   2.095  0.6058 -0.1691  0.1684
  173SAPS   HN119614   5.904   4.770   2.194  0.5137 -0.1394  0.1576
  173SAPS   HN219615   5.863   4.738   2.031 -4.2600  0.7626  3.3896
  173SAPS   HN319616   6.023   4.771   2.077 -0.0245 -3.3076  0.1683
  173SAPS   C1219617   5.873   4.930   2.085 -0.0266 -0.2117  0.1598
  173SAPS  H12A19618   5.934   4.989   2.152  1.3073 -1.5089  0.1522
  173SAPS   C1319619   5.870   4.992   1.939  0.5370 -0.2248 -0.1409
  173SAPS  O13A19620   5.919   4.931   1.841 -0.1535  0.3912 -0.2591
  173SAPS  O13B19621   5.815   5.102   1.928  0.1776  0.1372  0.1347
  173SAPS   C1119622   5.723   4.935   2.147 -0.1482 -1.0037 -0.3751
  173SAPS  H11A19623   5.660   4.881   2.072 -0.9342 -0.6494  0.0267
  173SAPS  H11B19624   5.716   5.045   2.137  2.3360 -0.6881  0.5957
  173SAPS     P19625   5.566   4.908   2.350 -0.2115 -0.2830  0.2708
  173SAPS   O1319626   5.511   5.047   2.359 -0.5775  0.0051 -0.2270
  173SAPS   O1419627   5.479   4.799   2.299  0.5648 -0.9510  0.0513
  173SAPS   O1219628   5.706   4.894   2.274  0.2773  0.0782 -0.5495
  173SAPS   O1119629   5.595   4.868   2.498 -0.1614  0.1102 -0.3408
  173SAPS    C119630   5.709   4.923   2.559 -0.0293 -0.4123 -0.1317
  173SAPS    HA19631   5.797   4.914   2.492  0.1576 -0.3454  0.1043
  173SAPS    HB19632   5.682   5.026   2.590 -1.0493 -1.0817  1.3662
  173SAPS    C219633   5.742   4.848   2.682 -0.3769  0.1292  0.2702
  173SAPS    HS19634   5.791   4.753   2.649  0.0803  1.3433 -2.8879
  173SAPS   O2119635   5.629   4.836   2.774 -0.5839  0.1326 -0.4212
  173SAPS   C2119636   5.578   4.717   2.803 -0.0355  0.0844 -0.6512
  173SAPS   O2219637   5.611   4.616   2.753 -0.7585  0.4775 -0.0029
  173SAPS   C2219638   5.474   4.733   2.909  0.0675 -0.0347  0.4503
  173SAPS   H2R19639   5.520   4.727   3.010 -1.2797  0.3412  1.1105
  173SAPS   H2S19640   5.426   4.831   2.888  0.8200  0.1594 -0.4098
  173SAPS    C319641   5.854   4.935   2.756  0.2431  0.4188 -0.3790
  173SAPS    HX19642   5.800   5.030   2.772  0.6391  0.3547  1.5713
  173SAPS    HY19643   5.941   4.949   2.688 -1.0382  1.3272 -1.8759
  173SAPS   O3119644   5.887   4.867   2.876  0.4080 -0.0660  0.0064
  173SAPS   C3119645   5.993   4.912   2.946  0.2273  0.2702  0.0919
  173SAPS   O3219646   6.067   5.001   2.910 -0.5475  0.1567  0.5907
  173SAPS   C3219647   6.015   4.821   3.073 -0.2297 -0.3069 -0.1823
  173SAPS   H2X19648   6.104   4.762   3.041  0.8398  1.2529 -0.1826
  173SAPS   H2Y19649   5.934   4.746   3.083 -0.3084  0.0589  3.0013
  173SAPS   C2319650   5.371   4.620   2.891  0.0208  0.0672  0.3376
  173SAPS   H3R19651   5.425   4.523   2.887  0.2214  0.1925 -0.0100
  173SAPS   H3S19652   5.326   4.622   2.789  1.9800 -0.2790 -0.5760
  173SAPS   C2419653   5.266   4.614   3.005  0.2587 -0.1761 -0.2452
  173SAPS   H4R19654   5.325   4.557   3.080  0.2420 -2.3711 -1.8219
  173SAPS   H4S19655   5.182   4.546   2.981  0.9297 -1.5346  1.1198
  173SAPS   C2519656   5.222   4.749   3.067 -0.1503 -0.8900 -0.8285
  173SAPS   H5R19657   5.181   4.820   2.995  1.1217  0.9794  0.1868
  173SAPS   C2619658   5.230   4.786   3.196 -0.5654  0.2202 -0.6331
  173SAPS   H6R19659   5.187   4.876   3.243 -0.0531 -0.3492  1.0099
  173SAPS   C2719660   5.270   4.697   3.311  0.7793 -0.1259  0.1956
  173SAPS   H7R19661   5.341   4.749   3.378  0.9151  0.1292 -0.1434
  173SAPS   H7S19662   5.327   4.612   3.268  1.5753 -0.1628  1.2942
  173SAPS   C2819663   5.146   4.644   3.375  0.3633 -0.9427  0.4930
  173SAPS   H8R19664   5.076   4.579   3.321 -0.6744  0.1035  0.5447
  173SAPS   C2919665   5.102   4.702   3.491 -0.4312 -0.2184  0.8529
  173SAPS   H9R19666   5.023   4.651   3.549 -0.2094 -1.2087  0.3071
  173SAPS  C21019667   5.180   4.801   3.570 -0.2455 -0.4346 -0.1291
  173SAPS  H10R19668   5.224   4.877   3.502 -1.9667  0.6628 -0.0926
  173SAPS  H10S19669   5.272   4.755   3.612  0.7786  1.9635  0.4263
  173SAPS  C21119670   5.090   4.863   3.674 -0.2110 -0.1617 -0.4804
  173SAPS  H11R19671   5.006   4.920   3.631 -0.4638 -0.6475 -0.6313
  173SAPS  C21219672   5.078   4.839   3.808 -0.3020  0.5170 -0.2108
  173SAPS  H12R19673   5.001   4.892   3.867  1.3973  1.0490  1.6613
  173SAPS  C21319674   5.157   4.743   3.892  0.2053 -0.5399  0.1745
  173SAPS  H13R19675   5.171   4.781   3.996  2.2304 -2.7899  0.8240
  173SAPS  H13S19676   5.262   4.732   3.855  0.2990  0.1728  0.2146
  173SAPS  C21419677   5.113   4.597   3.888 -0.0388  0.1144 -0.4945
  173SAPS  H14R19678   5.102   4.546   3.791 -2.7983 -0.5020  0.0528
  173SAPS  C21519679   5.102   4.509   3.996  0.6135 -0.4539  1.0160
  173SAPS  H15R19680   5.053   4.411   3.981  0.3913  0.1157 -2.7787
  173SAPS  C21619681   5.117   4.551   4.139 -0.3598 -0.3677 -0.0173
  173SAPS  H16R19682   5.033   4.510   4.199 -0.6621  0.5971  0.2464
  173SAPS  H16S19683   5.095   4.659   4.154  0.3624 -0.1241 -0.6588
  173SAPS  C21719684   5.245   4.517   4.215 -0.4865 -0.0574 -0.4623
  173SAPS  H17R19685   5.321   4.594   4.186  1.1680 -1.3077  0.3994
  173SAPS  H17S19686   5.296   4.423   4.187  2.6823  1.1473  0.8320
  173SAPS  C21819687   5.213   4.511   4.365 -0.4317 -0.5136 -1.0930
  173SAPS  H18R19688   5.162   4.415   4.388 -0.8557  0.4006  2.4371
  173SAPS  H18S19689   5.149   4.598   4.387  1.4203  0.7029 -0.2387
  173SAPS  C21919690   5.341   4.531   4.452 -0.4587  0.4801 -0.2911
  173SAPS  H19R19691   5.327   4.515   4.561 -1.3661  1.5045 -0.2489
  173SAPS  H19S19692   5.386   4.631   4.432  1.2835 -0.0942  0.5726
  173SAPS  C22019693   5.445   4.423   4.411 -0.4384  0.1816  0.2874
  173SAPS  H20R19694   5.525   4.429   4.488  0.8318 -1.5806 -0.8198
  173SAPS  H20S19695   5.484   4.453   4.311  0.1769  2.6364  1.1891
  173SAPS  H20T19696   5.400   4.321   4.415  0.9107 -0.6510 -2.6706
  173SAPS   C3319697   6.028   4.912   3.201  0.2106  0.0926 -0.8141
  173SAPS   H3X19698   5.925   4.950   3.217  0.4638  0.2904  0.4511
  173SAPS   H3Y19699   6.100   4.996   3.193  2.9069 -2.0076 -0.0666
  173SAPS   C3419700   6.057   4.836   3.334 -0.4906 -1.1035 -0.3768
  173SAPS   H4X19701   6.072   4.917   3.409  1.4344  0.1735 -2.0244
  173SAPS   H4Y19702   6.157   4.789   3.325 -1.9545 -4.1575 -2.5047
  173SAPS   C3519703   5.960   4.727   3.368 -0.3866 -0.2898 -0.0252
  173SAPS   H5X19704   5.924   4.669   3.280  0.9358 -1.1096 -0.0388
  173SAPS   H5Y19705   5.872   4.767   3.422 -1.4090 -1.1212 -1.0082
  173SAPS   C3619706   6.010   4.624   3.460  0.0614  0.4623  0.1475
  173SAPS   H6X19707   6.047   4.657   3.559  0.3622  1.0066 -0.1434
  173SAPS   H6Y19708   6.099   4.575   3.416  0.8865  0.7569  1.4322
  173SAPS   C3719709   5.900   4.517   3.472 -0.2909  0.5603 -0.1025
  173SAPS   H7X19710   5.850   4.502   3.374 -0.0176  1.1808 -0.3377
  173SAPS   H7Y19711   5.827   4.559   3.544  0.4148  1.4292  0.1299
  173SAPS   C3819712   5.965   4.377   3.513  0.0422  0.2559  0.7736
  173SAPS   H8X19713   6.064   4.362   3.465 -0.3802 -1.5386  0.3745
  173SAPS   H8Y19714   5.893   4.295   3.488  0.3981 -0.1568  1.0811
  173SAPS   C3919715   5.992   4.370   3.657  0.6161  0.1439 -0.4832
  173SAPS   H9X19716   5.894   4.370   3.710  1.0237  0.4867  0.2900
  173SAPS   H9Y19717   6.034   4.470   3.680 -1.4252  1.2763 -1.3770
  173SAPS  C31019718   6.071   4.247   3.697 -0.0654  0.0486 -0.3753
  173SAPS  H10X19719   6.032   4.150   3.659 -3.5182  0.5108  1.5482
  173SAPS  H10Y19720   6.050   4.245   3.806 -2.6322  1.7134 -0.7795
  173SAPS  C31119721   6.224   4.269   3.683  0.1789 -0.2483  0.2156
  173SAPS  H11X19722   6.257   4.360   3.737 -0.0466 -0.0226 -0.0217
  173SAPS  H11Y19723   6.240   4.300   3.577  1.3208 -0.4405  0.3291
  173SAPS  C31219724   6.312   4.149   3.716  0.6530 -0.0010  0.8629
  173SAPS  H12X19725   6.287   4.053   3.666  0.9407 -0.3445  1.3692
  173SAPS  H12Y19726   6.306   4.131   3.825  1.9076  3.0054  1.5437
  173SAPS  C31319727   6.459   4.172   3.684 -0.4163 -0.3175 -0.5845
  173SAPS  H13X19728   6.490   4.274   3.713  0.6949 -0.2994 -1.7496
  173SAPS  H13Y19729   6.479   4.157   3.576 -0.0038 -2.9144 -0.2144
  173SAPS  C31419730   6.559   4.068   3.749 -0.1909 -0.2462  0.4777
  173SAPS  H14X19731   6.667   4.069   3.723 -0.0052  2.4718  1.0661
  173SAPS  H14Y19732   6.527   3.968   3.711  0.0821  0.1331 -0.8135
  173SAPS  C31519733   6.566   4.079   3.900 -0.2585  0.1129 -0.3757
  173SAPS  H15X19734   6.479   4.036   3.954  1.2446  0.0692  2.1968
  173SAPS  H15Y19735   6.562   4.188   3.920  0.3942  0.7221 -3.1014
  173SAPS  C31619736   6.693   4.022   3.955  0.0130 -0.0745  0.4460
  173SAPS  H16X19737   6.785   4.058   3.905 -0.7575  0.9639 -0.2694
  173SAPS  H16Y19738   6.686   3.913   3.934 -0.2424  0.0156  0.0561
  173SAPS  C31719739   6.711   4.049   4.100  0.4541 -0.5860  0.1534
  173SAPS  H17X19740   6.616   4.015   4.146 -0.1652 -1.2595 -1.5614
  173SAPS  H17Y19741   6.716   4.157   4.126  1.9591 -0.1001 -1.8983
  173SAPS  C31819742   6.829   3.976   4.169  0.1343 -0.6242 -0.7809
  173SAPS  H18X19743   6.921   4.017   4.123  0.7754 -1.6434 -0.4146
  173SAPS  H18Y19744   6.820   3.867   4.149 -2.1138 -0.3873 -1.4004
  173SAPS  H18Z19745   6.837   3.994   4.278 -0.2243 -2.8056 -0.3499
  174SAPS     N19746   2.568   3.929   1.385 -0.5577 -0.1446 -0.2716
  174SAPS   HN119747   2.533   3.837   1.353  2.2419 -1.3885 -0.0694
  174SAPS   HN219748   2.515   3.958   1.470  1.6435 -1.9274  1.8904
  174SAPS   HN319749   2.557   3.997   1.307 -0.6578 -0.2732 -0.3691
  174SAPS   C1219750   2.710   3.915   1.429  0.1811 -0.5969  0.3612
  174SAPS  H12A19751   2.705   3.844   1.511  2.0049 -0.1926  0.8773
  174SAPS   C1319752   2.808   3.863   1.317 -0.0775  0.1737 -0.1096
  174SAPS  O13A19753   2.763   3.851   1.201 -0.2030  0.1902  0.9223
  174SAPS  O13B19754   2.931   3.831   1.338 -0.5166 -0.4228  0.0450
  174SAPS   C1119755   2.748   4.053   1.490  0.7773  0.0021  0.3540
  174SAPS  H11A19756   2.767   4.130   1.412  2.9683 -0.8617 -0.0686
  174SAPS  H11B19757   2.850   4.040   1.532  1.0112 -3.0351 -0.8653
  174SAPS     P19758   2.652   4.069   1.745 -0.3805  0.1676 -0.2207
  174SAPS   O1319759   2.643   4.200   1.813  0.2429 -0.0371 -0.5928
  174SAPS   O1419760   2.557   3.961   1.784 -0.4996  0.6662  0.8615
  174SAPS   O1219761   2.653   4.095   1.588 -0.8052 -0.7568 -0.0514
  174SAPS   O1119762   2.803   4.016   1.775  0.1555 -0.5470 -0.1708
  174SAPS    C119763   2.842   3.881   1.771 -0.3382  0.3630 -0.1426
  174SAPS    HA19764   2.750   3.818   1.774 -0.9679  1.2598 -0.4659
  174SAPS    HB19765   2.903   3.856   1.681  0.9866  0.0122  0.8118
  174SAPS    C219766   2.927   3.843   1.898  0.1231  0.3618 -0.0481
  174SAPS    HS19767   2.933   3.732   1.907  3.7504  0.3689 -0.5919
  174SAPS   O2119768   2.889   3.914   2.019 -0.0813  0.8229 -0.4876
  174SAPS   C2119769   2.776   3.870   2.082 -0.5879  0.0714  0.1738
  174SAPS   O2219770   2.710   3.778   2.043 -0.2319  0.0423 -0.0019
  174SAPS   C2219771   2.750   3.950   2.209  0.2211 -0.8222 -0.2837
  174SAPS   H2R19772   2.837   3.927   2.274 -0.1087 -0.0756  0.4463
  174SAPS   H2S19773   2.744   4.057   2.180  0.9985 -0.5101  0.6769
  174SAPS    C319774   3.078   3.874   1.868 -0.1001  1.0154  0.1622
  174SAPS    HX19775   3.069   3.978   1.828  0.5526 -0.1540 -3.4039
  174SAPS    HY19776   3.127   3.832   1.778 -0.8229  0.5827 -0.0365
  174SAPS   O3119777   3.154   3.880   1.982 -0.9485  1.2563  0.1020
  174SAPS   C3119778   3.203   3.757   2.027  0.1733 -0.5263  0.7577
  174SAPS   O3219779   3.194   3.657   1.967  0.1482  0.2991 -0.0846
  174SAPS   C3219780   3.279   3.768   2.151 -0.0646  0.1768 -0.0656
  174SAPS   H2X19781   3.364   3.840   2.146 -0.5628  0.7439 -0.6545
  174SAPS   H2Y19782   3.324   3.669   2.171 -1.6154 -0.7167 -0.7893
  174SAPS   C2319783   2.619   3.904   2.283 -0.1901 -1.0593  0.0399
  174SAPS   H3R19784   2.627   3.794   2.297  2.4695 -0.7089  1.9260
  174SAPS   H3S19785   2.531   3.923   2.217 -0.2179  0.2387  0.4153
  174SAPS   C2419786   2.576   3.975   2.419 -0.2675 -0.4863  0.4547
  174SAPS   H4R19787   2.477   3.934   2.447 -0.0683  0.0592  2.0533
  174SAPS   H4S19788   2.570   4.085   2.405 -1.4106 -0.2619  2.4000
  174SAPS   C2519789   2.689   3.960   2.516 -0.7138  0.4922  0.0869
  174SAPS   H5R19790   2.702   3.857   2.550  0.1574  0.5417 -0.0792
  174SAPS   C2619791   2.787   4.038   2.554  0.2723 -0.2981  0.4166
  174SAPS   H6R19792   2.844   4.003   2.641  0.9966 -0.0472  0.0581
  174SAPS   C2719793   2.799   4.187   2.516 -0.1619  0.7228  0.1952
  174SAPS   H7R19794   2.820   4.242   2.610 -1.0974 -0.0011  0.8491
  174SAPS   H7S19795   2.704   4.227   2.476 -1.4305 -0.9648  1.3474
  174SAPS   C2819796   2.917   4.213   2.422  0.9320 -0.3862  0.0380
  174SAPS   H8R19797   2.891   4.204   2.316 -0.2788  2.6908 -0.0374
  174SAPS   C2919798   3.044   4.237   2.458 -0.0784  0.0010 -0.1382
  174SAPS   H9R19799   3.114   4.248   2.374 -1.6057  0.8765 -1.3423
  174SAPS  C21019800   3.105   4.248   2.594  0.1997 -0.2126 -0.4021
  174SAPS  H10R19801   3.177   4.163   2.604 -1.0247 -1.1345  0.7943
  174SAPS  H10S19802   3.031   4.251   2.676 -0.4779  0.8770 -1.0260
  174SAPS  C21119803   3.191   4.372   2.609  0.7798  0.0434 -0.5073
  174SAPS  H11R19804   3.279   4.367   2.542  0.8168  0.0871 -0.4624
  174SAPS  C21219805   3.169   4.486   2.683 -0.6041 -0.2173  0.4780
  174SAPS  H12R19806   3.248   4.562   2.672 -2.3291  1.8794  1.7515
  174SAPS  C21319807   3.064   4.525   2.780 -0.0471  0.0866 -0.1777
  174SAPS  H13R19808   3.105   4.555   2.878 -1.5730 -0.1392  0.5733
  174SAPS  H13S19809   2.991   4.441   2.792 -0.2498 -0.0081 -1.7965
  174SAPS  C21419810   2.988   4.629   2.710 -0.0508 -0.3697 -1.0546
  174SAPS  H14R19811   2.949   4.612   2.608 -1.4004  1.5241 -0.9166
  174SAPS  C21519812   2.961   4.748   2.763  0.9936  0.1293 -0.9484
  174SAPS  H15R19813   2.897   4.816   2.705  0.9752 -0.7770 -2.0110
  174SAPS  C21619814   2.986   4.803   2.900  0.3022  0.0443  0.0946
  174SAPS  H16R19815   2.997   4.717   2.969 -2.0072 -1.2739 -1.0613
  174SAPS  H16S19816   2.902   4.859   2.946  0.4265 -1.5326  2.3541
  174SAPS  C21719817   3.099   4.905   2.902  0.9160  0.6518 -0.3118
  174SAPS  H17R19818   3.099   4.957   3.000 -1.2146 -0.8602  0.5520
  174SAPS  H17S19819   3.080   4.992   2.836 -1.4441  0.2067 -0.2909
  174SAPS  C21819820   3.235   4.842   2.867 -0.3122 -0.2462  0.6557
  174SAPS  H18R19821   3.243   4.837   2.757  0.7665  1.1301  0.6402
  174SAPS  H18S19822   3.247   4.736   2.898 -1.2757 -0.5849 -0.1114
  174SAPS  C21919823   3.348   4.931   2.912  0.5082  0.2340 -0.6588
  174SAPS  H19R19824   3.331   4.945   3.021 -2.6580 -1.3914 -0.8265
  174SAPS  H19S19825   3.332   5.030   2.864 -0.3138  1.1647  1.3960
  174SAPS  C22019826   3.495   4.880   2.886 -1.0218  0.2843 -0.4548
  174SAPS  H20R19827   3.571   4.924   2.954 -0.8909  0.6924 -0.8566
  174SAPS  H20S19828   3.534   4.899   2.784  2.0335 -0.0221  0.5521
  174SAPS  H20T19829   3.498   4.770   2.904  1.1625  0.4537  0.5821
  174SAPS   C3319830   3.199   3.826   2.271  0.3579  0.2261 -0.6084
  174SAPS   H3X19831   3.134   3.739   2.294  1.4468 -0.0653  1.7392
  174SAPS   H3Y19832   3.139   3.917   2.252 -0.5769  0.1664  1.6845
  174SAPS   C3419833   3.289   3.866   2.389 -0.1978 -0.3202  0.0328
  174SAPS   H4X19834   3.327   3.969   2.368 -1.3765 -0.1879 -1.7268
  174SAPS   H4Y19835   3.372   3.793   2.396 -1.0920 -1.7766 -3.0917
  174SAPS   C3519836   3.200   3.855   2.513  0.3283 -0.0293  0.2136
  174SAPS   H5X19837   3.164   3.750   2.518  1.4498 -0.3935  0.7993
  174SAPS   H5Y19838   3.106   3.914   2.512 -0.1224 -0.7325  0.1004
  174SAPS   C3619839   3.278   3.889   2.642  0.0220 -0.0511 -0.4661
  174SAPS   H6X19840   3.347   3.976   2.633 -1.1151  0.8971 -0.2099
  174SAPS   H6Y19841   3.354   3.810   2.661 -0.0547  0.3415  1.7787
  174SAPS   C3719842   3.184   3.901   2.758 -0.7203  0.5722 -0.0255
  174SAPS   H7X19843   3.121   3.809   2.754 -1.2640  0.9821 -1.5475
  174SAPS   H7Y19844   3.127   3.997   2.757  0.1934  1.1693  1.3520
  174SAPS   C3819845   3.263   3.898   2.894 -0.2789  0.1787  0.7230
  174SAPS   H8X19846   3.341   3.976   2.888  0.6368 -0.8298 -1.3638
  174SAPS   H8Y19847   3.309   3.798   2.911  0.7260  0.1638 -1.7150
  174SAPS   C3919848   3.193   3.930   3.032 -0.0540  0.2801 -0.3719
  174SAPS   H9X19849   3.266   3.922   3.115 -0.1461 -1.0007 -0.4003
  174SAPS   H9Y19850   3.112   3.856   3.047  1.6303 -1.5974 -0.1751
  174SAPS  C31019851   3.133   4.070   3.025 -0.6775 -0.2645 -0.2861
  174SAPS  H10X19852   3.072   4.091   3.115  0.4150  0.6803  0.2580
  174SAPS  H10Y19853   3.072   4.074   2.932 -0.6798 -1.9950 -0.3851
  174SAPS  C31119854   3.244   4.184   3.002 -0.2661  0.7834  0.2586
  174SAPS  H11X19855   3.261   4.185   2.893 -1.7255 -1.4333 -0.0512
  174SAPS  H11Y19856   3.343   4.160   3.046 -0.8006  0.2742  1.2222
  174SAPS  C31219857   3.209   4.322   3.052 -0.1062  0.1180 -0.2917
  174SAPS  H12X19858   3.100   4.325   3.031 -0.1996  0.2877  0.2082
  174SAPS  H12Y19859   3.259   4.401   2.991 -0.0960  0.5292  0.2437
  174SAPS  C31319860   3.233   4.351   3.199  0.6833 -0.3050 -0.6723
  174SAPS  H13X19861   3.329   4.314   3.240 -0.1464 -1.4951  0.2853
  174SAPS  H13Y19862   3.154   4.295   3.255 -1.3573  0.9569 -2.1399
  174SAPS  C31419863   3.198   4.499   3.220  0.3708  0.0403  0.5603
  174SAPS  H14X19864   3.097   4.536   3.191 -0.4118 -1.3787  1.3763
  174SAPS  H14Y19865   3.277   4.550   3.160 -0.6119 -0.6716 -1.4571
  174SAPS  C31519866   3.213   4.549   3.369 -0.1617  0.2108 -0.7024
  174SAPS  H15X19867   3.316   4.526   3.404 -0.2809  2.5176  1.4624
  174SAPS  H15Y19868   3.146   4.487   3.431  0.4366 -2.5087 -2.6125
  174SAPS  C31619869   3.181   4.694   3.376  0.7659  0.4573 -0.0468
  174SAPS  H16X19870   3.074   4.700   3.343  0.8713  0.6341 -0.3620
  174SAPS  H16Y19871   3.237   4.765   3.311  2.1305 -1.6524 -1.3192
  174SAPS  C31719872   3.189   4.750   3.523  0.1064  0.0271 -0.1915
  174SAPS  H17X19873   3.166   4.675   3.601 -0.5771 -0.8920 -1.2441
  174SAPS  H17Y19874   3.122   4.838   3.531 -0.0985 -0.2487  1.3815
  174SAPS  C31819875   3.335   4.809   3.540 -0.0338  0.7474 -0.7253
  174SAPS  H18X19876   3.373   4.863   3.451 -0.4064  1.3407 -0.5377
  174SAPS  H18Y19877   3.404   4.723   3.553 -3.3168 -1.7634  1.5841
  174SAPS  H18Z19878   3.344   4.868   3.634  1.9601 -0.7851  0.1188
  175SAPS     N19879   5.117   2.947   2.201  0.3271 -0.2915  0.2997
  175SAPS   HN119880   5.037   3.010   2.182 -1.0017 -1.4763  1.7127
  175SAPS   HN219881   5.124   2.933   2.304 -1.1938  1.2514  0.6507
  175SAPS   HN319882   5.209   2.990   2.179  1.0600 -1.5904  0.7009
  175SAPS   C1219883   5.093   2.810   2.128  0.3639  0.7166  0.5560
  175SAPS  H12A19884   4.991   2.780   2.144 -0.2989  1.4463 -1.8155
  175SAPS   C1319885   5.098   2.818   1.969 -0.0606  0.1367  0.4588
  175SAPS  O13A19886   5.107   2.932   1.917  0.7106  0.6319 -0.6186
  175SAPS  O13B19887   5.101   2.712   1.900 -0.2537 -0.2691 -0.0411
  175SAPS   C1119888   5.186   2.709   2.196 -0.4516 -0.1299 -0.5264
  175SAPS  H11A19889   5.288   2.738   2.163 -1.3046  1.2123 -2.1501
  175SAPS  H11B19890   5.151   2.609   2.165 -0.0522 -0.4764  0.1213
  175SAPS     P19891   5.245   2.681   2.455 -0.1674  0.2519 -0.0191
  175SAPS   O1319892   5.386   2.670   2.405  0.0402 -0.4198  0.1631
  175SAPS   O1419893   5.214   2.770   2.574 -0.4897 -0.1935  0.7981
  175SAPS   O1219894   5.151   2.711   2.334 -0.0375  0.0184  0.6922
  175SAPS   O1119895   5.200   2.534   2.490 -0.4465  0.2792  0.3883
  175SAPS    C119896   5.069   2.485   2.494  0.6000  0.2000 -0.2025
  175SAPS    HA19897   5.001   2.549   2.434 -1.8890 -2.7344 -0.7496
  175SAPS    HB19898   5.061   2.382   2.454 -0.9331 -0.0018  0.5686
  175SAPS    C219899   5.003   2.487   2.638 -0.0876 -0.4003  0.3015
  175SAPS    HS19900   4.910   2.427   2.627 -1.3860  1.7858 -1.5073
  175SAPS   O2119901   4.974   2.624   2.668 -0.6062 -0.1249 -0.7162
  175SAPS   C2119902   4.865   2.682   2.624 -1.4190 -0.1688 -0.1298
  175SAPS   O2219903   4.775   2.635   2.556 -0.0761  0.0735 -0.0193
  175SAPS   C2219904   4.855   2.828   2.662 -0.2778 -0.1486  0.1482
  175SAPS   H2R19905   4.953   2.879   2.673 -0.5063  0.0823  1.1724
  175SAPS   H2S19906   4.796   2.869   2.577  0.0125 -1.2287 -0.5882
  175SAPS    C319907   5.101   2.429   2.743  0.5812  0.2691  0.1455
  175SAPS    HX19908   5.192   2.491   2.759 -0.9098  2.2140  1.8469
  175SAPS    HY19909   5.133   2.334   2.696 -0.5883  0.3103 -0.8009
  175SAPS   O3119910   5.043   2.391   2.867 -0.3033 -0.4342 -0.2166
  175SAPS   C3119911   5.048   2.472   2.971 -0.9977 -0.0192  0.3817
  175SAPS   O3219912   5.124   2.568   2.985 -0.5073 -0.7452 -0.1252
  175SAPS   C3219913   4.963   2.416   3.081 -0.0441 -0.1959 -0.0830
  175SAPS   H2X19914   4.970   2.305   3.075  0.9375 -0.1012 -1.0755
  175SAPS   H2Y19915   4.858   2.447   3.064 -1.2919 -2.3348  2.9603
  175SAPS   C2319916   4.801   2.847   2.800 -0.0868 -0.3106  0.7890
  175SAPS   H3R19917   4.813   2.954   2.826  0.5566 -0.2919  0.4179
  175SAPS   H3S19918   4.868   2.803   2.877  1.1484 -2.1541 -1.2328
  175SAPS   C2419919   4.658   2.806   2.825 -0.4998 -0.0032 -0.1183
  175SAPS   H4R19920   4.597   2.836   2.737 -0.9167 -0.8498 -0.1326
  175SAPS   H4S19921   4.609   2.874   2.898 -1.2209 -1.2432  0.6026
  175SAPS   C2519922   4.637   2.659   2.855  0.1580 -0.0603 -0.3229
  175SAPS   H5R19923   4.612   2.596   2.768  1.4951 -0.8003 -0.2053
  175SAPS   C2619924   4.618   2.613   2.978  0.5210 -0.1291 -1.0231
  175SAPS   H6R19925   4.595   2.505   2.975 -0.0443 -0.0240 -0.5746
  175SAPS   C2719926   4.620   2.677   3.109 -0.4645  0.4202  0.2137
  175SAPS   H7R19927   4.564   2.772   3.101  1.0437  1.1733 -2.6584
  175SAPS   H7S19928   4.722   2.707   3.143 -0.3950  0.6519 -0.2018
  175SAPS   C2819929   4.562   2.592   3.218  0.1580  0.3777  0.2281
  175SAPS   H8R19930   4.501   2.504   3.192 -0.6271  0.4336  1.7499
  175SAPS   C2919931   4.563   2.617   3.352  0.4009 -0.1824  0.3177
  175SAPS   H9R19932   4.524   2.549   3.428 -1.9640 -0.0995 -0.7246
  175SAPS  C21019933   4.617   2.748   3.402 -0.9464 -0.2186  0.1677
  175SAPS  H10R19934   4.535   2.822   3.408 -0.4415  0.2753  1.4494
  175SAPS  H10S19935   4.690   2.793   3.331 -1.0804 -1.2197 -0.6234
  175SAPS  C21119936   4.689   2.718   3.529  0.1132 -0.7078 -0.0745
  175SAPS  H11R19937   4.657   2.624   3.577 -0.3811 -0.2671  0.4771
  175SAPS  C21219938   4.782   2.793   3.599  0.4743 -0.3048  0.1650
  175SAPS  H12R19939   4.815   2.760   3.698  0.4555  1.4061  0.7833
  175SAPS  C21319940   4.855   2.918   3.560 -0.4510  0.5388 -0.4395
  175SAPS  H13R19941   4.846   2.994   3.641 -1.0878 -0.3768  0.3742
  175SAPS  H13S19942   4.811   2.966   3.470  1.3234  0.6126 -1.3026
  175SAPS  C21419943   5.007   2.907   3.540 -0.1222  0.1447 -0.7142
  175SAPS  H14R19944   5.070   2.946   3.622  1.0938 -0.7531 -1.1950
  175SAPS  C21519945   5.066   2.871   3.423  0.0393 -0.2914 -0.5931
  175SAPS  H15R19946   5.176   2.871   3.417  0.1749 -3.3342  0.1874
  175SAPS  C21619947   5.007   2.836   3.291 -0.0217 -0.1740  0.6911
  175SAPS  H16R19948   4.901   2.811   3.313  0.5559 -1.9611  1.6737
  175SAPS  H16S19949   5.056   2.741   3.258 -0.6970 -0.9365  1.8396
  175SAPS  C21719950   5.019   2.952   3.193  0.1573 -0.5861 -0.0066
  175SAPS  H17R19951   4.992   2.912   3.093 -2.4935  1.9119 -0.4520
  175SAPS  H17S19952   5.118   2.998   3.175 -1.0271  1.4983 -1.7885
  175SAPS  C21819953   4.918   3.065   3.228 -0.5243 -0.0494  0.9927
  175SAPS  H18R19954   4.955   3.160   3.185 -1.2744 -0.5183 -0.7803
  175SAPS  H18S19955   4.917   3.083   3.338  0.2548 -2.2122  1.4007
  175SAPS  C21919956   4.784   3.030   3.174 -0.0717  0.5167 -0.0439
  175SAPS  H19R19957   4.756   2.924   3.187 -0.2833  0.2548 -2.1744
  175SAPS  H19S19958   4.779   3.038   3.063  0.7340 -0.0217 -0.1211
  175SAPS  C22019959   4.664   3.124   3.215 -0.1627  0.3321 -0.1366
  175SAPS  H20R19960   4.656   3.214   3.151 -2.8572  0.4106  0.1873
  175SAPS  H20S19961   4.665   3.142   3.324  0.9138  0.0333 -0.0866
  175SAPS  H20T19962   4.565   3.077   3.196 -0.1338  0.4758 -0.6799
  175SAPS   C3319963   5.002   2.443   3.228  0.1786  0.6734  0.5604
  175SAPS   H3X19964   5.033   2.549   3.238  1.9464  0.4633 -1.8517
  175SAPS   H3Y19965   5.094   2.387   3.254  0.9562  0.5092 -2.2548
  175SAPS   C3419966   4.891   2.403   3.325 -1.2516  0.4682  0.2224
  175SAPS   H4X19967   4.879   2.293   3.316 -2.2951  0.4530  1.5330
  175SAPS   H4Y19968   4.798   2.459   3.300 -1.2040  0.6390  0.4302
  175SAPS   C3519969   4.923   2.447   3.471 -0.2019  0.4043 -0.2276
  175SAPS   H5X19970   4.904   2.557   3.468 -0.6856  0.3403  0.2208
  175SAPS   H5Y19971   5.031   2.438   3.491 -0.3341 -1.6632 -0.1921
  175SAPS   C3619972   4.832   2.371   3.564 -0.0518 -0.5774 -0.0235
  175SAPS   H6X19973   4.857   2.263   3.555 -1.0546 -0.8037 -0.2736
  175SAPS   H6Y19974   4.728   2.387   3.529  0.3967 -0.6639 -1.4682
  175SAPS   C3719975   4.844   2.428   3.708 -0.4354  0.1403  0.1298
  175SAPS   H7X19976   4.774   2.514   3.719 -0.6813 -0.1398  0.7996
  175SAPS   H7Y19977   4.944   2.474   3.723 -0.6643  1.0331 -0.9238
  175SAPS   C3819978   4.824   2.327   3.823 -0.1475  0.3170  0.3543
  175SAPS   H8X19979   4.828   2.372   3.925  1.8439  2.0102 -0.3880
  175SAPS   H8Y19980   4.917   2.266   3.821  0.5677  1.3794 -1.0149
  175SAPS   C3919981   4.695   2.241   3.796  0.1585  0.3593 -0.3264
  175SAPS   H9X19982   4.711   2.192   3.698  1.5366 -0.0657  0.0882
  175SAPS   H9Y19983   4.605   2.306   3.792  0.0396  0.2200  0.0041
  175SAPS  C31019984   4.669   2.133   3.907  0.0642  0.3364  0.3277
  175SAPS  H10X19985   4.755   2.062   3.905  0.3988  0.7170 -1.7890
  175SAPS  H10Y19986   4.587   2.074   3.861 -0.1868  0.3812  0.7153
  175SAPS  C31119987   4.613   2.195   4.038 -0.8267  0.6005 -0.2553
  175SAPS  H11X19988   4.518   2.246   4.011 -0.4091  0.9149 -1.1633
  175SAPS  H11Y19989   4.689   2.271   4.067 -1.5061  0.4535  2.1370
  175SAPS  C31219990   4.611   2.091   4.154 -0.0403  0.4878  0.2372
  175SAPS  H12X19991   4.714   2.051   4.165  0.0446  0.8192  0.6792
  175SAPS  H12Y19992   4.554   2.003   4.117 -0.3646  1.1074 -0.7673
  175SAPS  C31319993   4.569   2.146   4.286  0.1514  0.1445  0.1576
  175SAPS  H13X19994   4.458   2.155   4.285 -0.0413 -1.7936 -0.1974
  175SAPS  H13Y19995   4.614   2.247   4.297  0.4361 -0.0529  0.9371
  175SAPS  C31419996   4.590   2.076   4.418 -0.3400  1.4341 -0.8090
  175SAPS  H14X19997   4.522   2.109   4.499 -1.0768  0.4145 -0.9842
  175SAPS  H14Y19998   4.698   2.091   4.442  0.0896 -1.3284 -0.6274
  175SAPS  C31519999   4.584   1.916   4.417 -0.2740  0.1649 -0.3298
  175SAPS  H15X20000   4.636   1.882   4.509  1.2526  1.8916 -0.4901
  175SAPS  H15Y20001   4.638   1.889   4.324  0.6673  1.0146 -0.0609
  175SAPS  C31620002   4.443   1.851   4.422  0.3471 -0.1835  0.5828
  175SAPS  H16X20003   4.447   1.749   4.379  0.8128  1.1488 -2.8312
  175SAPS  H16Y20004   4.364   1.909   4.370 -1.4597 -1.2991  1.9441
  175SAPS  C31720005   4.388   1.825   4.569  0.1851  0.2957 -0.0352
  175SAPS  H17X20006   4.281   1.800   4.548 -0.7855  3.1093  1.0125
  175SAPS  H17Y20007   4.379   1.925   4.618  1.0754 -0.8238  2.5725
  175SAPS  C31820008   4.472   1.733   4.661  1.0638 -0.0871 -0.0589
  175SAPS  H18X20009   4.471   1.633   4.611  3.0421  1.4081 -3.4371
  175SAPS  H18Y20010   4.431   1.726   4.764  2.4193 -1.2125  0.4394
  175SAPS  H18Z20011   4.580   1.760   4.660  1.0904 -0.1993 -1.2017
  176SAPS     N20012   4.414   1.670   1.638  0.0456  0.0216  0.0336
  176SAPS   HN120013   4.356   1.754   1.661  1.4777  0.8351  0.8504
  176SAPS   HN220014   4.454   1.636   1.728  2.7706 -0.5959 -1.2895
  176SAPS   HN320015   4.498   1.685   1.578  1.6077 -0.0279  2.0735
  176SAPS   C1220016   4.328   1.569   1.578  0.0020  0.8475 -0.6813
  176SAPS  H12A20017   4.235   1.566   1.633  0.9977  1.2612  1.0895
  176SAPS   C1320018   4.296   1.588   1.429 -0.5266  0.4938  0.0457
  176SAPS  O13A20019   4.347   1.684   1.362  0.0044 -0.4176  0.1565
  176SAPS  O13B20020   4.205   1.515   1.381  0.2359 -0.4743  0.4615
  176SAPS   C1120021   4.392   1.429   1.593  0.5441  0.6166  0.3912
  176SAPS  H11A20022   4.470   1.420   1.515 -0.2067 -2.5359 -0.1122
  176SAPS  H11B20023   4.304   1.364   1.570 -0.5986  2.0477  0.5453
  176SAPS     P20024   4.552   1.291   1.746  0.3928  0.4085 -0.5068
  176SAPS   O1320025   4.497   1.162   1.703 -0.0762  0.1023 -0.7139
  176SAPS   O1420026   4.677   1.330   1.678 -0.4611  0.1199  0.2132
  176SAPS   O1220027   4.437   1.399   1.728  0.1181 -0.0756  0.4581
  176SAPS   O1120028   4.580   1.282   1.899  0.9773  0.3071  0.7122
  176SAPS    C120029   4.603   1.394   1.978 -0.4023 -0.2195 -0.6175
  176SAPS    HA20030   4.656   1.356   2.068  0.0752  1.7579 -0.0164
  176SAPS    HB20031   4.672   1.464   1.927  0.4079 -1.1083 -0.7652
  176SAPS    C220032   4.474   1.454   2.041 -0.4766 -0.0181 -0.6639
  176SAPS    HS20033   4.411   1.490   1.957  0.6555  2.4405 -0.5756
  176SAPS   O2120034   4.499   1.574   2.115  0.5608 -0.3646  0.3834
  176SAPS   C2120035   4.526   1.688   2.044 -0.7157  0.4432  0.2275
  176SAPS   O2220036   4.531   1.687   1.922  0.0247  0.2299  0.2759
  176SAPS   C2220037   4.536   1.809   2.138  0.7005  0.6170  0.4653
  176SAPS   H2R20038   4.644   1.833   2.154  0.5912  1.2424  0.2859
  176SAPS   H2S20039   4.503   1.887   2.066 -2.0139 -0.9706 -0.1335
  176SAPS    C320040   4.390   1.347   2.123  0.1511 -0.1758 -0.6046
  176SAPS    HX20041   4.349   1.267   2.058  1.0170  0.0583 -1.4521
  176SAPS    HY20042   4.307   1.410   2.164  0.2436  0.3064 -1.1481
  176SAPS   O3120043   4.466   1.288   2.232 -0.1756 -0.5901  0.6622
  176SAPS   C3120044   4.405   1.202   2.306 -0.2967  0.5411 -1.0347
  176SAPS   O3220045   4.295   1.149   2.284  0.4416  0.5438 -0.4539
  176SAPS   C3220046   4.494   1.171   2.428 -0.3337  0.0359  0.9147
  176SAPS   H2X20047   4.598   1.199   2.401 -0.9496  0.3741 -1.3184
  176SAPS   H2Y20048   4.487   1.060   2.436  0.1498 -0.1349 -0.6649
  176SAPS   C2320049   4.450   1.802   2.258 -0.0506 -0.3232  0.0163
  176SAPS   H3R20050   4.465   1.714   2.323 -2.9426  0.1593  1.5031
  176SAPS   H3S20051   4.343   1.784   2.235 -0.0610 -0.5523  0.2388
  176SAPS   C2420052   4.461   1.923   2.347  0.1324  0.1942 -0.3294
  176SAPS   H4R20053   4.369   1.899   2.404 -1.4362 -2.0844 -3.4877
  176SAPS   H4S20054   4.438   2.022   2.303  1.9615  1.8715  2.1687
  176SAPS   C2520055   4.597   1.917   2.423  0.4902 -0.1089 -0.5808
  176SAPS   H5R20056   4.681   1.975   2.381  1.7651 -1.1470  0.4282
  176SAPS   C2620057   4.619   1.851   2.542 -0.5079  0.6263 -0.0973
  176SAPS   H6R20058   4.722   1.850   2.581 -1.1773  3.1991  1.9990
  176SAPS   C2720059   4.509   1.773   2.611  0.1290 -0.0445 -0.1787
  176SAPS   H7R20060   4.442   1.730   2.534 -1.9172  1.2446  0.8101
  176SAPS   H7S20061   4.443   1.852   2.652  0.5403  1.6803 -2.5980
  176SAPS   C2820062   4.538   1.658   2.705 -0.3355  1.0421 -0.2400
  176SAPS   H8R20063   4.508   1.559   2.668  0.7227  0.1931  1.1120
  176SAPS   C2920064   4.608   1.676   2.819  0.2348 -0.1810  0.4135
  176SAPS   H9R20065   4.626   1.586   2.880 -0.7913  0.1214  1.1871
  176SAPS  C21020066   4.655   1.797   2.891  0.9253 -0.1278 -0.4212
  176SAPS  H10R20067   4.683   1.875   2.817 -0.8994 -0.2400 -1.2934
  176SAPS  H10S20068   4.747   1.773   2.948  1.8238  1.2170 -1.2368
  176SAPS  C21120069   4.547   1.849   2.982  0.2093  0.2317  0.5648
  176SAPS  H11R20070   4.468   1.912   2.938 -1.8903 -0.9186  2.4489
  176SAPS  C21220071   4.537   1.847   3.112  0.2060  0.0757 -0.7164
  176SAPS  H12R20072   4.454   1.901   3.159 -2.0527 -2.8431 -1.1072
  176SAPS  C21320073   4.619   1.757   3.197 -0.0187 -0.7063  0.0051
  176SAPS  H13R20074   4.703   1.811   3.247  1.6722 -0.7499 -2.5805
  176SAPS  H13S20075   4.671   1.685   3.130  1.0852 -0.2931  0.3993
  176SAPS  C21420076   4.544   1.666   3.287  0.2623  0.0153  0.0095
  176SAPS  H14R20077   4.447   1.626   3.256  0.5426 -0.1050 -0.7524
  176SAPS  C21520078   4.591   1.617   3.403  0.4002  0.0862 -0.0288
  176SAPS  H15R20079   4.519   1.561   3.465 -1.8809  4.5285  1.8245
  176SAPS  C21620080   4.729   1.639   3.468  0.1677  0.1230  0.0002
  176SAPS  H16R20081   4.752   1.747   3.456  0.3715 -0.1853 -3.7425
  176SAPS  H16S20082   4.801   1.569   3.419  0.4589 -0.4271  1.1820
  176SAPS  C21720083   4.725   1.615   3.618 -0.0553  0.1075 -0.0611
  176SAPS  H17R20084   4.829   1.624   3.655  0.1257  2.1929 -0.9521
  176SAPS  H17S20085   4.685   1.518   3.655 -1.7154  1.4329  1.8017
  176SAPS  C21820086   4.629   1.710   3.703 -0.4079  0.2356  0.0712
  176SAPS  H18R20087   4.539   1.699   3.639  1.4855 -2.1767 -2.4550
  176SAPS  H18S20088   4.681   1.807   3.684  2.8761 -1.5156 -0.6168
  176SAPS  C21920089   4.625   1.667   3.852 -0.5893 -0.1980  0.0653
  176SAPS  H19R20090   4.726   1.667   3.899  0.2389 -2.7198 -1.5238
  176SAPS  H19S20091   4.579   1.567   3.844 -0.0681 -0.3344 -1.9008
  176SAPS  C22020092   4.524   1.753   3.922 -0.0546  0.0887  0.2794
  176SAPS  H20R20093   4.561   1.857   3.928  2.1866 -0.7531  2.4506
  176SAPS  H20S20094   4.506   1.722   4.027  2.1112 -0.1721  0.6139
  176SAPS  H20T20095   4.427   1.750   3.868  1.1549 -1.4839 -1.9887
  176SAPS   C3320096   4.433   1.248   2.548  0.1233 -0.2813  0.8661
  176SAPS   H3X20097   4.324   1.230   2.535  0.1844  0.1909 -0.4380
  176SAPS   H3Y20098   4.457   1.356   2.542  1.6551 -0.6556 -1.0140
  176SAPS   C3420099   4.479   1.188   2.676 -0.2360 -0.7584  0.3849
  176SAPS   H4X20100   4.589   1.190   2.686 -0.0478 -3.1436 -0.6719
  176SAPS   H4Y20101   4.464   1.078   2.668  1.2342 -1.0447  1.2350
  176SAPS   C3520102   4.406   1.246   2.797 -0.4731  0.6682 -0.3319
  176SAPS   H5X20103   4.296   1.238   2.794 -0.5513 -0.8009  2.8874
  176SAPS   H5Y20104   4.419   1.356   2.801 -0.4363  0.6752 -0.6095
  176SAPS   C3620105   4.446   1.184   2.935  0.0086  0.4848 -0.0601
  176SAPS   H6X20106   4.557   1.184   2.935  0.0412  1.9978 -0.2947
  176SAPS   H6Y20107   4.423   1.076   2.938 -0.3180  0.5560  0.1533
  176SAPS   C3720108   4.395   1.264   3.045  0.3179 -0.8689 -0.0512
  176SAPS   H7X20109   4.288   1.294   3.045  0.1021 -1.6150  0.3358
  176SAPS   H7Y20110   4.453   1.358   3.044 -0.9234  0.1350  3.7652
  176SAPS   C3820111   4.404   1.190   3.182  0.1704 -0.1640  0.2579
  176SAPS   H8X20112   4.498   1.131   3.183  1.0640  1.0197 -2.4763
  176SAPS   H8Y20113   4.320   1.118   3.193 -0.7308  1.1473  2.5401
  176SAPS   C3920114   4.399   1.293   3.297  0.3290 -0.7621 -0.1689
  176SAPS   H9X20115   4.324   1.367   3.262  0.4790  0.1312  1.2924
  176SAPS   H9Y20116   4.492   1.353   3.301 -0.8050  1.0773 -0.1308
  176SAPS  C31020117   4.358   1.238   3.432 -0.2025  0.2636  0.3009
  176SAPS  H10X20118   4.443   1.179   3.473 -0.4593 -0.6214 -0.3864
  176SAPS  H10Y20119   4.266   1.175   3.429 -0.7519  1.0709 -0.7708
  176SAPS  C31120120   4.334   1.344   3.535  0.3115 -0.5893  0.6199
  176SAPS  H11X20121   4.258   1.414   3.494 -0.9073 -1.5028  1.2699
  176SAPS  H11Y20122   4.430   1.398   3.554  0.0626  0.3444 -0.6249
  176SAPS  C31220123   4.280   1.288   3.668  0.1327 -0.9381 -0.4050
  176SAPS  H12X20124   4.364   1.223   3.703  0.1290 -0.0965  1.2841
  176SAPS  H12Y20125   4.192   1.224   3.647  0.4003 -1.6404  0.5180
  176SAPS  C31320126   4.272   1.410   3.767  0.3357  0.2017  0.4249
  176SAPS  H13X20127   4.365   1.470   3.759  1.7014 -2.0175 -1.3546
  176SAPS  H13Y20128   4.272   1.369   3.871 -0.4020 -1.3662 -0.1693
  176SAPS  C31420129   4.152   1.498   3.734 -0.2268 -0.0705  0.2458
  176SAPS  H14X20130   4.058   1.442   3.715  0.3258 -3.0084  4.7431
  176SAPS  H14Y20131   4.177   1.556   3.642 -2.0611  0.9783  0.3562
  176SAPS  C31520132   4.101   1.608   3.827  0.7304  0.3862 -0.0202
  176SAPS  H15X20133   4.031   1.672   3.769  0.6824 -1.6957 -2.4247
  176SAPS  H15Y20134   4.191   1.669   3.852  2.5097 -1.3018 -1.9006
  176SAPS  C31620135   4.032   1.559   3.958  0.3150  0.1790 -0.0522
  176SAPS  H16X20136   4.090   1.486   4.018  0.6278 -1.0011 -1.7209
  176SAPS  H16Y20137   3.938   1.505   3.933 -0.8043  1.2410  1.6208
  176SAPS  C31720138   3.985   1.681   4.043  0.0302 -0.1936 -0.0589
  176SAPS  H17X20139   3.935   1.758   3.981 -2.6457 -0.9299  1.0203
  176SAPS  H17Y20140   4.077   1.719   4.091 -1.2344  2.1931  0.5989
  176SAPS  C31820141   3.880   1.642   4.143 -0.1178  0.5088 -0.3153
  176SAPS  H18X20142   3.855   1.734   4.200  2.6728  1.1176  0.0890
  176SAPS  H18Y20143   3.928   1.563   4.205 -3.4318 -1.0871  0.4058
  176SAPS  H18Z20144   3.800   1.593   4.083  1.5430  0.1077 -2.3329
  177SAPS     N20145   2.194   4.339   1.967  0.1499  0.4008  0.2737
  177SAPS   HN120146   2.218   4.433   2.005  1.1930  1.5418 -2.8892
  177SAPS   HN220147   2.154   4.268   2.031 -1.0534  1.2827  0.5288
  177SAPS   HN320148   2.285   4.305   1.929  0.7804  1.3543  0.8937
  177SAPS   C1220149   2.100   4.347   1.847  0.1013  0.5227 -0.2794
  177SAPS  H12A20150   2.074   4.451   1.835  0.5099  0.8748  1.6189
  177SAPS   C1320151   2.157   4.284   1.715  0.1857  0.3116  0.8361
  177SAPS  O13A20152   2.264   4.208   1.712 -0.2380 -0.4347  0.1019
  177SAPS  O13B20153   2.083   4.277   1.614 -0.1229 -0.0568  0.0973
  177SAPS   C1120154   1.968   4.275   1.885  0.0167  0.5981 -0.0008
  177SAPS  H11A20155   1.973   4.167   1.911 -2.2819  0.3896 -0.1971
  177SAPS  H11B20156   1.904   4.275   1.795 -1.7527 -0.7680  1.1826
  177SAPS     P20157   1.750   4.313   2.009  0.2581 -0.0471  0.1162
  177SAPS   O1320158   1.681   4.404   1.916  0.3018 -0.0862  0.1467
  177SAPS   O1420159   1.724   4.170   2.011 -0.2084 -0.4827 -1.5885
  177SAPS   O1220160   1.902   4.340   1.992 -0.7626 -0.1720 -0.2239
  177SAPS   O1120161   1.722   4.359   2.157  0.1180 -0.7083  0.3628
  177SAPS    C120162   1.813   4.424   2.240  0.2239 -0.4292  0.0669
  177SAPS    HA20163   1.870   4.501   2.184 -2.0418  0.3665 -1.2661
  177SAPS    HB20164   1.743   4.469   2.314 -0.3522  1.1498 -1.3888
  177SAPS    C220165   1.906   4.331   2.316 -0.6843 -0.0804 -0.3993
  177SAPS    HS20166   1.958   4.273   2.236  2.0453 -1.0431  1.8671
  177SAPS   O2120167   1.828   4.255   2.414 -0.4204 -0.1341 -0.2533
  177SAPS   C2120168   1.888   4.150   2.466  0.4875 -0.2088 -0.0485
  177SAPS   O2220169   2.001   4.114   2.441  0.1559 -0.3392 -0.0998
  177SAPS   C2220170   1.788   4.071   2.564 -0.7193 -0.1339 -0.2337
  177SAPS   H2R20171   1.696   4.132   2.577  0.1897  1.4214 -0.7745
  177SAPS   H2S20172   1.763   3.972   2.521 -0.1590 -0.9040  1.1586
  177SAPS    C320173   2.016   4.427   2.387  0.0859  0.4816  0.1824
  177SAPS    HX20174   2.068   4.481   2.305  0.4726 -1.4250 -0.8827
  177SAPS    HY20175   2.081   4.352   2.438 -1.4592 -1.2079 -0.2754
  177SAPS   O3120176   1.955   4.517   2.487 -0.3895  0.1191 -0.1510
  177SAPS   C3120177   2.005   4.644   2.489  0.4659  0.1961  0.4157
  177SAPS   O3220178   2.098   4.681   2.417 -0.5701  0.3348  0.1811
  177SAPS   C3220179   1.916   4.737   2.576 -0.2868 -0.0091  0.0554
  177SAPS   H2X20180   1.823   4.688   2.612 -0.9006  1.2298  0.2255
  177SAPS   H2Y20181   1.887   4.827   2.517 -0.5279 -1.6043 -2.4555
  177SAPS   C2320182   1.868   4.036   2.693 -1.0721 -0.5396  0.2452
  177SAPS   H3R20183   1.962   3.997   2.648 -0.7476  0.3498  0.1240
  177SAPS   H3S20184   1.810   3.954   2.740 -1.7041  0.4553  1.2488
  177SAPS   C2420185   1.882   4.159   2.782 -0.5801 -0.7988 -0.2561
  177SAPS   H4R20186   1.778   4.182   2.814  0.6598  2.3079  2.0198
  177SAPS   H4S20187   1.918   4.247   2.724 -0.6815  0.7342  1.8985
  177SAPS   C2520188   1.964   4.127   2.905  0.3206 -0.7048 -0.5956
  177SAPS   H5R20189   1.926   4.050   2.973  0.1708 -0.4326 -0.3691
  177SAPS   C2620190   2.086   4.171   2.936 -0.3042 -0.8244 -0.4479
  177SAPS   H6R20191   2.146   4.115   3.009  0.5482  1.2250  0.5182
  177SAPS   C2720192   2.165   4.278   2.857 -0.2892  0.0450 -0.7594
  177SAPS   H7R20193   2.228   4.339   2.926 -1.5130  0.1311  0.3204
  177SAPS   H7S20194   2.096   4.361   2.828  2.0411  3.0949  1.7508
  177SAPS   C2820195   2.226   4.232   2.727 -0.2237  0.3125  0.2215
  177SAPS   H8R20196   2.156   4.208   2.646 -0.1888 -0.1548  0.3247
  177SAPS   C2920197   2.355   4.189   2.707  0.0970  0.4328  1.1671
  177SAPS   H9R20198   2.367   4.135   2.612 -2.6228 -1.4030  1.7547
  177SAPS  C21020199   2.469   4.201   2.793 -0.7164 -0.3172  0.2623
  177SAPS  H10R20200   2.438   4.266   2.878 -0.7356  1.2556 -0.9087
  177SAPS  H10S20201   2.551   4.256   2.743  0.5081 -0.1704  2.2904
  177SAPS  C21120202   2.524   4.067   2.834 -0.1594  0.5028 -0.5808
  177SAPS  H11R20203   2.529   3.992   2.753 -1.1811  0.8145 -0.9427
  177SAPS  C21220204   2.573   4.029   2.955 -0.9350 -0.4598  0.0585
  177SAPS  H12R20205   2.613   3.929   2.979  0.5629  0.2978  0.8865
  177SAPS  C21320206   2.595   4.121   3.073 -0.3988 -0.0161 -0.0080
  177SAPS  H13R20207   2.580   4.228   3.045 -2.5094 -0.1449  0.5049
  177SAPS  H13S20208   2.698   4.112   3.113 -0.3872  1.7428  0.4497
  177SAPS  C21420209   2.509   4.088   3.190 -0.1763  0.2715  0.1031
  177SAPS  H14R20210   2.502   3.979   3.208  2.2125  0.3797  2.2151
  177SAPS  C21520211   2.426   4.163   3.258  0.2720 -0.2919 -0.3508
  177SAPS  H15R20212   2.372   4.120   3.344  1.9644 -0.5820  0.6168
  177SAPS  C21620213   2.409   4.309   3.257  0.2628 -0.0463 -0.1825
  177SAPS  H16R20214   2.445   4.336   3.156 -0.6215 -1.5841 -0.9439
  177SAPS  H16S20215   2.469   4.350   3.341 -2.1054  1.5399  0.8621
  177SAPS  C21720216   2.277   4.376   3.268  0.1679  0.3151  0.0808
  177SAPS  H17R20217   2.225   4.345   3.361 -0.5001 -0.3367 -0.4907
  177SAPS  H17S20218   2.225   4.333   3.180  0.7218 -2.0496  0.8141
  177SAPS  C21820219   2.290   4.528   3.254 -0.3828  0.2337 -0.1456
  177SAPS  H18R20220   2.191   4.557   3.214  0.1169 -0.2714 -1.8622
  177SAPS  H18S20221   2.369   4.553   3.179 -0.4520 -1.9347 -1.0364
  177SAPS  C21920222   2.315   4.612   3.379  0.7211 -0.5249 -0.2912
  177SAPS  H19R20223   2.330   4.716   3.342  1.4236 -0.6571 -0.3793
  177SAPS  H19S20224   2.416   4.596   3.421  1.4300  0.9189 -1.3657
  177SAPS  C22020225   2.197   4.622   3.485  0.5143 -0.1643 -0.3601
  177SAPS  H20R20226   2.121   4.555   3.440  0.3536  0.0353 -0.3891
  177SAPS  H20S20227   2.162   4.727   3.495  0.8161 -0.0231 -0.7167
  177SAPS  H20T20228   2.223   4.584   3.586  1.2074  0.1348 -0.4149
  177SAPS   C3320229   1.990   4.794   2.695 -0.1154 -0.3979 -0.5269
  177SAPS   H3X20230   1.915   4.822   2.772  1.2286 -2.6369  1.7637
  177SAPS   H3Y20231   2.059   4.870   2.651 -1.5897  2.3753  1.6136
  177SAPS   C3420232   2.076   4.695   2.784 -0.7465  0.3172 -0.0621
  177SAPS   H4X20233   2.133   4.623   2.721  0.1501 -1.4863  2.6691
  177SAPS   H4Y20234   1.998   4.635   2.836 -0.3173 -1.4773 -1.3932
  177SAPS   C3520235   2.169   4.760   2.892  0.1952 -0.2227 -0.2855
  177SAPS   H5X20236   2.259   4.809   2.848  0.1420  0.8269  0.7422
  177SAPS   H5Y20237   2.215   4.681   2.956 -0.9907 -0.0102  0.8581
  177SAPS   C3620238   2.105   4.861   2.983 -0.0067  0.2607  0.2830
  177SAPS   H6X20239   2.047   4.810   3.063 -0.3986  1.6437  0.9121
  177SAPS   H6Y20240   2.035   4.924   2.925  0.3943  0.7619  0.3317
  177SAPS   C3720241   2.210   4.951   3.043  0.8780 -0.0788 -0.7430
  177SAPS   H7X20242   2.249   5.016   2.962 -1.9250  1.1095 -1.2807
  177SAPS   H7Y20243   2.289   4.887   3.086  0.1586  0.6118  1.7917
  177SAPS   C3820244   2.164   5.046   3.155  0.4929  0.0408 -0.3014
  177SAPS   H8X20245   2.099   4.985   3.221  2.0108  0.5124  1.7285
  177SAPS   H8Y20246   2.108   5.133   3.111  2.1884  1.3567  0.0414
  177SAPS   C3920247   2.271   5.098   3.246 -0.4689 -0.2133  0.3625
  177SAPS   H9X20248   2.329   5.179   3.197 -0.8978 -0.0282  0.1622
  177SAPS   H9Y20249   2.346   5.017   3.258 -0.4399 -0.3709 -0.8334
  177SAPS  C31020250   2.216   5.142   3.380 -0.7567 -0.0665 -0.0973
  177SAPS  H10X20251   2.152   5.060   3.420 -0.7262 -0.7890 -1.4672
  177SAPS  H10Y20252   2.157   5.236   3.376 -0.8166 -0.0483  0.9701
  177SAPS  C31120253   2.320   5.140   3.490 -0.0820 -0.2523  0.3487
  177SAPS  H11X20254   2.415   5.195   3.473  1.3370 -2.9819 -1.0794
  177SAPS  H11Y20255   2.351   5.034   3.505  0.6720 -0.0063  0.5614
  177SAPS  C31220256   2.267   5.180   3.630 -0.5529 -0.8099  0.3639
  177SAPS  H12X20257   2.172   5.132   3.663  0.6370 -1.5601  2.9993
  177SAPS  H12Y20258   2.245   5.289   3.622  0.4366 -0.7258 -1.6636
  177SAPS  C31320259   2.366   5.147   3.741 -0.3255 -0.5386  0.2984
  177SAPS  H13X20260   2.354   5.217   3.826  0.5457  0.0830 -0.0763
  177SAPS  H13Y20261   2.467   5.154   3.695 -0.1151 -0.0377  0.8159
  177SAPS  C31420262   2.344   5.012   3.808 -0.7147  0.0024  0.2615
  177SAPS  H14X20263   2.365   4.926   3.741  2.3379 -0.5736  1.7754
  177SAPS  H14Y20264   2.242   5.003   3.851 -0.4244  1.7556  1.3947
  177SAPS  C31520265   2.455   4.997   3.914  0.1159 -0.1843  0.3251
  177SAPS  H15X20266   2.447   5.077   3.990 -1.2045 -0.3484  0.3800
  177SAPS  H15Y20267   2.549   5.002   3.854 -1.1489  0.7059 -1.7144
  177SAPS  C31620268   2.435   4.869   3.986 -1.0864  0.4519 -0.6079
  177SAPS  H16X20269   2.442   4.784   3.915  0.7064 -1.3716  1.5980
  177SAPS  H16Y20270   2.339   4.877   4.042 -1.7569  1.3246 -1.8305
  177SAPS  C31720271   2.540   4.856   4.093  0.5846 -0.5546 -0.1673
  177SAPS  H17X20272   2.542   4.936   4.170 -2.6064 -0.7363  0.2414
  177SAPS  H17Y20273   2.639   4.856   4.042  0.7535 -1.9327  0.1093
  177SAPS  C31820274   2.524   4.729   4.167  0.0830 -0.5741  0.2237
  177SAPS  H18X20275   2.588   4.725   4.257  1.8333  0.8467 -0.8947
  177SAPS  H18Y20276   2.561   4.646   4.103  1.0180  0.5939 -0.8026
  177SAPS  H18Z20277   2.422   4.711   4.209 -0.2321  1.5041  0.4583
  178SAPS     N20278   5.259   5.414   1.872 -0.3833  0.1650 -0.7270
  178SAPS   HN120279   5.334   5.437   1.940  0.6149 -1.9553 -1.0203
  178SAPS   HN220280   5.220   5.320   1.895  3.0146 -1.2008 -0.0073
  178SAPS   HN320281   5.304   5.404   1.779  0.3767  0.8506 -0.4392
  178SAPS   C1220282   5.156   5.515   1.851 -0.3888  0.1470 -0.0452
  178SAPS  H12A20283   5.186   5.595   1.785 -0.9484  0.4350  0.0387
  178SAPS   C1320284   5.038   5.457   1.780  1.2320 -0.0255  0.6522
  178SAPS  O13A20285   5.029   5.334   1.739 -0.7226  0.2677 -0.1906
  178SAPS  O13B20286   4.936   5.536   1.772  0.2098 -0.3136 -0.4148
  178SAPS   C1120287   5.119   5.577   1.987  0.0482 -0.2110 -0.1171
  178SAPS  H11A20288   5.065   5.494   2.037 -1.4887  0.2420 -0.9680
  178SAPS  H11B20289   5.055   5.667   1.972  2.6169  1.5035 -1.6105
  178SAPS     P20290   5.271   5.587   2.208 -0.0389  0.1541  0.2154
  178SAPS   O1320291   5.326   5.449   2.207  0.6148  0.3123 -0.2638
  178SAPS   O1420292   5.349   5.697   2.266 -0.6106  0.3441 -0.1550
  178SAPS   O1220293   5.239   5.612   2.056  0.0918 -0.8500 -0.2123
  178SAPS   O1120294   5.135   5.589   2.270  0.0824  0.0205  0.0713
  178SAPS    C120295   5.066   5.708   2.311  0.2116  0.8795 -0.3857
  178SAPS    HA20296   5.129   5.770   2.378  1.8854 -1.5800  0.4529
  178SAPS    HB20297   5.037   5.768   2.222  0.1713 -0.6687 -1.4647
  178SAPS    C220298   4.929   5.665   2.374 -0.7398  0.0765 -0.4419
  178SAPS    HS20299   4.867   5.757   2.385  0.2555  0.5570  1.6408
  178SAPS   O2120300   4.947   5.600   2.501 -0.1294  0.0719  0.4491
  178SAPS   C2120301   4.984   5.667   2.602  0.2505  0.5784 -0.9533
  178SAPS   O2220302   5.013   5.783   2.607 -0.0194  0.1853  0.3581
  178SAPS   C2220303   4.988   5.581   2.725  0.7646  0.4600  0.5301
  178SAPS   H2R20304   4.895   5.603   2.781 -0.4272 -1.0027 -0.7900
  178SAPS   H2S20305   4.984   5.473   2.704 -1.3809  0.5721  0.1525
  178SAPS    C320306   4.864   5.560   2.284  0.1546  0.1705 -0.6790
  178SAPS    HX20307   4.937   5.477   2.278  0.2375  0.1137  0.7163
  178SAPS    HY20308   4.856   5.589   2.177  0.2277  1.4699 -0.3509
  178SAPS   O3120309   4.733   5.520   2.336 -0.1087  0.4607 -0.5586
  178SAPS   C3120310   4.735   5.401   2.399  0.4461 -0.0410  0.3989
  178SAPS   O3220311   4.835   5.339   2.434 -0.0593 -0.5406  0.2557
  178SAPS   C3220312   4.592   5.370   2.446  0.6769 -0.2974  0.6283
  178SAPS   H2X20313   4.602   5.261   2.465  1.1166 -0.5518 -0.9401
  178SAPS   H2Y20314   4.522   5.388   2.363 -0.5123 -0.3326  1.5976
  178SAPS   C2320315   5.115   5.597   2.811  0.0487 -0.1414 -0.2870
  178SAPS   H3R20316   5.121   5.705   2.834 -1.5881 -0.2181  0.6814
  178SAPS   H3S20317   5.205   5.570   2.752 -1.5652 -1.8882 -2.1300
  178SAPS   C2420318   5.108   5.510   2.937  0.3661 -0.5029  0.6054
  178SAPS   H4R20319   5.122   5.408   2.894 -0.9925  0.6058 -2.8819
  178SAPS   H4S20320   5.007   5.514   2.983 -0.6887 -0.8713 -1.5533
  178SAPS   C2520321   5.218   5.562   3.034 -0.8586 -0.2853  0.3750
  178SAPS   H5R20322   5.313   5.571   2.979 -0.6734  1.4411  0.9098
  178SAPS   C2620323   5.214   5.614   3.161  0.3841 -0.4229  0.4831
  178SAPS   H6R20324   5.308   5.646   3.209 -0.7530  1.5019  1.5313
  178SAPS   C2720325   5.094   5.604   3.253 -0.6806 -0.2275  0.3660
  178SAPS   H7R20326   5.084   5.500   3.289 -0.7598 -0.4797 -0.3699
  178SAPS   H7S20327   4.998   5.629   3.203 -0.0361 -0.8841 -1.2751
  178SAPS   C2820328   5.119   5.698   3.361  0.2978  0.2340  0.3652
  178SAPS   H8R20329   5.090   5.802   3.338  1.2256  0.4571  0.1928
  178SAPS   C2920330   5.172   5.673   3.480  0.2209  0.2112 -0.8833
  178SAPS   H9R20331   5.201   5.759   3.542  1.6185 -0.6155 -0.3668
  178SAPS  C21020332   5.218   5.539   3.538 -0.0643 -0.4515  0.1851
  178SAPS  H10R20333   5.298   5.551   3.614 -0.0832 -1.0603  0.3122
  178SAPS  H10S20334   5.260   5.473   3.459 -0.8453 -1.3376  0.4851
  178SAPS  C21120335   5.094   5.470   3.591 -0.1404 -0.4468 -0.2977
  178SAPS  H11R20336   5.002   5.506   3.543 -0.9546  0.3059  1.7328
  178SAPS  C21220337   5.084   5.394   3.700  0.2278 -0.0687 -0.1372
  178SAPS  H12R20338   4.987   5.344   3.718  0.8452 -1.0068  0.6728
  178SAPS  C21320339   5.186   5.336   3.795 -0.3093 -0.1797  0.2861
  178SAPS  H13R20340   5.285   5.359   3.750 -0.0752 -2.9389 -0.7852
  178SAPS  H13S20341   5.172   5.226   3.802 -1.9637 -0.0590 -0.7470
  178SAPS  C21420342   5.193   5.404   3.931  0.1204 -0.1248 -0.3368
  178SAPS  H14R20343   5.209   5.513   3.933 -0.8659  0.0281 -0.0132
  178SAPS  C21520344   5.192   5.343   4.051  0.0956 -0.0388 -0.3454
  178SAPS  H15R20345   5.208   5.395   4.147 -0.4105 -2.8177  1.3775
  178SAPS  C21620346   5.182   5.193   4.081 -0.4566  0.8445  0.0126
  178SAPS  H16R20347   5.280   5.147   4.106 -0.3875 -0.2830 -2.1848
  178SAPS  H16S20348   5.154   5.138   3.989  1.5304 -0.1020 -0.0790
  178SAPS  C21720349   5.090   5.152   4.199 -0.1105  0.0445  0.2969
  178SAPS  H17R20350   4.985   5.171   4.167 -0.0460 -0.5150 -0.2836
  178SAPS  H17S20351   5.112   5.210   4.291  2.2927 -3.6748  2.3141
  178SAPS  C21820352   5.122   5.009   4.247 -0.0941 -0.0617 -0.9314
  178SAPS  H18R20353   5.131   4.952   4.152 -2.2062  0.6005 -1.5749
  178SAPS  H18S20354   5.038   4.975   4.311 -0.4354  2.1607 -0.1159
  178SAPS  C21920355   5.249   4.999   4.333 -0.1022  0.1705 -0.0898
  178SAPS  H19R20356   5.208   5.014   4.435  0.0408 -1.0168  0.1539
  178SAPS  H19S20357   5.330   5.070   4.304  0.3741 -1.3307 -2.6861
  178SAPS  C22020358   5.310   4.858   4.327  0.0110 -0.4273  0.0563
  178SAPS  H20R20359   5.230   4.783   4.308 -1.1062  0.4123  1.3039
  178SAPS  H20S20360   5.370   4.832   4.416 -1.1865 -1.6925  0.5320
  178SAPS  H20T20361   5.378   4.873   4.240 -0.6700  3.3678  0.0185
  178SAPS   C3320362   4.539   5.437   2.570  0.3227 -0.4522 -0.5075
  178SAPS   H3X20363   4.431   5.411   2.580  0.6218 -1.3001  0.8330
  178SAPS   H3Y20364   4.547   5.548   2.572 -0.1874 -0.4149  0.7900
  178SAPS   C3420365   4.619   5.401   2.692  0.3605  0.3191  0.6789
  178SAPS   H4X20366   4.726   5.429   2.679  0.1424  0.8162 -0.0806
  178SAPS   H4Y20367   4.607   5.291   2.693  0.7714  0.2718  1.3587
  178SAPS   C3520368   4.570   5.465   2.823  0.3723  0.0079  0.2861
  178SAPS   H5X20369   4.461   5.478   2.838  0.5719  1.1588  0.9417
  178SAPS   H5Y20370   4.613   5.568   2.820  1.6894 -0.5360 -1.6002
  178SAPS   C3620371   4.630   5.400   2.945 -0.9494  0.0048 -0.7795
  178SAPS   H6X20372   4.741   5.397   2.940 -0.8570 -1.6699  1.0334
  178SAPS   H6Y20373   4.598   5.294   2.953 -0.7856 -0.1004 -1.4990
  178SAPS   C3720374   4.578   5.482   3.068  0.0381 -0.9150 -0.0863
  178SAPS   H7X20375   4.467   5.487   3.069  0.0092 -1.0287  2.1069
  178SAPS   H7Y20376   4.612   5.587   3.075 -0.4876 -0.8462  4.2958
  178SAPS   C3820377   4.612   5.401   3.194  0.2826 -0.4793  0.7242
  178SAPS   H8X20378   4.721   5.380   3.201  0.5837  0.3996 -0.7878
  178SAPS   H8Y20379   4.547   5.312   3.181 -0.3204  0.2155 -1.2638
  178SAPS   C3920380   4.570   5.471   3.324 -0.5382 -0.1604  0.0652
  178SAPS   H9X20381   4.551   5.385   3.391 -0.8491 -0.9312 -0.9781
  178SAPS   H9Y20382   4.473   5.524   3.334 -1.2437 -1.6665  1.4867
  178SAPS  C31020383   4.681   5.573   3.373 -0.0288  0.8300  0.2065
  178SAPS  H10X20384   4.693   5.657   3.301  0.5468  0.6026  0.0256
  178SAPS  H10Y20385   4.777   5.518   3.385 -0.6934 -0.4571 -0.2069
  178SAPS  C31120386   4.667   5.633   3.512 -0.0193  0.8380 -0.1145
  178SAPS  H11X20387   4.661   5.552   3.587  1.0573  1.5415  0.7627
  178SAPS  H11Y20388   4.570   5.685   3.523 -0.3718 -0.1147  1.4824
  178SAPS  C31220389   4.784   5.724   3.563  0.7476 -0.3296  0.0354
  178SAPS  H12X20390   4.795   5.817   3.502 -0.2135  0.7142  1.3962
  178SAPS  H12Y20391   4.881   5.671   3.549  1.4926  1.3963 -1.9177
  178SAPS  C31320392   4.778   5.753   3.710  0.4975  0.3645 -0.1650
  178SAPS  H13X20393   4.792   5.654   3.759  1.0953  0.2881 -0.4870
  178SAPS  H13Y20394   4.678   5.793   3.737  0.3930  0.2936 -0.4528
  178SAPS  C31420395   4.882   5.843   3.770  0.1561 -0.1156 -0.2717
  178SAPS  H14X20396   4.833   5.913   3.841 -1.5697 -0.3087 -1.2231
  178SAPS  H14Y20397   4.931   5.898   3.687  1.3959  0.8784  1.0858
  178SAPS  C31520398   4.978   5.753   3.850  1.1651 -0.2487 -0.0483
  178SAPS  H15X20399   5.008   5.677   3.776 -1.0448 -0.5883 -0.6478
  178SAPS  H15Y20400   4.928   5.705   3.937  0.6679 -2.1721 -1.3516
  178SAPS  C31620401   5.101   5.837   3.903  0.3040  0.3652 -0.4149
  178SAPS  H16X20402   5.146   5.899   3.822 -2.5021  2.1755 -0.6998
  178SAPS  H16Y20403   5.180   5.766   3.934  0.7601  0.0121 -2.2631
  178SAPS  C31720404   5.062   5.939   4.015  0.5564 -0.0664  0.1873
  178SAPS  H17X20405   5.031   5.880   4.104  1.0759  0.4137  0.6953
  178SAPS  H17Y20406   4.974   6.002   3.990 -1.1363 -3.0030 -1.9346
  178SAPS  C31820407   5.177   6.037   4.043 -0.0550 -0.8049  0.0158
  178SAPS  H18X20408   5.164   6.093   4.138 -3.2548 -0.1561 -0.6639
  178SAPS  H18Y20409   5.185   6.119   3.969 -2.1276  1.0020  1.6609
  178SAPS  H18Z20410   5.268   5.977   4.063  0.1804  0.0738  1.8062
  179SAPS     N20411   0.683   2.504   1.804 -0.0438 -0.8348  0.2060
  179SAPS   HN120412   0.705   2.596   1.848  0.2324  0.5825 -2.6627
  179SAPS   HN220413   0.767   2.446   1.782  0.5885 -0.0122  0.4134
  179SAPS   HN320414   0.625   2.518   1.718 -0.0779  1.4165  0.5393
  179SAPS   C1220415   0.589   2.437   1.903  0.0051  0.3987 -0.1395
  179SAPS  H12A20416   0.491   2.482   1.908 -1.1812 -2.0282 -0.0589
  179SAPS   C1320417   0.543   2.295   1.858 -0.6309 -0.2972  0.6039
  179SAPS  O13A20418   0.589   2.257   1.747 -0.2385  0.3861  0.4656
  179SAPS  O13B20419   0.451   2.229   1.910  0.1380  0.3280 -0.2230
  179SAPS   C1120420   0.653   2.433   2.049 -0.3848 -0.1969  0.3677
  179SAPS  H11A20421   0.726   2.349   2.040  0.8288  0.8230  0.3768
  179SAPS  H11B20422   0.586   2.412   2.135 -0.7178  0.3479  0.2414
  179SAPS     P20423   0.735   2.637   2.207 -0.2241 -0.0486 -0.1634
  179SAPS   O1320424   0.845   2.735   2.192  0.1432 -0.7624 -0.4483
  179SAPS   O1420425   0.597   2.685   2.229 -0.4986  0.1203  0.3559
  179SAPS   O1220426   0.727   2.553   2.076  0.1859 -0.0288  0.0966
  179SAPS   O1120427   0.778   2.530   2.312 -0.6272 -0.6150  0.5637
  179SAPS    C120428   0.900   2.454   2.312 -0.4923 -1.0243 -0.0755
  179SAPS    HA20429   0.878   2.346   2.302 -2.5598 -0.6992  0.4535
  179SAPS    HB20430   0.966   2.469   2.224  0.6339 -2.1940  0.5535
  179SAPS    C220431   0.991   2.491   2.430 -0.4163 -0.1723  0.0626
  179SAPS    HS20432   1.071   2.560   2.399 -1.2108 -0.1219 -2.0504
  179SAPS   O2120433   1.055   2.369   2.476  0.4395 -0.3493 -0.1039
  179SAPS   C2120434   1.153   2.321   2.395 -0.4404 -0.1383  0.0114
  179SAPS   O2220435   1.173   2.350   2.279  0.5506 -0.0437 -0.3520
  179SAPS   C2220436   1.239   2.228   2.478  0.1560  0.3664 -0.4717
  179SAPS   H2R20437   1.177   2.137   2.492  0.8365  0.1332  1.2720
  179SAPS   H2S20438   1.329   2.197   2.422  0.8855 -2.7739  2.1338
  179SAPS    C320439   0.913   2.545   2.552  1.0471 -0.1317 -0.2917
  179SAPS    HX20440   0.836   2.467   2.570  0.3547  0.0608 -2.1709
  179SAPS    HY20441   0.867   2.644   2.531 -0.2739 -0.9493 -1.4040
  179SAPS   O3120442   0.998   2.551   2.676 -0.1140  0.0344 -0.2649
  179SAPS   C3120443   1.084   2.647   2.676  0.4200  0.3808  0.0355
  179SAPS   O3220444   1.094   2.739   2.601 -0.4761  0.3616 -0.2782
  179SAPS   C3220445   1.203   2.613   2.778 -0.0216  0.3828  0.3635
  179SAPS   H2X20446   1.294   2.610   2.714 -0.5337 -3.7725 -0.4566
  179SAPS   H2Y20447   1.203   2.505   2.803  0.9571 -0.4680 -2.8733
  179SAPS   C2320448   1.279   2.286   2.617 -0.4515  0.1075 -1.2618
  179SAPS   H3R20449   1.191   2.290   2.684  0.7650 -1.4920  0.5506
  179SAPS   H3S20450   1.327   2.385   2.602 -0.0252 -0.1897 -1.9288
  179SAPS   C2420451   1.386   2.190   2.684 -0.2657 -0.1878  0.8711
  179SAPS   H4R20452   1.434   2.244   2.768  1.2929  0.4725 -0.3781
  179SAPS   H4S20453   1.466   2.168   2.610 -0.5164 -0.1004  0.5713
  179SAPS   C2520454   1.325   2.058   2.726 -0.6091  0.1396 -0.1664
  179SAPS   H5R20455   1.325   1.978   2.650  0.1156 -1.5514  1.5498
  179SAPS   C2620456   1.263   2.037   2.844  0.1887  0.5398  0.7279
  179SAPS   H6R20457   1.225   1.936   2.863  2.9494 -0.4071  1.7028
  179SAPS   C2720458   1.233   2.140   2.953 -0.1217  0.2746  0.0958
  179SAPS   H7R20459   1.315   2.215   2.959 -0.6586  0.8254  0.6356
  179SAPS   H7S20460   1.236   2.078   3.045 -1.6885  0.8612  0.5709
  179SAPS   C2820461   1.098   2.208   2.938  0.0066 -0.0217 -0.3832
  179SAPS   H8R20462   1.071   2.243   2.837  0.3635  0.9295 -0.1573
  179SAPS   C2920463   1.010   2.231   3.041 -0.6202 -0.1613  0.5906
  179SAPS   H9R20464   0.914   2.273   3.006  0.0198  0.1727 -0.8140
  179SAPS  C21020465   1.028   2.210   3.184 -0.1869  0.0849  0.2343
  179SAPS  H10R20466   1.047   2.101   3.190 -2.3375 -0.4031 -0.9773
  179SAPS  H10S20467   0.934   2.235   3.237  0.9528 -0.4199  2.6491
  179SAPS  C21120468   1.143   2.283   3.253  0.1057  0.4119  0.2201
  179SAPS  H11R20469   1.206   2.345   3.187 -1.6014  1.4514 -0.4949
  179SAPS  C21220470   1.164   2.289   3.387  0.2732 -0.0800 -0.1377
  179SAPS  H12R20471   1.240   2.352   3.435 -1.4172  0.7100  1.6394
  179SAPS  C21320472   1.104   2.203   3.495  0.1766  0.0500 -0.5325
  179SAPS  H13R20473   0.998   2.174   3.477 -0.6378  1.1727  1.9750
  179SAPS  H13S20474   1.084   2.272   3.579 -0.1680  0.7505 -1.1686
  179SAPS  C21420475   1.187   2.080   3.534  0.1484 -0.1622  0.5710
  179SAPS  H14R20476   1.145   1.988   3.492 -0.6334 -0.2083  1.4368
  179SAPS  C21520477   1.268   2.082   3.642  0.6751 -1.1034  0.2389
  179SAPS  H15R20478   1.332   2.000   3.675  1.7514 -0.1974  0.4745
  179SAPS  C21620479   1.318   2.209   3.703  0.4013  0.5117 -0.5360
  179SAPS  H16R20480   1.239   2.287   3.707  0.3616  0.5384 -1.4970
  179SAPS  H16S20481   1.400   2.255   3.644  1.3135 -1.3557 -0.7763
  179SAPS  C21720482   1.364   2.201   3.846 -1.2460 -0.2939  0.4137
  179SAPS  H17R20483   1.457   2.140   3.851 -0.3007  0.9264 -1.0729
  179SAPS  H17S20484   1.294   2.141   3.908  1.3069 -4.3130 -0.2379
  179SAPS  C21820485   1.400   2.336   3.913  0.3018 -0.1873  0.2585
  179SAPS  H18R20486   1.315   2.407   3.910  0.5733  0.1366  0.1075
  179SAPS  H18S20487   1.491   2.377   3.864  0.7362 -0.3087  0.9525
  179SAPS  C21920488   1.422   2.316   4.064  0.5679  0.2697  0.3076
  179SAPS  H19R20489   1.508   2.247   4.080  0.8853  0.6092  0.0935
  179SAPS  H19S20490   1.335   2.263   4.108  0.7674 -0.8526 -0.6075
  179SAPS  C22020491   1.450   2.448   4.135 -0.8689  0.3884  0.1547
  179SAPS  H20R20492   1.436   2.439   4.245  0.6161  0.8013  0.3951
  179SAPS  H20S20493   1.377   2.525   4.103 -2.2520 -1.0229 -0.1833
  179SAPS  H20T20494   1.548   2.493   4.110 -0.5955 -1.1086 -1.6329
  179SAPS   C3320495   1.211   2.716   2.890  0.3667 -0.9996 -0.0478
  179SAPS   H3X20496   1.148   2.805   2.870 -0.2224 -1.1107  1.2173
  179SAPS   H3Y20497   1.315   2.755   2.880  0.1549 -0.0116  1.3078
  179SAPS   C3420498   1.202   2.649   3.030  0.4316  0.3476  0.2064
  179SAPS   H4X20499   1.246   2.548   3.036 -0.4255  0.0534  2.4987
  179SAPS   H4Y20500   1.093   2.633   3.044  0.2590 -0.4512 -1.7756
  179SAPS   C3520501   1.244   2.749   3.130  0.2399 -0.0606 -0.3567
  179SAPS   H5X20502   1.176   2.836   3.135 -0.5705 -0.6054 -1.3613
  179SAPS   H5Y20503   1.345   2.785   3.099  1.3693 -1.1513  1.8040
  179SAPS   C3620504   1.255   2.690   3.270  0.1517  0.3967 -0.1944
  179SAPS   H6X20505   1.322   2.742   3.342  2.1825 -0.7801 -1.1237
  179SAPS   H6Y20506   1.292   2.585   3.273 -0.4109  0.1924 -0.2027
  179SAPS   C3720507   1.118   2.689   3.340  0.7505 -0.3582  0.4188
  179SAPS   H7X20508   1.051   2.620   3.286  2.2703 -0.6281 -1.2284
  179SAPS   H7Y20509   1.071   2.789   3.325 -1.6090 -1.8228 -3.7405
  179SAPS   C3820510   1.136   2.641   3.487  0.8913 -0.6707 -0.0634
  179SAPS   H8X20511   1.194   2.549   3.512  1.9870 -0.3640 -1.3657
  179SAPS   H8Y20512   1.033   2.623   3.525  0.6460 -0.2254 -0.5096
  179SAPS   C3920513   1.194   2.761   3.573 -0.2107  0.3767 -0.3876
  179SAPS   H9X20514   1.151   2.853   3.530 -2.5125 -1.2882 -1.9001
  179SAPS   H9Y20515   1.305   2.764   3.559 -0.3010  1.7236 -0.9171
  179SAPS  C31020516   1.168   2.740   3.725  0.3263  0.3340  0.3781
  179SAPS  H10X20517   1.182   2.631   3.742  0.1186 -0.2327 -2.5914
  179SAPS  H10Y20518   1.067   2.779   3.750  1.4068  1.4200  3.5691
  179SAPS  C31120519   1.262   2.811   3.818 -0.6941  0.0564 -0.9494
  179SAPS  H11X20520   1.270   2.920   3.797 -1.8026  0.5347  0.8509
  179SAPS  H11Y20521   1.363   2.768   3.798 -0.6772 -0.6680  0.5549
  179SAPS  C31220522   1.237   2.787   3.970  0.2163  0.4348  0.0054
  179SAPS  H12X20523   1.275   2.689   4.006  0.8455  0.5175 -0.4088
  179SAPS  H12Y20524   1.127   2.791   3.985  0.0542  0.8054 -1.1525
  179SAPS  C31320525   1.294   2.901   4.047 -0.9471  0.0013  0.1208
  179SAPS  H13X20526   1.230   2.988   4.021 -0.0384  0.3954 -0.9044
  179SAPS  H13Y20527   1.397   2.924   4.012 -0.8788 -0.7277 -0.1795
  179SAPS  C31420528   1.291   2.878   4.206 -0.4431  0.2339  0.3758
  179SAPS  H14X20529   1.334   2.973   4.245  1.4985  0.1813 -1.4576
  179SAPS  H14Y20530   1.357   2.791   4.227  2.7758  2.2275 -0.8359
  179SAPS  C31520531   1.146   2.841   4.247  0.2271 -0.9761  0.1961
  179SAPS  H15X20532   1.104   2.748   4.202 -0.9006 -1.0077  1.2766
  179SAPS  H15Y20533   1.077   2.922   4.214  0.1687 -0.6178  1.1700
  179SAPS  C31620534   1.130   2.818   4.399 -0.1973 -0.7024  0.1692
  179SAPS  H16X20535   1.184   2.890   4.463 -0.1740 -2.1330  1.8306
  179SAPS  H16Y20536   1.174   2.717   4.417  2.9204  0.7308  1.2507
  179SAPS  C31720537   0.982   2.811   4.452 -0.1869 -0.7383  0.2563
  179SAPS  H17X20538   0.933   2.716   4.419  0.3222 -0.1520 -2.4144
  179SAPS  H17Y20539   0.926   2.887   4.394  2.2517  0.7739 -0.2307
  179SAPS  C31820540   0.954   2.842   4.598 -0.8987 -0.0644 -0.8300
  179SAPS  H18X20541   1.012   2.771   4.662 -2.0383  2.1203  2.9512
  179SAPS  H18Y20542   0.846   2.823   4.617 -0.6249  0.3028  1.4975
  179SAPS  H18Z20543   0.979   2.944   4.634 -0.4066 -1.4118  3.1506
  180SAPS     N20544   1.618   0.265   2.289 -0.7366 -0.5155  0.0883
  180SAPS   HN120545   1.644   0.273   2.389  0.2798 -1.3175 -0.0959
  180SAPS   HN220546   1.561   0.349   2.264 -0.5644 -0.5963 -0.5953
  180SAPS   HN320547   1.556   0.182   2.284 -1.1845 -0.1490 -0.9995
  180SAPS   C1220548   1.741   0.255   2.201  0.3662  0.6710 -0.0514
  180SAPS  H12A20549   1.809   0.179   2.239  1.0783  2.1132  1.7020
  180SAPS   C1320550   1.719   0.196   2.058  0.2701  0.4412 -0.0915
  180SAPS  O13A20551   1.608   0.171   2.008  0.1694 -0.1470 -0.3685
  180SAPS  O13B20552   1.824   0.194   1.982  0.0788  0.0772 -0.2228
  180SAPS   C1120553   1.807   0.393   2.216 -0.8738  0.8128 -0.4722
  180SAPS  H11A20554   1.904   0.377   2.163 -0.4472  1.4367  0.0914
  180SAPS  H11B20555   1.826   0.412   2.324  1.8039  2.0374 -1.0787
  180SAPS     P20556   1.766   0.651   2.192 -0.3815  0.3030 -0.1132
  180SAPS   O1320557   1.912   0.666   2.208  0.2586  0.1514 -0.3988
  180SAPS   O1420558   1.704   0.739   2.089 -0.2849 -0.0869  0.5115
  180SAPS   O1220559   1.738   0.494   2.156 -0.1000 -0.4613 -0.4991
  180SAPS   O1120560   1.699   0.676   2.334 -0.3868  0.7302  0.4389
  180SAPS    C120561   1.761   0.630   2.454  0.7488 -0.9226  0.3562
  180SAPS    HA20562   1.688   0.556   2.494  0.8117  0.1534  2.6077
  180SAPS    HB20563   1.859   0.579   2.442 -0.1575 -2.3741 -1.5727
  180SAPS    C220564   1.773   0.743   2.565 -0.3422  0.4129  0.0389
  180SAPS    HS20565   1.809   0.706   2.663 -1.2741 -0.8117 -0.0586
  180SAPS   O2120566   1.634   0.799   2.581  0.1061 -0.7690 -0.6398
  180SAPS   C2120567   1.559   0.738   2.666  0.7135 -0.1384 -0.5904
  180SAPS   O2220568   1.590   0.647   2.743  0.1585  0.5405 -0.4863
  180SAPS   C2220569   1.418   0.786   2.651  1.0834 -0.0982 -0.2365
  180SAPS   H2R20570   1.365   0.722   2.577 -0.0053  1.1175 -0.5485
  180SAPS   H2S20571   1.361   0.752   2.740 -0.7629  0.4616 -1.1442
  180SAPS    C320572   1.862   0.862   2.502 -0.4302 -0.2754 -0.1073
  180SAPS    HX20573   1.818   0.895   2.405  0.9022 -0.1319 -0.6891
  180SAPS    HY20574   1.956   0.808   2.475 -0.8204 -2.1558  1.9972
  180SAPS   O3120575   1.906   0.961   2.593 -0.1581  0.1134  0.2852
  180SAPS   C3120576   1.813   1.053   2.603 -0.2030  0.0635 -0.9269
  180SAPS   O3220577   1.715   1.057   2.534  0.1557  0.4481  0.5638
  180SAPS   C3220578   1.855   1.167   2.698  0.2280  0.1798  0.4810
  180SAPS   H2X20579   1.863   1.257   2.633  2.2832 -1.4101 -1.6258
  180SAPS   H2Y20580   1.960   1.147   2.727  0.2998 -1.7568 -0.9506
  180SAPS   C2320581   1.405   0.935   2.642  0.1397 -0.0308 -0.1094
  180SAPS   H3R20582   1.306   0.963   2.599 -1.0813  1.0009  3.0769
  180SAPS   H3S20583   1.484   0.979   2.578  1.2430 -0.1103  1.1551
  180SAPS   C2420584   1.403   1.014   2.773  0.4214  0.6637 -0.5740
  180SAPS   H4R20585   1.387   1.122   2.755  0.7541  1.0541  1.2366
  180SAPS   H4S20586   1.504   1.017   2.820  0.2642  1.8703 -0.2862
  180SAPS   C2520587   1.303   0.962   2.874  0.5282  0.0754 -0.8340
  180SAPS   H5R20588   1.206   0.947   2.824  0.8048  0.1719 -1.4108
  180SAPS   C2620589   1.326   0.967   3.003  0.3526  0.2971 -0.4172
  180SAPS   H6R20590   1.242   0.950   3.072  0.0886 -1.5858 -1.1491
  180SAPS   C2720591   1.454   1.006   3.076 -0.4096 -0.6851 -0.2908
  180SAPS   H7R20592   1.431   1.042   3.179  0.1430 -0.1886 -0.3348
  180SAPS   H7S20593   1.510   1.094   3.037  0.1248  0.7668  3.3518
  180SAPS   C2820594   1.560   0.902   3.061 -0.1556 -0.3153 -0.2701
  180SAPS   H8R20595   1.580   0.856   2.963  1.8429  0.8061 -0.4412
  180SAPS   C2920596   1.646   0.859   3.154 -0.4091  0.3211 -0.5079
  180SAPS   H9R20597   1.720   0.781   3.134  1.6320  1.3621  2.2363
  180SAPS  C21020598   1.643   0.917   3.297 -0.4621 -1.1457 -0.3998
  180SAPS  H10R20599   1.582   1.009   3.304  0.1740 -0.7485  0.0118
  180SAPS  H10S20600   1.743   0.955   3.324 -1.5886 -0.8177  4.0230
  180SAPS  C21120601   1.578   0.815   3.393 -0.5038  0.1996  0.3224
  180SAPS  H11R20602   1.520   0.738   3.340 -1.5778  1.2362 -0.0268
  180SAPS  C21220603   1.586   0.811   3.526 -1.1281  0.0887 -0.9088
  180SAPS  H12R20604   1.526   0.738   3.582 -0.0068 -0.5694 -0.5325
  180SAPS  C21320605   1.670   0.902   3.612 -0.3438 -0.2172  0.2061
  180SAPS  H13R20606   1.748   0.951   3.549  0.6064 -0.7200  0.9645
  180SAPS  H13S20607   1.716   0.843   3.694  2.2378  1.6184  0.2147
  180SAPS  C21420608   1.583   1.022   3.660  0.0289  0.2138  0.2025
  180SAPS  H14R20609   1.563   1.087   3.573  1.0219 -1.6200 -1.5001
  180SAPS  C21520610   1.539   1.052   3.783 -0.0524  0.0771 -0.3771
  180SAPS  H15R20611   1.479   1.144   3.787 -0.0701  0.0497  0.0330
  180SAPS  C21620612   1.571   0.984   3.913  0.3187  0.5611 -0.4922
  180SAPS  H16R20613   1.609   0.881   3.894  0.0659 -0.0584  1.9541
  180SAPS  H16S20614   1.482   0.988   3.980  0.3691  1.4629 -0.4648
  180SAPS  C21720615   1.692   1.052   3.980  0.5428  0.3635  0.2448
  180SAPS  H17R20616   1.668   1.160   3.994 -0.0132  0.3711 -0.7123
  180SAPS  H17S20617   1.777   1.036   3.911  0.4751 -0.5486  0.3597
  180SAPS  C21820618   1.726   0.999   4.120  0.2858  1.0481 -0.2600
  180SAPS  H18R20619   1.809   1.061   4.162  1.3497  0.9335 -2.0862
  180SAPS  H18S20620   1.771   0.898   4.116  0.5637  1.1359  0.4247
  180SAPS  C21920621   1.611   0.985   4.224 -0.0557  0.0772  0.6358
  180SAPS  H19R20622   1.549   0.903   4.182  0.0586 -0.2144  1.0345
  180SAPS  H19S20623   1.539   1.070   4.223  0.2751  0.3604  0.5702
  180SAPS  C22020624   1.647   0.953   4.371  0.7778 -0.0035 -0.6095
  180SAPS  H20R20625   1.727   0.875   4.374  1.9134  1.1701  1.1199
  180SAPS  H20S20626   1.691   1.046   4.413 -0.2223 -0.1801  0.8877
  180SAPS  H20T20627   1.561   0.915   4.430  1.3498 -3.9615 -1.9818
  180SAPS   C3320628   1.759   1.198   2.818  0.1113  0.4677  0.1979
  180SAPS   H3X20629   1.719   1.105   2.866 -3.3316  1.3236 -0.7566
  180SAPS   H3Y20630   1.666   1.244   2.778 -0.8296 -0.2413  1.4573
  180SAPS   C3420631   1.836   1.280   2.926 -0.1966  0.5356 -0.3738
  180SAPS   H4X20632   1.863   1.384   2.896 -2.2659  1.9199  2.1697
  180SAPS   H4Y20633   1.932   1.226   2.941 -1.2086 -1.3376 -0.3448
  180SAPS   C3520634   1.746   1.292   3.054 -0.4406  0.0303  0.3039
  180SAPS   H5X20635   1.738   1.189   3.096  2.9240 -0.3556  0.2267
  180SAPS   H5Y20636   1.642   1.331   3.043 -1.2177 -1.7782  0.7470
  180SAPS   C3620637   1.816   1.375   3.169  0.1980  0.6804  0.6012
  180SAPS   H6X20638   1.814   1.481   3.138 -0.9222  1.1715  2.1768
  180SAPS   H6Y20639   1.919   1.340   3.187 -0.0966 -0.8231 -0.4846
  180SAPS   C3720640   1.742   1.367   3.305  0.3905 -0.8665  0.0901
  180SAPS   H7X20641   1.680   1.274   3.310 -0.8706 -0.0637 -0.1851
  180SAPS   H7Y20642   1.674   1.455   3.302  1.9496  0.3395 -1.2871
  180SAPS   C3820643   1.837   1.381   3.421  0.7035  0.4972 -0.3010
  180SAPS   H8X20644   1.838   1.491   3.437 -0.8000  0.5055 -0.0990
  180SAPS   H8Y20645   1.940   1.345   3.398  0.1939 -2.0510  0.9737
  180SAPS   C3920646   1.791   1.324   3.564 -0.5958 -0.2142 -0.2767
  180SAPS   H9X20647   1.792   1.213   3.555 -3.8735 -0.3636 -0.0260
  180SAPS   H9Y20648   1.689   1.367   3.574 -0.2340  0.2389  2.2103
  180SAPS  C31020649   1.879   1.368   3.681 -0.2202  0.3019  0.2664
  180SAPS  H10X20650   1.923   1.469   3.666 -0.5826  0.3970 -0.1684
  180SAPS  H10Y20651   1.973   1.308   3.681  0.2777  1.0359 -1.0550
  180SAPS  C31120652   1.822   1.375   3.824  0.2037 -0.3958  0.5472
  180SAPS  H11X20653   1.754   1.290   3.845 -1.1100  0.7880  1.3163
  180SAPS  H11Y20654   1.753   1.461   3.839 -1.2766 -1.4998  0.3301
  180SAPS  C31220655   1.934   1.379   3.928  0.2452  0.0713  0.5892
  180SAPS  H12X20656   1.975   1.483   3.924  1.7250 -0.4074  2.0916
  180SAPS  H12Y20657   2.008   1.299   3.909  0.7628  0.6621  0.0865
  180SAPS  C31320658   1.869   1.364   4.066 -0.3627 -0.3500  0.4494
  180SAPS  H13X20659   1.823   1.262   4.068  0.4319 -0.7134  2.3421
  180SAPS  H13Y20660   1.788   1.439   4.067 -1.5968 -1.4253 -2.9228
  180SAPS  C31420661   1.971   1.398   4.173 -0.6738  0.2417 -0.6834
  180SAPS  H14X20662   2.009   1.502   4.173  0.6864 -0.2319  0.0593
  180SAPS  H14Y20663   2.067   1.344   4.163 -0.6214  0.2125 -0.0774
  180SAPS  C31520664   1.902   1.381   4.305 -0.2973  0.3261  0.0452
  180SAPS  H15X20665   1.918   1.278   4.344 -1.2470 -0.3708 -1.3355
  180SAPS  H15Y20666   1.794   1.387   4.281 -0.3359  2.2837  0.5119
  180SAPS  C31620667   1.923   1.488   4.406  0.3352 -0.0818 -0.4695
  180SAPS  H16X20668   2.029   1.514   4.427  0.6814 -2.0326  0.4198
  180SAPS  H16Y20669   1.888   1.447   4.503 -0.6316 -0.3828 -0.9425
  180SAPS  C31720670   1.835   1.614   4.376 -1.1151  0.5282  0.1063
  180SAPS  H17X20671   1.724   1.611   4.375 -1.2898  3.5912  1.0224
  180SAPS  H17Y20672   1.859   1.643   4.272 -0.9264  0.3850  0.1094
  180SAPS  C31820673   1.877   1.729   4.468 -0.3850 -0.1829 -0.1662
  180SAPS  H18X20674   1.984   1.757   4.463 -0.9722  2.0595 -2.1818
  180SAPS  H18Y20675   1.842   1.712   4.572 -2.6408 -0.7746 -0.9629
  180SAPS  H18Z20676   1.815   1.819   4.446 -2.0444 -0.5018  2.6984
  181POPC     N20677   5.588   4.838   6.714  0.1898  0.2000 -0.1718
  181POPC   C1220678   5.718   4.816   6.647 -0.1356  0.9919 -0.1947
  181POPC  H12A20679   5.799   4.777   6.708  0.9886 -0.1053 -2.2875
  181POPC  H12B20680   5.766   4.910   6.623  0.0385  0.9840  0.1160
  181POPC   C1320681   5.542   4.702   6.772 -0.8344 -0.4528 -0.1411
  181POPC  H13A20682   5.614   4.661   6.842  1.0151 -0.3778 -1.8975
  181POPC  H13B20683   5.451   4.698   6.830 -3.0484  0.6931 -3.2648
  181POPC  H13C20684   5.526   4.635   6.689  0.9048 -1.6489  0.4208
  181POPC   C1420685   5.605   4.929   6.832 -0.3481  0.4025  0.2980
  181POPC  H14A20686   5.651   4.874   6.912  2.6517  0.0278 -1.5386
  181POPC  H14B20687   5.664   5.017   6.812 -1.0268  1.0216  0.9670
  181POPC  H14C20688   5.507   4.958   6.868 -0.0647 -0.0426  1.4509
  181POPC   C1520689   5.492   4.886   6.619 -0.5919  0.1035  0.3624
  181POPC  H15A20690   5.523   4.974   6.564 -0.6217  0.5357  1.0350
  181POPC  H15B20691   5.394   4.912   6.657 -0.7301 -1.4755  1.1406
  181POPC  H15C20692   5.475   4.816   6.538 -0.8574  0.5297  0.0448
  181POPC   C1120693   5.704   4.730   6.519 -0.3548 -0.7201  0.5031
  181POPC  H11A20694   5.806   4.717   6.478 -0.6111  0.5140 -0.5716
  181POPC  H11B20695   5.648   4.778   6.437 -2.2918 -1.7478  1.1583
  181POPC     P20696   5.739   4.477   6.551 -0.2547 -0.3473 -0.1821
  181POPC   O1320697   5.667   4.351   6.541  0.2059  0.2683 -0.6751
  181POPC   O1420698   5.820   4.490   6.674  0.1378 -0.9281 -0.0793
  181POPC   O1220699   5.644   4.604   6.537 -0.2477  0.0189 -0.6061
  181POPC   O1120700   5.835   4.476   6.428 -0.4087 -0.1192 -0.0368
  181POPC    C120701   5.779   4.480   6.294  0.1187 -0.8766 -0.2241
  181POPC    HA20702   5.825   4.563   6.236  1.9233  1.1787  3.7860
  181POPC    HB20703   5.670   4.504   6.300  0.3723  0.1648  0.4778
  181POPC    C220704   5.791   4.346   6.229  0.0036  0.2565  0.9802
  181POPC    HS20705   5.748   4.264   6.289  0.0197 -0.1250  0.4746
  181POPC   O2120706   5.937   4.326   6.206  0.2487 -0.2616  0.2784
  181POPC   C2120707   5.966   4.196   6.188  0.0668  0.5913 -0.2870
  181POPC   O2220708   5.896   4.103   6.229  0.0804  0.0337 -0.2857
  181POPC   C2220709   6.108   4.169   6.125 -0.9946 -0.1031 -0.0630
  181POPC   H2R20710   6.153   4.100   6.199  0.3430  0.8169  0.0230
  181POPC   H2S20711   6.168   4.262   6.118 -0.1006 -0.6797 -0.2799
  181POPC    C320712   5.718   4.348   6.098 -0.5804 -0.5292 -0.4088
  181POPC    HX20713   5.759   4.424   6.027 -0.5530 -0.5384 -0.4028
  181POPC    HY20714   5.612   4.379   6.108 -0.1757  0.6519  0.3489
  181POPC   O3120715   5.729   4.235   6.020 -0.0934  0.5359 -0.3521
  181POPC   C3120716   5.657   4.125   6.059  0.0583 -0.3840  0.3192
  181POPC   O3220717   5.586   4.121   6.155 -0.3008  0.3027 -0.1062
  181POPC   C3220718   5.688   4.014   5.956  0.3280 -0.1955 -0.7519
  181POPC   H2X20719   5.776   4.038   5.894  2.1997 -0.9602  1.4615
  181POPC   H2Y20720   5.595   4.014   5.896  0.1473  2.7826 -0.6107
  181POPC   C2320721   6.103   4.084   5.995 -0.3428  0.3791  0.4109
  181POPC   H3R20722   6.040   3.993   6.006 -1.0852  0.5148 -2.1328
  181POPC   H3S20723   6.205   4.048   5.971 -0.2701  0.9226 -0.1088
  181POPC   C2420724   6.057   4.164   5.872  0.4631 -0.2345  0.1976
  181POPC   H4R20725   6.098   4.265   5.893 -2.1821  0.8671  0.5366
  181POPC   H4S20726   5.946   4.174   5.869  0.5747  1.0767 -0.4132
  181POPC   C2520727   6.104   4.100   5.738 -0.3666 -0.1221 -0.8006
  181POPC   H5R20728   6.212   4.074   5.741  0.4061  2.7455  1.2295
  181POPC   H5S20729   6.099   4.177   5.657 -0.9846 -1.4402 -2.0525
  181POPC   C2620730   6.004   3.987   5.681 -0.0941  0.4190 -0.7895
  181POPC   H6R20731   5.904   4.029   5.706  0.5345  1.6553 -0.2559
  181POPC   H6S20732   6.033   3.894   5.734 -1.3007  0.1738 -0.5255
  181POPC   C2720733   6.014   3.960   5.530  0.0308 -0.0465 -0.2619
  181POPC   H7R20734   6.121   3.949   5.502  0.0769 -1.0961  0.2541
  181POPC   H7S20735   5.972   4.050   5.480  1.0335  0.0433 -0.9755
  181POPC   C2820736   5.935   3.832   5.494  0.2280  0.0459  0.0413
  181POPC   H8R20737   6.000   3.750   5.534  2.1746  0.7393 -1.5446
  181POPC   H8S20738   5.939   3.818   5.384 -0.0436 -1.8758  0.2362
  181POPC   C2920739   5.791   3.845   5.534 -0.2049  0.1510 -0.1767
  181POPC   H9120740   5.775   3.878   5.637 -0.4457 -2.4419  0.6969
  181POPC  C21020741   5.683   3.841   5.450 -0.4076  0.7319 -0.3118
  181POPC  H10120742   5.582   3.849   5.494 -1.2930  0.6078 -2.2175
  181POPC  C21120743   5.690   3.816   5.299 -0.3720 -0.3769 -0.5114
  181POPC  H11R20744   5.793   3.830   5.258  0.1829 -2.7704 -0.0900
  181POPC  H11S20745   5.624   3.891   5.252  2.3788  1.3464 -1.9089
  181POPC  C21220746   5.665   3.668   5.272 -0.0452 -0.8789  1.0231
  181POPC  H12R20747   5.740   3.609   5.328  1.1964  0.4967  0.8562
  181POPC  H12S20748   5.680   3.644   5.164  1.6850  0.2731  0.9760
  181POPC  C21320749   5.523   3.618   5.305 -0.7182  0.0220 -0.3671
  181POPC  H13R20750   5.457   3.686   5.247  1.1380  0.7111 -1.7685
  181POPC  H13S20751   5.510   3.632   5.415 -2.6421  0.0359 -0.5642
  181POPC  C21420752   5.502   3.469   5.273  0.0613  0.3159  0.5196
  181POPC  H14R20753   5.399   3.446   5.308  0.7778 -2.9043  0.8192
  181POPC  H14S20754   5.570   3.414   5.341  1.3960  1.7790  0.4447
  181POPC  C21520755   5.527   3.430   5.129  0.3630  0.1432  0.6398
  181POPC  H15R20756   5.519   3.319   5.129  0.0295  0.1029 -2.3095
  181POPC  H15S20757   5.630   3.453   5.095  1.1288 -3.1080  0.4868
  181POPC  C21620758   5.424   3.500   5.030 -0.1929 -0.4391 -0.6757
  181POPC  H16R20759   5.468   3.600   5.011 -0.7249 -0.1890 -0.6273
  181POPC  H16S20760   5.327   3.513   5.084  1.8889  4.8160  2.5683
  181POPC  C21720761   5.416   3.422   4.897 -0.4641  0.1264 -0.1025
  181POPC  H17R20762   5.362   3.328   4.921  0.0375 -0.0767  0.2392
  181POPC  H17S20763   5.515   3.407   4.849  0.3732  3.9610  0.0663
  181POPC  C21820764   5.328   3.500   4.797  0.1713  0.0299 -0.6282
  181POPC  H18R20765   5.247   3.562   4.842  0.7250 -0.3836  1.0085
  181POPC  H18S20766   5.278   3.428   4.729  0.2009 -0.2351 -0.3721
  181POPC  H18T20767   5.392   3.574   4.744  3.5986 -2.3383 -0.1430
  181POPC   C3320768   5.729   3.889   6.032  0.4425 -0.1744  0.5954
  181POPC   H3X20769   5.650   3.866   6.107  1.1168 -1.2423  1.0115
  181POPC   H3Y20770   5.822   3.901   6.093  1.6861  1.8316 -1.5341
  181POPC   C3420771   5.733   3.756   5.953 -0.5274 -0.4902  0.2809
  181POPC   H4X20772   5.767   3.673   6.020 -0.1021 -0.2460  0.3759
  181POPC   H4Y20773   5.819   3.775   5.884  0.2333 -1.2300  0.9989
  181POPC   C3520774   5.617   3.710   5.860 -1.1367  0.0491 -0.1338
  181POPC   H5X20775   5.649   3.615   5.812  2.1942  1.8427 -1.8519
  181POPC   H5Y20776   5.598   3.783   5.778  1.6401  1.7462  0.5739
  181POPC   C3620777   5.489   3.701   5.938  0.5183  0.5576  0.0359
  181POPC   H6X20778   5.475   3.792   6.000  0.9037  0.8909 -0.3568
  181POPC   H6Y20779   5.485   3.614   6.008  1.3583  0.0592 -0.5216
  181POPC   C3720780   5.368   3.684   5.843 -0.0954  0.4895 -0.1977
  181POPC   H7X20781   5.341   3.773   5.782 -2.2518  0.8106  1.0919
  181POPC   H7Y20782   5.283   3.669   5.913 -0.2200  0.4083 -0.3676
  181POPC   C3820783   5.383   3.561   5.748 -0.0731 -0.4618  0.1065
  181POPC   H8X20784   5.416   3.475   5.811 -1.4717 -0.7504  0.4812
  181POPC   H8Y20785   5.469   3.577   5.681  1.3262 -0.8793  1.7394
  181POPC   C3920786   5.254   3.524   5.673  0.5851  0.1191 -0.2083
  181POPC   H9X20787   5.235   3.602   5.596  0.5857 -0.6810 -1.0432
  181POPC   H9Y20788   5.169   3.516   5.744 -1.1619 -2.3718 -2.3906
  181POPC  C31020789   5.268   3.386   5.609 -0.2205 -0.3654 -0.1089
  181POPC  H10X20790   5.242   3.305   5.680  0.5333  1.1062  1.9409
  181POPC  H10Y20791   5.370   3.365   5.572 -0.2244 -0.6054  0.0155
  181POPC  C31120792   5.167   3.370   5.500 -0.1876  1.0235  0.0433
  181POPC  H11X20793   5.186   3.462   5.442 -1.1764  1.8777  1.0312
  181POPC  H11Y20794   5.065   3.365   5.543  0.8048  1.0020  2.5900
  181POPC  C31220795   5.173   3.239   5.422 -0.3541 -0.0444 -0.0555
  181POPC  H12X20796   5.182   3.151   5.490 -1.2254  0.9502  1.3980
  181POPC  H12Y20797   5.272   3.248   5.373  0.2047 -1.1209  0.8188
  181POPC  C31320798   5.068   3.221   5.303 -0.2240 -0.0244 -0.7212
  181POPC  H13X20799   4.975   3.254   5.354 -0.2875 -0.9338 -0.2095
  181POPC  H13Y20800   5.071   3.112   5.282  3.4242  0.2540 -2.4209
  181POPC  C31420801   5.092   3.291   5.171  0.0106  0.0143  0.0087
  181POPC  H14X20802   5.189   3.248   5.138 -0.3332  0.8365 -2.2963
  181POPC  H14Y20803   5.108   3.400   5.180  1.1642  0.1706 -2.8862
  181POPC  C31520804   4.995   3.242   5.059 -0.8820 -0.4042  0.1258
  181POPC  H15X20805   4.901   3.300   5.073 -0.0003  1.0764  0.1835
  181POPC  H15Y20806   4.968   3.137   5.082  1.8115 -1.6406 -1.7595
  181POPC  C31620807   5.044   3.246   4.920 -0.4787  0.1684 -0.4725
  181POPC  H16X20808   4.970   3.223   4.841 -0.3135 -2.6740  0.1151
  181POPC  H16Y20809   5.133   3.181   4.907 -0.5901 -0.1281  0.2166
  181POPC  H16Z20810   5.093   3.345   4.906 -1.6068  0.9712  0.9665
  182POPC     N20811   2.342   1.754   7.228  0.4898 -0.8084  0.5970
  182POPC   C1220812   2.364   1.848   7.111  1.1157 -0.2051 -0.1538
  182POPC  H12A20813   2.465   1.837   7.076  1.4439  1.4422  0.2123
  182POPC  H12B20814   2.354   1.948   7.151 -0.2168 -0.4182  0.1006
  182POPC   C1320815   2.368   1.612   7.191  0.3528  0.2782 -0.3927
  182POPC  H13A20816   2.467   1.602   7.149  1.3375  1.7843  1.3990
  182POPC  H13B20817   2.373   1.548   7.278 -0.0105  0.8087  0.0163
  182POPC  H13C20818   2.292   1.565   7.131  0.2214 -0.6643  0.4776
  182POPC   C1420819   2.442   1.793   7.328  0.0937  0.7426  0.2691
  182POPC  H14A20820   2.440   1.739   7.421 -0.9453  0.2353 -0.0370
  182POPC  H14B20821   2.543   1.791   7.287 -0.1021 -1.4117 -0.2210
  182POPC  H14C20822   2.428   1.898   7.348  0.8262  0.8898  0.0735
  182POPC   C1520823   2.202   1.761   7.274  0.1235  0.0376  0.3582
  182POPC  H15A20824   2.134   1.702   7.213  0.8591  0.3199 -0.7655
  182POPC  H15B20825   2.160   1.860   7.268 -0.5566 -0.2472  0.2280
  182POPC  H15C20826   2.207   1.729   7.377 -0.6089  0.2001  0.4545
  182POPC   C1120827   2.261   1.846   6.996  0.2138 -0.1519 -0.9589
  182POPC  H11A20828   2.168   1.886   7.041  0.0191 -1.1949 -0.3981
  182POPC  H11B20829   2.229   1.743   6.969 -1.0212  0.0954 -0.5265
  182POPC     P20830   2.402   1.858   6.789 -0.2037  0.2909  0.5220
  182POPC   O1320831   2.518   1.794   6.858  0.3681  0.1502 -0.0636
  182POPC   O1420832   2.432   1.962   6.686 -0.2961  0.0199 -0.4875
  182POPC   O1220833   2.298   1.931   6.883 -0.2012 -0.4834 -0.0835
  182POPC   O1120834   2.307   1.748   6.724  0.1022 -0.1562 -0.0792
  182POPC    C120835   2.203   1.774   6.631  0.2150 -0.1438 -0.5596
  182POPC    HA20836   2.223   1.872   6.584 -3.4147  3.1613  3.7810
  182POPC    HB20837   2.105   1.783   6.684 -1.1894  1.6709 -3.2423
  182POPC    C220838   2.194   1.661   6.520 -0.2091 -0.0880 -0.0177
  182POPC    HS20839   2.224   1.560   6.554 -0.5781 -0.9171 -2.0302
  182POPC   O2120840   2.280   1.694   6.405  0.6551 -0.2113 -0.5441
  182POPC   C2120841   2.405   1.646   6.413 -1.1007  0.0541 -0.2193
  182POPC   O2220842   2.444   1.574   6.505  0.1302 -0.2868  0.5594
  182POPC   C2220843   2.483   1.668   6.281 -0.0491 -0.6654  0.3050
  182POPC   H2R20844   2.584   1.622   6.288 -0.7572 -2.1559  1.2524
  182POPC   H2S20845   2.496   1.778   6.279  1.8272 -0.8599 -2.0822
  182POPC    C320846   2.046   1.665   6.473 -0.2128 -0.2141  0.5406
  182POPC    HX20847   2.006   1.768   6.471 -2.7182 -1.0543 -3.4986
  182POPC    HY20848   1.987   1.629   6.560  0.8612  0.1587  1.4425
  182POPC   O3120849   2.026   1.591   6.349  0.2164  0.1507 -0.1525
  182POPC   C3120850   1.972   1.659   6.246  0.0781  0.0541 -0.2358
  182POPC   O3220851   1.933   1.775   6.251 -0.6892  1.1988 -0.0731
  182POPC   C3220852   1.984   1.574   6.117  0.1676  0.1970 -0.0483
  182POPC   H2X20853   1.879   1.540   6.110  0.8924 -2.4021  0.7738
  182POPC   H2Y20854   2.041   1.480   6.128 -1.8668 -0.9375  1.5838
  182POPC   C2320855   2.414   1.612   6.154  0.0847  0.0774 -0.0319
  182POPC   H3R20856   2.318   1.665   6.136 -0.3661 -0.4286  0.8195
  182POPC   H3S20857   2.399   1.502   6.165  0.2225 -0.0094 -0.6687
  182POPC   C2420858   2.500   1.612   6.027 -0.3694 -0.0277  0.1872
  182POPC   H4R20859   2.598   1.561   6.035  1.0131  2.0074 -2.2302
  182POPC   H4S20860   2.533   1.718   6.026  0.9950 -0.3986  1.6637
  182POPC   C2520861   2.425   1.583   5.899  0.3259 -0.2042  0.8278
  182POPC   H5R20862   2.340   1.654   5.889  2.2986  2.1077 -0.6519
  182POPC   H5S20863   2.394   1.476   5.905  0.8974 -0.8527 -3.8881
  182POPC   C2620864   2.513   1.588   5.769 -0.8996  0.3266  0.3472
  182POPC   H6R20865   2.619   1.559   5.780 -0.8106 -0.3735 -1.8235
  182POPC   H6S20866   2.520   1.694   5.736  1.3679  0.0286 -0.3022
  182POPC   C2720867   2.459   1.495   5.660 -0.6192 -0.0131  0.7209
  182POPC   H7R20868   2.349   1.503   5.663 -1.0277 -2.1729 -2.8035
  182POPC   H7S20869   2.494   1.390   5.673  3.3961  0.9324 -0.8505
  182POPC   C2820870   2.515   1.538   5.529 -0.0722 -0.1048  0.1123
  182POPC   H8R20871   2.626   1.540   5.526 -0.0554 -1.0980 -0.6898
  182POPC   H8S20872   2.493   1.644   5.503 -2.6154 -0.3546  0.9804
  182POPC   C2920873   2.465   1.447   5.423 -0.8127  0.7122  0.0083
  182POPC   H9120874   2.380   1.383   5.450  0.8204 -2.6320 -2.1575
  182POPC  C21020875   2.515   1.430   5.301 -0.3684  0.5057 -0.8237
  182POPC  H10120876   2.468   1.351   5.241 -1.1220  1.2318 -1.2127
  182POPC  C21120877   2.629   1.506   5.235 -0.2903 -0.8438  0.2169
  182POPC  H11R20878   2.722   1.446   5.237  1.0661  1.2040  1.1344
  182POPC  H11S20879   2.648   1.602   5.288  1.2872 -0.7274 -0.5311
  182POPC  C21220880   2.584   1.549   5.098  0.2979  0.1383 -0.5136
  182POPC  H12R20881   2.660   1.626   5.074 -0.6507  1.2599 -0.0115
  182POPC  H12S20882   2.487   1.603   5.102  0.8704  1.1891 -0.5262
  182POPC  C21320883   2.588   1.428   4.996  0.4480  0.0341  0.9154
  182POPC  H13R20884   2.493   1.372   5.004 -0.6256  1.4058 -1.2527
  182POPC  H13S20885   2.674   1.360   5.014  2.0868  2.3685  2.5822
  182POPC  C21420886   2.597   1.479   4.853  0.1649 -0.1777 -0.2271
  182POPC  H14R20887   2.697   1.526   4.838 -0.2584  1.5573  1.9075
  182POPC  H14S20888   2.513   1.550   4.839  0.0079 -0.3052  0.0482
  182POPC  C21520889   2.571   1.376   4.742 -0.5700  1.2614 -0.2495
  182POPC  H15R20890   2.548   1.432   4.648 -2.4397  0.7890 -0.1223
  182POPC  H15S20891   2.479   1.323   4.776 -0.1034  2.4267  3.2330
  182POPC  C21620892   2.690   1.276   4.729 -0.1944  0.8043 -0.1510
  182POPC  H16R20893   2.691   1.217   4.823  0.0248  0.2468 -0.4990
  182POPC  H16S20894   2.781   1.338   4.714 -0.1538  0.8712  0.3796
  182POPC  C21720895   2.684   1.190   4.615 -0.5859  0.4901  0.7443
  182POPC  H17R20896   2.788   1.169   4.583 -0.8399  1.1615 -0.5907
  182POPC  H17S20897   2.640   1.241   4.526  3.5239 -0.4840 -2.1448
  182POPC  C21820898   2.613   1.062   4.651  0.1171 -0.3227  0.2048
  182POPC  H18R20899   2.502   1.065   4.647  0.1402 -0.4848 -1.2746
  182POPC  H18S20900   2.656   1.020   4.744  2.2131  1.8818  0.3237
  182POPC  H18T20901   2.633   0.990   4.568  3.8633  0.6864  0.0625
  182POPC   C3320902   2.019   1.650   5.988  0.8902 -0.6124  0.0739
  182POPC   H3X20903   2.129   1.657   5.978  1.0631 -1.2210  1.3392
  182POPC   H3Y20904   1.975   1.751   5.977 -1.5334 -1.4610  1.1698
  182POPC   C3420905   1.963   1.575   5.861 -0.5852  0.1398  0.0865
  182POPC   H4X20906   1.853   1.586   5.854 -0.6538 -0.8852 -0.9124
  182POPC   H4Y20907   1.982   1.466   5.875  1.1984  0.3846 -0.2038
  182POPC   C3520908   2.022   1.624   5.730  0.5029 -0.1314  0.4438
  182POPC   H5X20909   2.133   1.626   5.737  0.5621 -0.1315 -0.4510
  182POPC   H5Y20910   1.978   1.723   5.708 -0.7006 -0.9499 -0.9972
  182POPC   C3620911   1.996   1.529   5.602  0.4363  0.2361 -0.2736
  182POPC   H6X20912   1.889   1.545   5.574  0.4722 -1.9445 -1.9380
  182POPC   H6Y20913   1.998   1.426   5.642 -1.6911  0.1911 -0.1578
  182POPC   C3720914   2.085   1.537   5.481  0.0102 -0.3920 -0.2469
  182POPC   H7X20915   2.189   1.502   5.498 -0.5801 -2.0317  0.1277
  182POPC   H7Y20916   2.086   1.644   5.450  2.7784 -0.4052 -0.3968
  182POPC   C3820917   2.027   1.457   5.369  0.7110 -0.1406  0.7929
  182POPC   H8X20918   1.928   1.501   5.347  0.4935 -1.0910 -0.2199
  182POPC   H8Y20919   2.032   1.348   5.391  1.2761 -0.2937 -0.0637
  182POPC   C3920920   2.100   1.477   5.234 -0.4142 -0.1410  0.1179
  182POPC   H9X20921   2.209   1.457   5.243 -0.4412  0.2373  1.4809
  182POPC   H9Y20922   2.096   1.585   5.211 -0.7554  0.2582  1.9167
  182POPC  C31020923   2.031   1.415   5.110  0.2753 -1.6663  0.2083
  182POPC  H10X20924   1.924   1.445   5.112  1.2138  2.2142  2.6815
  182POPC  H10Y20925   2.040   1.305   5.119  0.8765 -1.7045 -0.7453
  182POPC  C31120926   2.096   1.459   4.976 -0.4786  0.3679  0.3458
  182POPC  H11X20927   2.205   1.441   4.981  0.3576  4.3669 -0.4290
  182POPC  H11Y20928   2.093   1.570   4.972 -0.4146  0.4429  1.9218
  182POPC  C31220929   2.035   1.393   4.855  0.0066  0.1595  0.4829
  182POPC  H12X20930   2.058   1.285   4.848  1.7152  0.4471  1.0119
  182POPC  H12Y20931   2.084   1.432   4.763 -0.5151 -0.9815 -0.2877
  182POPC  C31320932   1.887   1.413   4.839  0.4487 -1.0011  0.6301
  182POPC  H13X20933   1.835   1.342   4.906 -2.8843 -0.4867 -1.1868
  182POPC  H13Y20934   1.854   1.382   4.737  1.5099 -1.0906  0.2917
  182POPC  C31420935   1.836   1.566   4.863 -0.4338 -0.6731 -0.0986
  182POPC  H14X20936   1.916   1.636   4.827  0.3580 -0.4251  2.0259
  182POPC  H14Y20937   1.850   1.582   4.972  1.2412 -0.0351 -0.3732
  182POPC  C31520938   1.698   1.604   4.816 -0.7075  0.5456  0.1639
  182POPC  H15X20939   1.629   1.541   4.877  1.5271 -3.4237 -1.0575
  182POPC  H15Y20940   1.688   1.570   4.710 -0.5947 -0.7819  0.5665
  182POPC  C31620941   1.654   1.753   4.821 -0.2875 -0.4352 -0.1052
  182POPC  H16X20942   1.650   1.774   4.930  0.2353  0.4914 -0.2562
  182POPC  H16Y20943   1.550   1.768   4.783  0.4412  1.0226 -1.6910
  182POPC  H16Z20944   1.731   1.816   4.771  1.7133 -1.7442  1.2168
  183POPC     N20945   4.512   1.526   6.882 -0.3153  0.1632 -0.1680
  183POPC   C1220946   4.413   1.595   6.792  0.4225 -0.4666 -0.0272
  183POPC  H12A20947   4.447   1.571   6.692  1.1264 -0.3373  0.1748
  183POPC  H12B20948   4.435   1.700   6.800  0.4760 -0.4979  0.2594
  183POPC   C1320949   4.652   1.576   6.862  0.6534  1.2058 -0.3695
  183POPC  H13A20950   4.675   1.681   6.874 -0.3212  1.4690 -0.7076
  183POPC  H13B20951   4.697   1.526   6.946 -1.6592  0.7090  0.6646
  183POPC  H13C20952   4.707   1.535   6.778  2.5304  1.0211  0.8834
  183POPC   C1420953   4.483   1.541   7.028  0.5059 -0.7866  0.7747
  183POPC  H14A20954   4.378   1.518   7.042  0.6627 -1.9789  0.1206
  183POPC  H14B20955   4.551   1.477   7.081  1.1555 -0.2874  0.5527
  183POPC  H14C20956   4.501   1.643   7.060  1.7615 -1.1170  1.1712
  183POPC   C1520957   4.510   1.384   6.852  0.1173  0.0788 -0.4656
  183POPC  H15A20958   4.531   1.385   6.746  0.7966 -0.5208 -0.3426
  183POPC  H15B20959   4.412   1.340   6.865  0.4745 -0.3379  0.9884
  183POPC  H15C20960   4.586   1.324   6.899 -0.1548 -0.6431 -0.9185
  183POPC   C1120961   4.256   1.573   6.805 -0.0598  0.2101 -0.1943
  183POPC  H11A20962   4.205   1.633   6.727 -2.0650 -1.2617 -0.1115
  183POPC  H11B20963   4.211   1.624   6.893 -1.0711 -2.5562  0.9919
  183POPC     P20964   4.109   1.368   6.875  0.2144  0.0477 -0.1061
  183POPC   O1320965   4.008   1.463   6.906 -0.1281 -0.1180  0.6886
  183POPC   O1420966   4.163   1.295   6.991  0.4845 -0.2762 -0.1452
  183POPC   O1220967   4.215   1.435   6.787 -0.2340  0.1606 -0.6218
  183POPC   O1120968   4.041   1.265   6.770 -0.1006  0.0556 -0.2620
  183POPC    C120969   4.095   1.209   6.650 -1.0667  0.5409  0.0946
  183POPC    HA20970   4.174   1.134   6.671  0.2790  1.9989  0.3810
  183POPC    HB20971   4.148   1.287   6.591 -1.8760 -0.3657 -1.9473
  183POPC    C220972   3.988   1.148   6.554 -0.4844  0.4161  0.5702
  183POPC    HS20973   3.958   1.047   6.590 -2.7921  0.9790  0.3490
  183POPC   O2120974   4.041   1.166   6.420 -0.2318  0.6196  0.5171
  183POPC   C2120975   4.111   1.058   6.381 -0.0543 -0.4277  1.0685
  183POPC   O2220976   4.127   0.955   6.445  0.9344  0.2456 -0.4028
  183POPC   C2220977   4.143   1.076   6.230  0.1254  0.2707  0.2200
  183POPC   H2R20978   4.061   1.014   6.188 -0.1125  1.0319 -0.4661
  183POPC   H2S20979   4.241   1.033   6.201  0.2592  1.7708 -1.7693
  183POPC    C320980   3.868   1.228   6.560 -0.1832  0.2973  0.6630
  183POPC    HX20981   3.890   1.335   6.540  0.2736  0.2029  0.6490
  183POPC    HY20982   3.831   1.226   6.665  0.7538  0.6572  1.0092
  183POPC   O3120983   3.765   1.164   6.483 -0.4194  0.1654 -0.2366
  183POPC   C3120984   3.741   1.208   6.367 -1.0425 -0.0569  0.0751
  183POPC   O3220985   3.787   1.306   6.309  0.2961  0.0593  0.2538
  183POPC   C3220986   3.631   1.128   6.304  0.5805  0.3736 -0.0147
  183POPC   H2X20987   3.572   1.192   6.234  1.3086  0.9566 -0.1064
  183POPC   H2Y20988   3.557   1.097   6.381 -0.5815 -4.6487 -2.7038
  183POPC   C2320989   4.127   1.217   6.177  0.7686 -0.3728 -0.9199
  183POPC   H3R20990   4.203   1.282   6.225 -1.6028  0.7586  1.5614
  183POPC   H3S20991   4.023   1.252   6.199  1.2211 -0.1621  1.0487
  183POPC   C2420992   4.147   1.224   6.028 -0.1336 -0.0013 -0.1286
  183POPC   H4R20993   4.072   1.163   5.973  2.5586 -0.9783 -3.0867
  183POPC   H4S20994   4.240   1.171   5.998 -0.3621 -0.4630 -0.0268
  183POPC   C2520995   4.161   1.367   5.960  0.2619 -0.0641  0.0446
  183POPC   H5R20996   4.258   1.421   5.969 -0.6730  2.0800 -1.8285
  183POPC   H5S20997   4.090   1.426   6.021 -0.6714 -0.7104 -0.3905
  183POPC   C2620998   4.113   1.360   5.817 -0.4548  0.2850  0.3182
  183POPC   H6R20999   4.131   1.455   5.763  1.4493  0.4188  1.1071
  183POPC   H6S21000   4.005   1.335   5.816 -0.0402 -1.6979 -0.2024
  183POPC   C2721001   4.186   1.260   5.722  0.5617 -0.0748  0.3745
  183POPC   H7R21002   4.164   1.160   5.766 -1.7751  0.1918 -0.0958
  183POPC   H7S21003   4.296   1.279   5.721  0.7881 -1.3057  0.3759
  183POPC   C2821004   4.134   1.246   5.575  0.4188  0.8686  0.2652
  183POPC   H8R21005   4.152   1.344   5.525 -1.9606  1.7221  0.9206
  183POPC   H8S21006   4.024   1.235   5.559  0.8158 -2.3785 -1.1070
  183POPC   C2921007   4.183   1.120   5.508 -0.6007 -0.8715  0.2006
  183POPC   H9121008   4.141   1.023   5.541  0.3918 -0.7309  1.9566
  183POPC  C21021009   4.234   1.124   5.380  0.2002  0.7391  0.0354
  183POPC  H10121010   4.254   1.025   5.336 -2.4079 -1.1469  2.6305
  183POPC  C21121011   4.272   1.241   5.305 -0.0374  0.3950  0.0527
  183POPC  H11R21012   4.342   1.212   5.223  0.1449  1.9565 -0.3716
  183POPC  H11S21013   4.322   1.323   5.360 -1.5400  0.3947  1.4732
  183POPC  C21221014   4.147   1.301   5.236 -0.9374  0.0732 -0.1172
  183POPC  H12R21015   4.078   1.344   5.311 -0.6554  1.2960 -0.5422
  183POPC  H12S21016   4.092   1.218   5.185 -1.9174  0.4317  0.3335
  183POPC  C21321017   4.173   1.426   5.148 -0.0801  0.2129  0.2804
  183POPC  H13R21018   4.238   1.500   5.199 -0.3953  2.2549 -2.1059
  183POPC  H13S21019   4.081   1.487   5.142 -0.3118 -0.2007 -0.5860
  183POPC  C21421020   4.240   1.384   5.015 -0.4816 -0.2540 -0.0013
  183POPC  H14R21021   4.303   1.296   5.040  2.1439  1.3318 -0.6903
  183POPC  H14S21022   4.311   1.465   4.986  0.1760 -0.3473  1.2514
  183POPC  C21521023   4.141   1.340   4.909 -0.7258 -0.1996  0.2515
  183POPC  H15R21024   4.085   1.430   4.875 -0.3188 -1.2300 -3.5602
  183POPC  H15S21025   4.065   1.269   4.950 -1.1995 -1.7331 -3.0099
  183POPC  C21621026   4.214   1.279   4.791  0.8029 -0.2461  0.1432
  183POPC  H16R21027   4.294   1.340   4.744 -0.0801  0.3877 -0.5715
  183POPC  H16S21028   4.135   1.283   4.712  0.6698  0.5157  0.3126
  183POPC  C21721029   4.274   1.141   4.808  0.8946 -0.2523 -0.3886
  183POPC  H17R21030   4.197   1.065   4.832  0.9068  0.7116  3.2234
  183POPC  H17S21031   4.331   1.149   4.903 -0.6220  0.2469  0.5147
  183POPC  C21821032   4.370   1.097   4.700  0.1438  0.5792  0.1968
  183POPC  H18R21033   4.468   1.149   4.712 -0.1132  0.7219  1.9572
  183POPC  H18S21034   4.308   1.126   4.612 -0.0588  0.3082  0.2488
  183POPC  H18T21035   4.385   0.987   4.705 -2.3977  0.0822 -1.2192
  183POPC   C3321036   3.677   1.007   6.213  0.0107  0.1621 -0.0624
  183POPC   H3X21037   3.592   0.937   6.199  0.5294 -0.2496 -1.3150
  183POPC   H3Y21038   3.749   0.945   6.271 -0.0141 -0.9505 -1.1592
  183POPC   C3421039   3.750   1.045   6.082  0.0638  0.5167 -0.2295
  183POPC   H4X21040   3.837   1.113   6.093  0.9897 -0.5504 -0.7754
  183POPC   H4Y21041   3.673   1.092   6.018 -2.8646 -0.0821  2.6046
  183POPC   C3521042   3.799   0.918   6.018  0.9341  0.9219 -0.0588
  183POPC   H5X21043   3.724   0.836   6.011  4.1473 -2.0768 -2.9339
  183POPC   H5Y21044   3.874   0.867   6.081 -1.1596 -2.6223 -0.1868
  183POPC   C3621045   3.856   0.926   5.872  0.1692  0.4611  0.2886
  183POPC   H6X21046   3.900   0.827   5.847  1.1992  1.0921 -0.4707
  183POPC   H6Y21047   3.940   0.999   5.872  2.0820 -1.6267  0.8032
  183POPC   C3721048   3.756   0.948   5.759  0.6899 -0.1695  0.3565
  183POPC   H7X21049   3.688   1.035   5.773 -1.1141 -1.2662 -1.2458
  183POPC   H7Y21050   3.698   0.854   5.755  2.5265 -1.3315 -0.2167
  183POPC   C3821051   3.831   0.969   5.630  0.2427 -0.0521 -0.0961
  183POPC   H8X21052   3.915   0.897   5.643  1.1127  1.1723  1.2795
  183POPC   H8Y21053   3.864   1.075   5.625  0.5294 -0.0726  1.0738
  183POPC   C3921054   3.768   0.929   5.492  0.3216  0.4876 -0.6988
  183POPC   H9X21055   3.657   0.935   5.504  0.4516 -1.0698  1.9248
  183POPC   H9Y21056   3.768   0.821   5.467  1.2409  0.5293 -0.9040
  183POPC  C31021057   3.831   1.014   5.375 -0.1629  0.0448  0.0213
  183POPC  H10X21058   3.939   0.996   5.357 -0.4647 -0.7575 -1.1019
  183POPC  H10Y21059   3.809   1.121   5.397  0.0312  0.1766 -0.4182
  183POPC  C31121060   3.765   0.970   5.241  0.2689 -0.4407  0.6529
  183POPC  H11X21061   3.660   1.004   5.254  0.0808 -0.6441 -0.2745
  183POPC  H11Y21062   3.752   0.860   5.234 -0.2192 -0.3464 -0.1772
  183POPC  C31221063   3.817   1.030   5.114  0.2156  0.5239  0.1495
  183POPC  H12X21064   3.871   1.128   5.118  4.1132 -1.3453 -1.0745
  183POPC  H12Y21065   3.734   1.049   5.042 -0.0183 -3.3730 -0.7924
  183POPC  C31321066   3.909   0.937   5.031 -0.0588  0.0504 -0.2080
  183POPC  H13X21067   3.882   0.831   5.047  1.1846 -0.0244  1.7286
  183POPC  H13Y21068   4.007   0.951   5.081  0.2800 -1.2482 -0.4578
  183POPC  C31421069   3.901   0.969   4.875 -0.4298 -0.1950  0.1166
  183POPC  H14X21070   3.982   0.917   4.819 -2.4711 -1.3537 -1.9573
  183POPC  H14Y21071   3.903   1.075   4.843  0.5942 -0.7165 -1.6887
  183POPC  C31521072   3.768   0.916   4.818  0.5647  0.8553 -0.2229
  183POPC  H15X21073   3.672   0.957   4.856  0.5815 -0.2721  1.0910
  183POPC  H15Y21074   3.759   0.810   4.847  0.6601  0.6022 -1.0757
  183POPC  C31621075   3.766   0.919   4.669  0.7959 -0.2194  0.4180
  183POPC  H16X21076   3.800   1.021   4.641  1.4446 -0.8058 -1.0747
  183POPC  H16Y21077   3.670   0.892   4.621  1.2261  2.7146 -2.4868
  183POPC  H16Z21078   3.839   0.842   4.634  1.0652  1.1806 -2.3855
  184POPC     N21079   4.203   0.758   6.794 -0.2711  0.2542 -0.4822
  184POPC   C1221080   4.162   0.732   6.648 -0.2937 -0.5611  0.0817
  184POPC  H12A21081   4.181   0.816   6.583 -1.7794  0.1688  0.5563
  184POPC  H12B21082   4.055   0.725   6.636 -0.6027 -0.2860  2.3022
  184POPC   C1321083   4.353   0.749   6.803 -0.2686  0.5904 -0.4806
  184POPC  H13A21084   4.390   0.797   6.892  1.8066  0.7081 -1.3470
  184POPC  H13B21085   4.390   0.648   6.810  1.5633  1.3105  0.6748
  184POPC  H13C21086   4.395   0.794   6.714  1.1929 -0.2232 -0.2353
  184POPC   C1421087   4.148   0.885   6.838 -0.2256 -0.2967 -0.6129
  184POPC  H14A21088   4.168   0.904   6.943  0.1226 -0.9486 -0.5493
  184POPC  H14B21089   4.207   0.961   6.788 -0.8768  1.8636  1.7285
  184POPC  H14C21090   4.041   0.896   6.830 -0.1273  0.4714 -0.9691
  184POPC   C1521091   4.129   0.658   6.876  0.3627 -0.0377  0.5136
  184POPC  H15A21092   4.023   0.672   6.863  0.0102 -2.1761  0.6063
  184POPC  H15B21093   4.159   0.673   6.979 -5.2835 -0.6370  2.5932
  184POPC  H15C21094   4.153   0.558   6.843  0.4892  0.9040 -2.4909
  184POPC   C1121095   4.216   0.601   6.582 -0.2636  0.3014  0.1854
  184POPC  H11A21096   4.321   0.620   6.551 -0.5517  1.7206  0.0198
  184POPC  H11B21097   4.163   0.592   6.485  0.8855 -0.6042 -0.3929
  184POPC     P21098   4.294   0.367   6.672 -0.0090  0.0180 -0.0808
  184POPC   O1321099   4.245   0.263   6.762  0.0982 -0.3142  0.6825
  184POPC   O1421100   4.424   0.425   6.719 -0.2467  0.3913 -0.1579
  184POPC   O1221101   4.185   0.482   6.649  0.4722 -0.2266 -0.3422
  184POPC   O1121102   4.319   0.319   6.524 -0.4074  0.0123 -0.1509
  184POPC    C121103   4.202   0.290   6.440 -0.2157  0.1733  0.3961
  184POPC    HA21104   4.146   0.380   6.405  1.6317  0.6052 -1.7159
  184POPC    HB21105   4.136   0.219   6.493 -2.3256  0.5564 -1.5686
  184POPC    C221106   4.230   0.217   6.309  0.2321 -0.3994  0.2282
  184POPC    HS21107   4.300   0.135   6.337  0.0711  0.4322  3.4714
  184POPC   O2121108   4.289   0.315   6.217 -0.3099 -0.1936  0.0276
  184POPC   C2121109   4.386   0.272   6.146  0.3309  0.2991  0.0702
  184POPC   O2221110   4.438   0.167   6.138  0.1102  0.1781  0.5839
  184POPC   C2221111   4.435   0.387   6.058  0.0945 -1.0178  0.3709
  184POPC   H2R21112   4.538   0.364   6.026 -0.7726 -1.6460 -2.1850
  184POPC   H2S21113   4.436   0.472   6.130  0.0249 -0.5145 -0.2175
  184POPC    C321114   4.100   0.149   6.252 -0.0141 -0.5626  0.4397
  184POPC    HX21115   4.031   0.232   6.226  0.3564 -0.8701 -1.7260
  184POPC    HY21116   4.056   0.084   6.331 -2.7482 -0.0693 -0.5367
  184POPC   O3121117   4.120   0.084   6.124 -0.0728  1.0044  0.2086
  184POPC   C3121118   4.182  -0.034   6.134 -0.2135  0.1525  0.2178
  184POPC   O3221119   4.208  -0.090   6.239 -0.4122  0.2498  0.4316
  184POPC   C3221120   4.224  -0.087   5.992 -0.7629  0.4387  0.0994
  184POPC   H2X21121   4.197  -0.194   5.980  1.3208 -0.4949  2.6601
  184POPC   H2Y21122   4.335  -0.100   5.998 -0.8169 -1.5536 -1.9431
  184POPC   C2321123   4.338   0.432   5.947  0.1900 -0.3401 -0.2704
  184POPC   H3R21124   4.338   0.539   5.919 -1.2916 -0.2327  0.0493
  184POPC   H3S21125   4.237   0.402   5.981 -0.2194  1.8696  0.6105
  184POPC   C2421126   4.375   0.356   5.811  0.2676  0.2129 -0.2232
  184POPC   H4R21127   4.291   0.373   5.741  2.4432  3.6068 -2.2897
  184POPC   H4S21128   4.373   0.245   5.819 -1.0341  0.2004 -0.6262
  184POPC   C2521129   4.494   0.413   5.730  0.3211 -0.2337  0.2954
  184POPC   H5R21130   4.593   0.392   5.776  0.2917  0.3458  0.6305
  184POPC   H5S21131   4.469   0.520   5.743 -2.9851 -0.7513 -0.8517
  184POPC   C2621132   4.481   0.379   5.583  0.4593  0.1156  0.5064
  184POPC   H6R21133   4.378   0.406   5.552  0.1596  0.5697  1.8400
  184POPC   H6S21134   4.480   0.268   5.571 -1.3877  0.0240  1.2111
  184POPC   C2721135   4.587   0.425   5.484  0.3652  0.0220  0.0582
  184POPC   H7R21136   4.685   0.437   5.536  1.6293  3.1735 -2.6671
  184POPC   H7S21137   4.552   0.528   5.460  0.6672  0.3671  1.0502
  184POPC   C2821138   4.614   0.346   5.362 -0.5632 -0.0156  0.2273
  184POPC   H8R21139   4.631   0.239   5.388 -0.8633 -0.5366 -1.5608
  184POPC   H8S21140   4.706   0.388   5.316 -1.2262  2.6398  1.1698
  184POPC   C2921141   4.496   0.356   5.268  0.1600 -0.2338  0.3253
  184POPC   H9121142   4.401   0.315   5.304 -1.0403  2.7018  0.7547
  184POPC  C21021143   4.500   0.421   5.150 -0.5894  0.4942 -0.1649
  184POPC  H10121144   4.413   0.407   5.084 -0.9876  0.7342  0.2922
  184POPC  C21121145   4.613   0.497   5.085  0.1107  1.5304 -0.6212
  184POPC  H11R21146   4.666   0.416   5.031  0.8705 -0.0185  2.2295
  184POPC  H11S21147   4.681   0.535   5.165 -0.2524 -1.4334  1.2531
  184POPC  C21221148   4.585   0.599   4.979 -0.2309  0.3420 -0.2105
  184POPC  H12R21149   4.680   0.651   4.951  0.2537 -1.5803 -2.4726
  184POPC  H12S21150   4.517   0.678   5.015  2.2916  2.7669 -0.3948
  184POPC  C21321151   4.537   0.527   4.853 -0.1706 -0.0525  0.4531
  184POPC  H13R21152   4.435   0.484   4.863  0.7217 -2.0839  1.5283
  184POPC  H13S21153   4.610   0.447   4.827  1.2516  0.1360  3.3551
  184POPC  C21421154   4.535   0.613   4.727  0.5556 -0.7115  0.3941
  184POPC  H14R21155   4.636   0.656   4.708 -0.7666  2.3461 -0.3144
  184POPC  H14S21156   4.462   0.695   4.745 -0.1121 -1.0344 -0.7478
  184POPC  C21521157   4.482   0.542   4.605 -0.4513 -0.0428 -0.3429
  184POPC  H15R21158   4.376   0.512   4.623 -0.9585  0.2960 -2.4879
  184POPC  H15S21159   4.532   0.443   4.598 -1.2478 -0.4289 -0.7993
  184POPC  C21621160   4.503   0.605   4.468  0.3085 -0.8169 -0.8805
  184POPC  H16R21161   4.428   0.555   4.402 -0.6282 -1.1009  0.3655
  184POPC  H16S21162   4.607   0.586   4.434 -0.4339 -1.7923 -2.7635
  184POPC  C21721163   4.486   0.755   4.488 -0.5046 -0.7465 -0.7150
  184POPC  H17R21164   4.565   0.802   4.549  2.2893 -2.0522 -3.0896
  184POPC  H17S21165   4.391   0.776   4.542 -0.1181 -0.3395 -0.1854
  184POPC  C21821166   4.474   0.826   4.357 -0.0183  0.0110 -0.2708
  184POPC  H18R21167   4.459   0.936   4.367  1.8500  0.3829 -1.1410
  184POPC  H18S21168   4.392   0.783   4.296 -1.5116  1.2372  0.7932
  184POPC  H18T21169   4.570   0.826   4.300 -0.1090  0.1590 -0.4279
  184POPC   C3321170   4.202   0.004   5.872  0.0737 -0.5855 -0.8418
  184POPC   H3X21171   4.229   0.111   5.883 -0.0990 -0.7585  1.6835
  184POPC   H3Y21172   4.096   0.012   5.839 -0.3150 -1.6467  0.1220
  184POPC   C3421173   4.277  -0.047   5.752 -0.3789 -0.7445  0.8449
  184POPC   H4X21174   4.232  -0.149   5.744 -0.9328 -0.3554 -2.5846
  184POPC   H4Y21175   4.388  -0.047   5.754 -0.2044  1.0368 -2.0646
  184POPC   C3521176   4.243   0.025   5.621  0.8008  0.3225  0.6684
  184POPC   H5X21177   4.261   0.134   5.631  0.4844  0.8134 -2.9445
  184POPC   H5Y21178   4.134   0.011   5.606  1.2031  0.0039 -2.7220
  184POPC   C3621179   4.316  -0.036   5.496 -0.6282  0.5572 -0.1514
  184POPC   H6X21180   4.303  -0.146   5.508  2.9564  0.0480  0.2798
  184POPC   H6Y21181   4.427  -0.033   5.503 -0.4026  0.1964 -2.6544
  184POPC   C3721182   4.259   0.017   5.365 -0.9566 -0.3245  0.2656
  184POPC   H7X21183   4.264   0.128   5.372 -1.8388 -0.3535  1.5704
  184POPC   H7Y21184   4.155  -0.020   5.376 -0.9307 -0.5975 -0.3525
  184POPC   C3821185   4.333  -0.018   5.235 -0.7052 -0.5798  0.6032
  184POPC   H8X21186   4.379  -0.113   5.201 -0.1523  0.5406 -2.0766
  184POPC   H8Y21187   4.415   0.056   5.229 -0.1726 -1.1281  1.0053
  184POPC   C3921188   4.247   0.020   5.118 -0.5039 -0.9947  0.4008
  184POPC   H9X21189   4.196   0.118   5.124  1.3338  0.0095  0.2221
  184POPC   H9Y21190   4.166  -0.055   5.107 -1.0297 -0.3584 -0.1308
  184POPC  C31021191   4.330   0.024   4.992 -0.1788  0.3203  0.0563
  184POPC  H10X21192   4.374  -0.078   4.984 -2.2594 -0.5679 -0.8337
  184POPC  H10Y21193   4.426   0.081   5.000  0.6916 -1.0281 -0.3741
  184POPC  C31121194   4.246   0.066   4.873  0.7799  0.3957 -0.2674
  184POPC  H11X21195   4.215   0.172   4.883 -0.2530 -0.0078  1.1028
  184POPC  H11Y21196   4.155   0.002   4.865  1.3999 -0.5187 -0.0849
  184POPC  C31221197   4.317   0.057   4.741 -0.1072  0.4836  0.0750
  184POPC  H12X21198   4.416   0.008   4.748 -0.5195 -0.7735 -1.9339
  184POPC  H12Y21199   4.346   0.162   4.714  0.8614  0.0259 -0.7521
  184POPC  C31321200   4.237   0.009   4.626 -0.0382 -0.3292  0.8453
  184POPC  H13X21201   4.267   0.044   4.525  0.9961  0.4278  1.3916
  184POPC  H13Y21202   4.131   0.027   4.652  0.4267 -0.7718  3.3134
  184POPC  C31421203   4.240  -0.148   4.600 -0.7551 -0.6655  0.2460
  184POPC  H14X21204   4.205  -0.206   4.688  0.3315  0.7586  1.6767
  184POPC  H14Y21205   4.337  -0.186   4.563 -0.7826  0.1437 -0.7135
  184POPC  C31521206   4.149  -0.173   4.477 -1.0237  0.7332  1.1262
  184POPC  H15X21207   4.186  -0.132   4.381 -1.0261 -1.6155  0.0363
  184POPC  H15Y21208   4.049  -0.128   4.488 -1.1352  1.8171 -2.8228
  184POPC  C31621209   4.119  -0.326   4.452  0.2477  0.1173  0.6422
  184POPC  H16X21210   4.106  -0.380   4.548 -1.3609 -2.0453 -0.6879
  184POPC  H16Y21211   4.198  -0.378   4.395 -2.1206 -1.2430 -1.6507
  184POPC  H16Z21212   4.025  -0.344   4.395 -0.0730 -1.1170  1.5273
  185POPC     N21213   2.435   2.790   1.457  0.7852  0.5147 -0.0985
  185POPC   C1221214   2.326   2.814   1.556  0.2113  0.4811  0.2695
  185POPC  H12A21215   2.239   2.858   1.510 -1.3714 -0.8289  1.8826
  185POPC  H12B21216   2.369   2.883   1.627  0.2942 -1.4142  2.1524
  185POPC   C1321217   2.384   2.686   1.359  0.3816  0.2214  0.5510
  185POPC  H13A21218   2.323   2.611   1.407  0.7492 -1.6652 -1.7586
  185POPC  H13B21219   2.305   2.733   1.302  1.5180  1.2354 -0.2444
  185POPC  H13C21220   2.468   2.643   1.307 -0.2901 -0.1865 -0.2245
  185POPC   C1421221   2.472   2.913   1.381 -0.3340  0.0990  0.5949
  185POPC  H14A21222   2.391   2.976   1.348 -1.5822 -1.6366  0.2498
  185POPC  H14B21223   2.534   2.982   1.438 -0.6078  1.1804 -0.3741
  185POPC  H14C21224   2.515   2.878   1.289 -2.2836 -1.8212  0.3496
  185POPC   C1521225   2.556   2.740   1.518 -0.1145  0.3693  0.3606
  185POPC  H15A21226   2.542   2.640   1.557  0.1631  0.5719  1.0023
  185POPC  H15B21227   2.599   2.807   1.591  0.2084  0.4631  0.0884
  185POPC  H15C21228   2.624   2.740   1.434  1.0151 -0.4143  1.2436
  185POPC   C1121229   2.272   2.694   1.630 -0.2227  0.6603 -0.5230
  185POPC  H11A21230   2.235   2.613   1.563 -0.4464  0.7943 -0.5642
  185POPC  H11B21231   2.178   2.726   1.680 -0.3136 -0.7562  0.2735
  185POPC     P21232   2.409   2.734   1.848 -0.1108 -0.3566 -0.0708
  185POPC   O1321233   2.391   2.879   1.811 -0.0369  0.1949  0.0730
  185POPC   O1421234   2.551   2.687   1.882 -0.2357 -0.3212  0.3321
  185POPC   O1221235   2.368   2.649   1.726  0.3314  0.3361  0.7425
  185POPC   O1121236   2.303   2.691   1.960 -0.4730  0.5967  0.7375
  185POPC    C121237   2.218   2.783   2.017  0.5509  0.5937  0.0989
  185POPC    HA21238   2.118   2.744   2.043  0.4569 -0.3746 -1.5552
  185POPC    HB21239   2.199   2.868   1.948 -1.4678 -0.0492 -0.1917
  185POPC    C221240   2.264   2.833   2.158  1.0040 -0.1821  0.8977
  185POPC    HS21241   2.188   2.909   2.184  1.2733  0.9862 -1.4515
  185POPC   O2121242   2.387   2.905   2.168 -0.0521  0.2772 -0.0965
  185POPC   C2121243   2.388   3.025   2.116  0.0477  0.6011 -0.5746
  185POPC   O2221244   2.301   3.081   2.055 -0.2118  0.4012  0.3431
  185POPC   C2221245   2.536   3.075   2.137  0.0481 -0.0741 -0.0036
  185POPC   H2R21246   2.583   3.077   2.036  1.9915  1.1750  0.8585
  185POPC   H2S21247   2.598   3.004   2.196  1.7460  1.5397  0.2561
  185POPC    C321248   2.272   2.714   2.252  0.8687  0.3729  0.5911
  185POPC    HX21249   2.360   2.660   2.211  1.9878  2.0578  0.6506
  185POPC    HY21250   2.180   2.654   2.239  1.2232 -0.3704  1.4305
  185POPC   O3121251   2.294   2.742   2.388  0.2247 -0.5616  0.3742
  185POPC   C3121252   2.320   2.630   2.459  0.2045  0.2800 -0.6633
  185POPC   O3221253   2.326   2.522   2.408  0.8442  0.0237 -0.2738
  185POPC   C3221254   2.302   2.659   2.608 -0.4645  0.2838  0.9174
  185POPC   H2X21255   2.218   2.732   2.619 -0.0893  1.1911 -1.7026
  185POPC   H2Y21256   2.395   2.709   2.642 -1.6896  1.9290  2.0844
  185POPC   C2321257   2.546   3.221   2.184 -0.0164 -0.1544 -0.2120
  185POPC   H3R21258   2.524   3.296   2.106 -0.2756  0.9122  0.8647
  185POPC   H3S21259   2.655   3.233   2.202  0.8309 -3.7780 -1.8922
  185POPC   C2421260   2.470   3.266   2.308 -1.3239  0.8688  0.2977
  185POPC   H4R21261   2.506   3.207   2.395  0.3914  1.8593  0.3222
  185POPC   H4S21262   2.364   3.235   2.299 -0.8376 -1.4123  1.5056
  185POPC   C2521263   2.490   3.411   2.343  0.3920 -0.8369  0.2461
  185POPC   H5R21264   2.592   3.446   2.315  0.5873 -1.3838  0.2699
  185POPC   H5S21265   2.481   3.428   2.453 -1.0420 -0.6538  0.1141
  185POPC   C2621266   2.394   3.506   2.263 -0.3915 -0.5133 -0.2333
  185POPC   H6R21267   2.296   3.460   2.237  0.1664 -1.7188 -0.2668
  185POPC   H6S21268   2.449   3.530   2.170  0.8143 -0.9466  0.3489
  185POPC   C2721269   2.370   3.644   2.324  0.1920 -0.1585 -0.7579
  185POPC   H7R21270   2.348   3.726   2.252 -1.7016  0.2937  0.2703
  185POPC   H7S21271   2.456   3.679   2.387 -1.3690 -1.2372  2.1386
  185POPC   C2821272   2.253   3.641   2.418 -0.3994  0.2170 -0.0304
  185POPC   H8R21273   2.265   3.572   2.504 -0.2321  1.2681  0.8121
  185POPC   H8S21274   2.171   3.606   2.352  0.7775 -0.9398 -0.9171
  185POPC   C2921275   2.215   3.781   2.465  0.2789  0.2839 -0.3752
  185POPC   H9121276   2.142   3.836   2.405 -1.4180 -0.0856  1.2514
  185POPC  C21021277   2.238   3.832   2.585 -0.2713  0.6106 -0.1444
  185POPC  H10121278   2.208   3.935   2.610 -0.1350  0.9501 -1.3278
  185POPC  C21121279   2.324   3.761   2.688 -0.4056 -0.4037 -0.2668
  185POPC  H11R21280   2.430   3.774   2.660  0.3870 -3.3982  0.9534
  185POPC  H11S21281   2.311   3.650   2.693  1.2149 -0.6046  0.1332
  185POPC  C21221282   2.289   3.814   2.836 -0.2600 -0.2808  0.5316
  185POPC  H12R21283   2.312   3.923   2.844  1.2459 -0.6843  2.3901
  185POPC  H12S21284   2.363   3.756   2.895  0.1974 -0.1688  0.0685
  185POPC  C21321285   2.144   3.789   2.879  0.3701  0.2056  0.5199
  185POPC  H13R21286   2.102   3.704   2.822  0.0030 -0.6149  1.9723
  185POPC  H13S21287   2.085   3.875   2.840 -0.9136 -0.8418  0.0728
  185POPC  C21421288   2.116   3.782   3.033 -0.0185  0.4778  0.3154
  185POPC  H14R21289   2.170   3.874   3.067  0.2921  0.1311  0.7681
  185POPC  H14S21290   2.178   3.698   3.071 -1.0287 -1.0977 -1.4050
  185POPC  C21521291   1.968   3.769   3.081 -0.9911 -0.5677  0.8743
  185POPC  H15R21292   1.914   3.693   3.022 -0.0468  0.8035 -1.9209
  185POPC  H15S21293   1.905   3.859   3.067  0.1997  0.5182  2.1379
  185POPC  C21621294   1.956   3.731   3.231 -0.0976 -0.5332 -0.6263
  185POPC  H16R21295   1.992   3.626   3.239  0.2857 -0.2856  4.4508
  185POPC  H16S21296   1.848   3.752   3.239  0.1254  0.8292 -0.9763
  185POPC  C21721297   2.027   3.828   3.326 -0.5041 -0.0549  0.6651
  185POPC  H17R21298   2.006   3.934   3.301  2.2513  0.4606  0.3178
  185POPC  H17S21299   2.136   3.810   3.314 -0.6136  0.3262 -1.1495
  185POPC  C21821300   2.003   3.797   3.470  0.2423 -0.2489  0.1177
  185POPC  H18R21301   2.068   3.714   3.505  0.7672 -1.1679 -2.7795
  185POPC  H18S21302   1.894   3.781   3.489 -0.1528  2.5016  0.6205
  185POPC  H18T21303   2.031   3.882   3.536 -0.2025 -0.1517  0.1877
  185POPC   C3321304   2.276   2.528   2.697 -0.4438 -0.1965  0.6883
  185POPC   H3X21305   2.366   2.466   2.682 -0.1582  0.6878 -1.7776
  185POPC   H3Y21306   2.183   2.476   2.665  0.9838 -1.6729 -1.2901
  185POPC   C3421307   2.268   2.573   2.850 -0.7884  0.1582 -0.0810
  185POPC   H4X21308   2.350   2.647   2.866 -0.7666 -0.1933  1.6732
  185POPC   H4Y21309   2.294   2.478   2.902  0.7937  0.6678  0.1398
  185POPC   C3521310   2.120   2.606   2.894  0.6750  0.4532  1.0118
  185POPC   H5X21311   2.048   2.544   2.836  0.0574  0.5711  1.6470
  185POPC   H5Y21312   2.106   2.711   2.860  2.1156  1.3323  2.9736
  185POPC   C3621313   2.102   2.596   3.043 -0.0396 -1.3732 -0.7933
  185POPC   H6X21314   2.181   2.648   3.101 -3.4304  1.3073  1.8710
  185POPC   H6Y21315   2.115   2.494   3.085  1.8415 -0.5341  0.8066
  185POPC   C3721316   1.972   2.656   3.107 -0.0093  0.8104  1.0614
  185POPC   H7X21317   1.895   2.582   3.074  1.9604 -1.7785  1.9485
  185POPC   H7Y21318   1.959   2.760   3.069 -0.6627  0.5742  0.6119
  185POPC   C3821319   1.976   2.663   3.257 -0.0512 -0.0696  0.3963
  185POPC   H8X21320   2.061   2.731   3.276 -0.0711  0.9270 -2.6682
  185POPC   H8Y21321   2.009   2.564   3.296  1.2330  0.2706  0.2301
  185POPC   C3921322   1.851   2.712   3.321  0.0154  0.0933 -0.9400
  185POPC   H9X21323   1.760   2.653   3.296 -0.5564 -0.1913  1.5794
  185POPC   H9Y21324   1.830   2.820   3.308  0.3224  0.3437  0.5181
  185POPC  C31021325   1.855   2.690   3.473  0.2219  0.5186 -0.5250
  185POPC  H10X21326   1.941   2.741   3.521 -1.2310  2.4931  0.1345
  185POPC  H10Y21327   1.856   2.581   3.495  2.2341  0.9709  2.1342
  185POPC  C31121328   1.734   2.761   3.538 -0.1980  0.2861  0.2642
  185POPC  H11X21329   1.640   2.720   3.497  0.0640 -0.1916  0.1318
  185POPC  H11Y21330   1.740   2.869   3.511 -0.5982  0.6239  1.4426
  185POPC  C31221331   1.729   2.752   3.692  0.1229 -0.6398 -0.5408
  185POPC  H12X21332   1.830   2.770   3.735 -0.3782  2.3816 -0.3741
  185POPC  H12Y21333   1.684   2.666   3.745 -2.6611  0.0867 -1.5472
  185POPC  C31321334   1.655   2.880   3.742 -0.3960  0.4200  0.5977
  185POPC  H13X21335   1.561   2.880   3.683  0.3009  2.9970 -0.6871
  185POPC  H13Y21336   1.713   2.972   3.721 -1.2479  1.0009  0.7300
  185POPC  C31421337   1.622   2.889   3.893 -0.1680  0.0898  0.7313
  185POPC  H14X21338   1.573   2.793   3.919  4.5491 -2.7394  0.3610
  185POPC  H14Y21339   1.558   2.979   3.890  2.9613  2.4961 -0.2417
  185POPC  C31521340   1.747   2.917   3.979  0.0103 -0.4737 -0.4375
  185POPC  H15X21341   1.770   3.026   3.976  1.0599 -0.6454  0.6861
  185POPC  H15Y21342   1.833   2.872   3.925 -0.2845  0.5780 -1.8501
  185POPC  C31621343   1.756   2.852   4.118  0.2380  0.1862  0.2061
  185POPC  H16X21344   1.698   2.757   4.130 -2.4062  1.2967 -2.4716
  185POPC  H16Y21345   1.723   2.926   4.193  1.0739 -1.1749  2.0104
  185POPC  H16Z21346   1.862   2.828   4.137  0.2873  0.5509  0.3947
  186POPC     N21347   4.724   6.080   1.908 -0.3925 -0.0496  0.1848
  186POPC   C1221348   4.765   5.982   2.014  0.1507  0.2514 -0.5885
  186POPC  H12A21349   4.750   5.881   1.978  0.5470 -0.9738  2.3963
  186POPC  H12B21350   4.699   6.000   2.098  1.1060  1.7769 -0.1314
  186POPC   C1321351   4.821   6.069   1.794  0.7477 -0.4692 -0.3868
  186POPC  H13A21352   4.792   6.137   1.714 -0.3125 -2.4413 -1.7700
  186POPC  H13B21353   4.920   6.092   1.831  1.5404 -2.3699 -1.1592
  186POPC  H13C21354   4.814   5.977   1.737 -0.0133 -1.0354  0.5892
  186POPC   C1421355   4.593   6.049   1.861 -0.1957 -0.3413  0.1817
  186POPC  H14A21356   4.524   6.022   1.940 -0.3721  0.7728  0.4257
  186POPC  H14B21357   4.554   6.137   1.812  1.4868  0.1232 -0.3745
  186POPC  H14C21358   4.584   5.967   1.792 -5.0638  1.8215 -2.2504
  186POPC   C1521359   4.722   6.221   1.978  0.1419  0.8214  1.2221
  186POPC  H15A21360   4.818   6.254   2.015  0.4610  0.5447  0.6614
  186POPC  H15B21361   4.652   6.208   2.059 -1.1123 -1.4456 -0.1156
  186POPC  H15C21362   4.675   6.295   1.915 -3.3862 -0.6725  1.8467
  186POPC   C1121363   4.899   5.981   2.086 -0.3747  0.1600 -0.1380
  186POPC  H11A21364   4.976   5.973   2.006 -1.0367  1.5189 -0.9600
  186POPC  H11B21365   4.918   5.893   2.150  2.1847  0.8618  0.1818
  186POPC     P21366   5.066   6.157   2.188  0.2760 -0.1711  0.0338
  186POPC   O1321367   5.126   6.228   2.073 -0.4431  0.5549 -0.3054
  186POPC   O1421368   5.143   6.047   2.245 -0.3285 -0.1439  0.2116
  186POPC   O1221369   4.917   6.109   2.160 -0.2576  0.8389  0.1361
  186POPC   O1121370   5.041   6.256   2.310 -0.3414 -0.5030  0.1392
  186POPC    C121371   4.947   6.360   2.285  0.2326  0.0341  0.2858
  186POPC    HA21372   4.847   6.314   2.271  0.4108 -0.2728  0.0247
  186POPC    HB21373   4.965   6.405   2.186 -2.0040 -1.0187 -0.6688
  186POPC    C221374   4.937   6.468   2.405 -0.3641  0.3152  0.1865
  186POPC    HS21375   4.841   6.521   2.394 -0.1558  0.8861  1.0322
  186POPC   O2121376   5.053   6.551   2.405  0.0885 -0.6956  0.5420
  186POPC   C2121377   5.029   6.657   2.473  0.1674 -0.4421 -0.0904
  186POPC   O2221378   4.918   6.702   2.509 -0.0581 -0.8557 -0.3463
  186POPC   C2221379   5.157   6.727   2.520  0.4133  0.2500  0.0078
  186POPC   H2R21380   5.138   6.831   2.555  1.2584  0.5975 -0.5348
  186POPC   H2S21381   5.213   6.740   2.425  0.2567 -0.3553 -0.1722
  186POPC    C321382   4.920   6.388   2.543 -0.0755 -0.0319  0.6866
  186POPC    HX21383   5.021   6.354   2.574 -0.3170 -0.5054  0.9611
  186POPC    HY21384   4.862   6.295   2.525  2.0346 -1.1801 -0.6623
  186POPC   O3121385   4.861   6.473   2.646  0.5905  0.3760 -0.0185
  186POPC   C3121386   4.722   6.488   2.648  0.2288 -0.5136 -0.1315
  186POPC   O3221387   4.644   6.442   2.567  0.2301 -0.3896 -1.1699
  186POPC   C3221388   4.666   6.577   2.761 -0.0274 -1.0968 -0.8929
  186POPC   H2X21389   4.569   6.527   2.784  0.7637 -1.9125  0.8789
  186POPC   H2Y21390   4.655   6.679   2.719 -0.1127 -0.8175 -0.2010
  186POPC   C2321391   5.225   6.654   2.631  0.0377  0.1083 -0.2876
  186POPC   H3R21392   5.326   6.694   2.650 -0.6549  1.2355  1.1457
  186POPC   H3S21393   5.235   6.544   2.615  1.6024  0.2238 -0.2396
  186POPC   C2421394   5.148   6.676   2.761 -0.5713  0.2148 -0.6816
  186POPC   H4R21395   5.049   6.628   2.748 -1.1706  0.9041  1.1038
  186POPC   H4S21396   5.134   6.785   2.776  0.4177  0.3482 -0.6503
  186POPC   C2521397   5.208   6.618   2.888 -0.3733  0.0674  0.1265
  186POPC   H5R21398   5.236   6.512   2.870 -0.2172  0.2863 -0.9828
  186POPC   H5S21399   5.121   6.621   2.957 -0.1310 -0.6467  0.4768
  186POPC   C2621400   5.324   6.703   2.941 -0.1827 -0.3901 -0.1459
  186POPC   H6R21401   5.286   6.805   2.961  0.2426 -0.3680  0.5540
  186POPC   H6S21402   5.403   6.708   2.862  1.8395 -0.0575  1.7982
  186POPC   C2721403   5.392   6.641   3.060 -0.0805 -0.1595  0.3190
  186POPC   H7R21404   5.488   6.694   3.081 -0.4174  1.7297 -2.4270
  186POPC   H7S21405   5.410   6.533   3.045  0.8456  0.0747 -0.3950
  186POPC   C2821406   5.300   6.654   3.184  0.1596  0.7470 -0.3307
  186POPC   H8R21407   5.357   6.600   3.261  0.2179 -0.3104 -1.0960
  186POPC   H8S21408   5.208   6.593   3.168  0.6376 -0.5033  1.3944
  186POPC   C2921409   5.250   6.792   3.233 -0.4152 -0.6855 -0.2220
  186POPC   H9121410   5.211   6.854   3.151 -0.8868 -0.1151  0.4226
  186POPC  C21021411   5.245   6.835   3.362 -0.3081 -0.9385  0.5051
  186POPC  H10121412   5.196   6.931   3.381 -2.0533 -1.2645 -1.8866
  186POPC  C21121413   5.292   6.770   3.484 -0.4888  0.2921 -0.2608
  186POPC  H11R21414   5.402   6.773   3.494 -0.4203 -1.3173 -0.2079
  186POPC  H11S21415   5.265   6.662   3.479  0.2364  0.1153 -0.5187
  186POPC  C21221416   5.230   6.813   3.618 -0.0738 -0.4599 -0.1800
  186POPC  H12R21417   5.122   6.786   3.617 -0.6576  1.5393  1.4480
  186POPC  H12S21418   5.226   6.924   3.617  0.0516 -0.3668  2.5077
  186POPC  C21321419   5.310   6.766   3.742  1.1184  0.9853  0.5452
  186POPC  H13R21420   5.410   6.814   3.741  0.8291  1.7267  2.5197
  186POPC  H13S21421   5.317   6.655   3.732 -0.0482  0.8299  1.1846
  186POPC  C21421422   5.245   6.774   3.879 -0.3741 -0.3220  0.4725
  186POPC  H14R21423   5.306   6.718   3.953 -1.0707 -2.8788 -0.7911
  186POPC  H14S21424   5.144   6.729   3.871 -0.4311  0.1571 -3.8763
  186POPC  C21521425   5.231   6.913   3.932  0.5084 -0.6387 -0.3760
  186POPC  H15R21426   5.137   6.956   3.893 -0.6434 -1.7779  1.0155
  186POPC  H15S21427   5.315   6.980   3.904  0.9528 -0.0947  2.0124
  186POPC  C21621428   5.208   6.928   4.082  0.3543  0.1268 -0.2790
  186POPC  H16R21429   5.296   6.911   4.147  0.8061 -0.5394 -1.0453
  186POPC  H16S21430   5.132   6.854   4.116 -1.5135  1.1533 -1.9831
  186POPC  C21721431   5.152   7.062   4.120 -0.3143 -0.4519 -0.1099
  186POPC  H17R21432   5.046   7.071   4.087 -0.4156 -1.4155 -0.0921
  186POPC  H17S21433   5.198   7.147   4.065  0.1133 -0.4803  0.2042
  186POPC  C21821434   5.169   7.076   4.274  0.6291 -0.5059 -0.4131
  186POPC  H18R21435   5.278   7.067   4.296  0.7556  0.8530 -0.4275
  186POPC  H18S21436   5.132   7.167   4.326  0.4866  0.1534 -1.6262
  186POPC  H18T21437   5.120   6.984   4.313 -1.3972  0.4121 -0.6817
  186POPC   C3321438   4.757   6.578   2.888  0.5884 -0.3227  0.0172
  186POPC   H3X21439   4.846   6.638   2.860  0.8709  0.0983  1.6710
  186POPC   H3Y21440   4.800   6.479   2.915  0.4996 -0.5300 -0.6034
  186POPC   C3421441   4.708   6.665   3.004 -0.1896  0.7251 -0.4258
  186POPC   H4X21442   4.609   6.625   3.033  0.3359 -0.5393 -0.3059
  186POPC   H4Y21443   4.683   6.766   2.964  0.7844  0.8687 -0.7056
  186POPC   C3521444   4.795   6.670   3.133 -0.3684  0.3846 -0.6525
  186POPC   H5X21445   4.897   6.701   3.102  0.4988 -1.2569  0.4565
  186POPC   H5Y21446   4.817   6.568   3.170 -0.2046  0.7329  0.2159
  186POPC   C3621447   4.746   6.766   3.237  0.0792 -0.9204  0.0899
  186POPC   H6X21448   4.646   6.725   3.262 -0.8550  0.9144 -0.4122
  186POPC   H6Y21449   4.729   6.870   3.201  1.3786 -0.1561  1.5927
  186POPC   C3721450   4.826   6.778   3.368  0.3808 -0.2397 -0.7170
  186POPC   H7X21451   4.923   6.830   3.353  0.0835  0.0995 -1.5903
  186POPC   H7Y21452   4.850   6.682   3.418  1.3134  0.2933 -0.1152
  186POPC   C3821453   4.751   6.852   3.473 -0.5802 -1.7629 -0.1868
  186POPC   H8X21454   4.649   6.812   3.491 -0.9662 -0.2863  1.1235
  186POPC   H8Y21455   4.740   6.958   3.442 -0.4779 -1.0668  2.0399
  186POPC   C3921456   4.827   6.852   3.610  0.0081 -0.2612 -0.1919
  186POPC   H9X21457   4.934   6.874   3.594  0.0180  0.1912  0.4479
  186POPC   H9Y21458   4.809   6.757   3.665  0.6158  0.5954  1.5617
  186POPC  C31021459   4.751   6.945   3.706  0.1567 -0.6947 -0.4834
  186POPC  H10X21460   4.643   6.920   3.699 -0.2036  0.2738  1.0652
  186POPC  H10Y21461   4.756   7.053   3.678 -1.9218 -0.4499 -0.0912
  186POPC  C31121462   4.799   6.937   3.855 -0.4634  0.1227 -0.1963
  186POPC  H11X21463   4.900   6.978   3.877  0.5279 -0.4016 -3.3006
  186POPC  H11Y21464   4.802   6.827   3.864  1.7195  0.0351 -1.2768
  186POPC  C31221465   4.695   6.995   3.947  0.9008  0.2159 -0.3451
  186POPC  H12X21466   4.603   7.004   3.886  3.1747  2.1279 -3.8943
  186POPC  H12Y21467   4.727   7.099   3.972  0.4714 -0.1867  2.0919
  186POPC  C31321468   4.684   6.930   4.086  0.3757 -0.6159  0.8992
  186POPC  H13X21469   4.783   6.920   4.135  0.7890  1.3032  0.5423
  186POPC  H13Y21470   4.633   6.832   4.074  0.3788 -0.5906  0.6613
  186POPC  C31421471   4.578   7.009   4.170  0.7916  0.5213 -0.0189
  186POPC  H14X21472   4.479   6.980   4.127  0.8414 -1.6205  1.1770
  186POPC  H14Y21473   4.611   7.114   4.162  1.1894  0.4391  0.5662
  186POPC  C31521474   4.573   6.965   4.320 -0.0691  0.4543  0.7264
  186POPC  H15X21475   4.680   6.967   4.350  1.0166 -0.4570 -2.6770
  186POPC  H15Y21476   4.539   6.860   4.334  0.9487  0.0943  0.5483
  186POPC  C31621477   4.496   7.071   4.407 -0.0275  0.3724  0.3595
  186POPC  H16X21478   4.506   7.045   4.515  0.3800  1.1359  0.5168
  186POPC  H16Y21479   4.388   7.063   4.382  0.5457  0.1474 -2.3846
  186POPC  H16Z21480   4.537   7.170   4.379 -0.4161  0.1866 -0.9332
  187POPC     N21481   3.917   2.397   1.901  0.2343  0.5925 -0.2096
  187POPC   C1221482   3.802   2.479   1.942 -0.5016  0.0823  0.5508
  187POPC  H12A21483   3.732   2.425   2.005 -0.0139 -1.2795 -0.0316
  187POPC  H12B21484   3.738   2.494   1.857 -0.2083  1.2542  0.5203
  187POPC   C1321485   3.985   2.465   1.791 -0.1043 -0.9138 -0.4680
  187POPC  H13A21486   4.084   2.429   1.769 -0.0238 -0.1513 -1.4478
  187POPC  H13B21487   3.916   2.474   1.708 -3.8770  1.4135  2.5409
  187POPC  H13C21488   3.987   2.572   1.809  0.5380 -0.9233 -0.4552
  187POPC   C1421489   4.014   2.384   2.021  0.0224  0.3453  0.1039
  187POPC  H14A21490   4.099   2.324   1.991 -0.5888  0.0380 -1.1105
  187POPC  H14B21491   4.062   2.478   2.044 -0.0570  0.1446  1.1121
  187POPC  H14C21492   3.974   2.347   2.113  1.7542  1.1921  1.2538
  187POPC   C1521493   3.879   2.263   1.851  0.2709 -0.0702 -0.6178
  187POPC  H15A21494   3.880   2.197   1.937 -1.2521  1.2608  0.4784
  187POPC  H15B21495   3.954   2.222   1.785 -0.8098 -1.9373 -0.7591
  187POPC  H15C21496   3.780   2.268   1.808  0.3292 -0.1592 -0.7619
  187POPC   C1121497   3.823   2.624   1.996  0.3691 -0.0735 -0.2214
  187POPC  H11A21498   3.902   2.638   2.073  0.0255  1.2273 -0.0917
  187POPC  H11B21499   3.729   2.650   2.049 -0.4109 -0.5771 -1.3146
  187POPC     P21500   3.740   2.772   1.790  0.1206  0.0771 -0.0491
  187POPC   O1321501   3.634   2.673   1.766  0.2536  0.2276 -0.4265
  187POPC   O1421502   3.807   2.841   1.679 -0.5919 -0.2696  0.1004
  187POPC   O1221503   3.847   2.711   1.886  0.2329  0.2544 -0.2241
  187POPC   O1121504   3.681   2.885   1.877  0.1500  0.5125  0.5553
  187POPC    C121505   3.759   3.003   1.907  0.3933  0.1896  0.1249
  187POPC    HA21506   3.699   3.094   1.884 -0.6171 -0.7771 -1.2092
  187POPC    HB21507   3.848   3.013   1.842 -0.2959 -1.5074 -1.1611
  187POPC    C221508   3.805   3.004   2.056  0.6387 -0.0134  0.6613
  187POPC    HS21509   3.892   2.935   2.054 -0.0728 -0.9193 -0.8539
  187POPC   O2121510   3.694   2.963   2.147 -0.6858 -0.2903  0.2259
  187POPC   C2121511   3.735   2.925   2.267 -0.0026  0.2025 -0.7374
  187POPC   O2221512   3.853   2.906   2.296  0.1217 -0.4443  0.1578
  187POPC   C2221513   3.613   2.917   2.358  0.0504  0.0184  0.0964
  187POPC   H2R21514   3.525   2.908   2.291  0.3425  0.6528 -0.3832
  187POPC   H2S21515   3.596   3.010   2.416  1.4005 -0.2464  0.9730
  187POPC    C321516   3.872   3.139   2.100 -0.3157  0.7137 -0.5478
  187POPC    HX21517   3.967   3.151   2.043 -0.8247  0.0446 -1.5748
  187POPC    HY21518   3.910   3.134   2.204  0.8780  1.6051 -0.9187
  187POPC   O3121519   3.783   3.250   2.082 -0.3016 -0.2057  0.0509
  187POPC   C3121520   3.727   3.292   2.198  0.7148 -0.4457  0.5586
  187POPC   O3221521   3.737   3.233   2.300 -0.2753 -0.4926  0.0869
  187POPC   C3221522   3.644   3.423   2.170 -0.5972 -0.3190  0.1487
  187POPC   H2X21523   3.571   3.378   2.100 -1.2107  2.1764 -0.9267
  187POPC   H2Y21524   3.719   3.496   2.134 -2.0724  1.9510  1.4257
  187POPC   C2321525   3.615   2.802   2.457  0.4439  0.0399  0.1508
  187POPC   H3R21526   3.677   2.713   2.432  0.5169 -0.2027  1.1653
  187POPC   H3S21527   3.517   2.750   2.457 -0.5364  1.6983  2.4884
  187POPC   C2421528   3.655   2.852   2.596  0.1773  0.2607  0.1433
  187POPC   H4R21529   3.573   2.908   2.645 -1.0038 -0.6304 -0.7444
  187POPC   H4S21530   3.754   2.902   2.592  0.0986  0.3622 -0.8154
  187POPC   C2521531   3.672   2.730   2.679  0.3718  0.4238  0.4612
  187POPC   H5R21532   3.707   2.641   2.622 -0.0659  0.8356 -0.4751
  187POPC   H5S21533   3.574   2.699   2.722 -0.4201  0.3626 -1.3056
  187POPC   C2621534   3.762   2.751   2.800 -0.3607 -0.2039 -0.4832
  187POPC   H6R21535   3.856   2.795   2.760  0.3854 -2.2680 -1.0915
  187POPC   H6S21536   3.788   2.663   2.863  2.2429  2.4723  2.5802
  187POPC   C2721537   3.708   2.856   2.897  0.2065 -0.0740  0.5620
  187POPC   H7R21538   3.607   2.836   2.940 -1.5457  1.4871 -2.5321
  187POPC   H7S21539   3.711   2.957   2.851 -0.0791  0.1608  1.0561
  187POPC   C2821540   3.791   2.872   3.024 -0.1355  0.0728 -0.2573
  187POPC   H8R21541   3.759   2.962   3.080 -2.0177 -0.8565  0.2460
  187POPC   H8S21542   3.897   2.888   2.994 -0.1689  0.6676 -0.0647
  187POPC   C2921543   3.782   2.758   3.117 -0.1551  0.1667 -0.4443
  187POPC   H9121544   3.757   2.663   3.067 -0.4068  2.0764 -4.2545
  187POPC  C21021545   3.815   2.766   3.251 -0.0392 -0.4299 -0.2962
  187POPC  H10121546   3.794   2.674   3.307  1.1610 -0.0969  0.7449
  187POPC  C21121547   3.850   2.883   3.332 -0.6634 -0.1573  0.2869
  187POPC  H11R21548   3.884   2.967   3.267  0.7884 -1.5843 -0.8945
  187POPC  H11S21549   3.927   2.842   3.401 -0.7764  1.0207  1.1397
  187POPC  C21221550   3.725   2.906   3.429 -0.3837 -0.4630  0.6063
  187POPC  H12R21551   3.701   2.810   3.479  0.1323 -1.2432 -0.6039
  187POPC  H12S21552   3.643   2.934   3.360 -0.2641  1.3718  1.1545
  187POPC  C21321553   3.723   3.025   3.525 -0.5207  0.6847  0.1524
  187POPC  H13R21554   3.754   3.110   3.461 -1.1426  0.2897 -0.6958
  187POPC  H13S21555   3.807   3.024   3.598 -0.5449 -0.2506  0.1845
  187POPC  C21421556   3.587   3.058   3.585 -0.3603  0.1756  0.6372
  187POPC  H14R21557   3.565   2.968   3.646 -0.9171 -2.0550 -2.5817
  187POPC  H14S21558   3.510   3.083   3.508 -0.5469 -0.3231  0.6592
  187POPC  C21521559   3.586   3.181   3.680 -0.0796 -0.9181  0.5791
  187POPC  H15R21560   3.624   3.262   3.614 -1.1287 -1.0223 -0.1820
  187POPC  H15S21561   3.656   3.170   3.766 -0.2970 -1.0537  0.7405
  187POPC  C21621562   3.445   3.212   3.728 -0.8281 -0.0365 -0.1818
  187POPC  H16R21563   3.437   3.185   3.836 -0.1334  1.9417  0.4006
  187POPC  H16S21564   3.388   3.137   3.669  0.7441 -1.0812 -0.4293
  187POPC  C21721565   3.391   3.349   3.715 -0.5724  0.0825  0.1952
  187POPC  H17R21566   3.394   3.382   3.609  1.3062  3.2423  1.1033
  187POPC  H17S21567   3.470   3.413   3.760  0.5179 -1.6108  0.8220
  187POPC  C21821568   3.252   3.369   3.782  0.0184  0.0004  0.0055
  187POPC  H18R21569   3.178   3.293   3.748 -1.5473  2.1005 -1.5522
  187POPC  H18S21570   3.207   3.466   3.751 -1.2813 -1.2280 -2.1991
  187POPC  H18T21571   3.266   3.367   3.892  4.7384  0.2088 -0.3939
  187POPC   C3321572   3.590   3.476   2.305 -0.5313 -0.6595 -0.5219
  187POPC   H3X21573   3.564   3.386   2.365 -0.3360 -1.7590 -2.0264
  187POPC   H3Y21574   3.491   3.525   2.291 -0.8834 -0.7629  1.3238
  187POPC   C3421575   3.686   3.574   2.375  0.9383  0.3005  0.0993
  187POPC   H4X21576   3.675   3.669   2.318  1.3971  0.3606  0.1015
  187POPC   H4Y21577   3.790   3.537   2.362  0.8045 -0.0202 -0.0527
  187POPC   C3521578   3.650   3.580   2.525 -0.0113  0.8067  0.1444
  187POPC   H5X21579   3.679   3.481   2.565  1.1676 -0.0476 -2.5773
  187POPC   H5Y21580   3.540   3.581   2.534 -0.5027 -0.8456 -3.6759
  187POPC   C3621581   3.703   3.707   2.603 -0.4891 -0.2698  0.3536
  187POPC   H6X21582   3.652   3.796   2.560 -1.1793 -1.2388 -0.9338
  187POPC   H6Y21583   3.812   3.718   2.582  0.0847 -0.6199  2.8600
  187POPC   C3721584   3.675   3.710   2.751 -0.1488  1.2877  0.6189
  187POPC   H7X21585   3.759   3.649   2.793 -0.3046  1.2533  0.8852
  187POPC   H7Y21586   3.576   3.664   2.772  0.5268 -0.1027  0.9009
  187POPC   C3821587   3.674   3.842   2.812 -0.1943  0.3741 -0.0815
  187POPC   H8X21588   3.611   3.911   2.751 -0.6030  1.3395  1.3703
  187POPC   H8Y21589   3.782   3.869   2.814  0.3472 -1.5088 -1.3220
  187POPC   C3921590   3.636   3.855   2.964  0.1050  0.3650  0.3324
  187POPC   H9X21591   3.700   3.789   3.027 -1.4723 -2.5028 -0.8731
  187POPC   H9Y21592   3.534   3.812   2.968 -0.0099  0.5600 -0.4060
  187POPC  C31021593   3.654   3.996   3.017 -0.8089 -0.2211  0.1461
  187POPC  H10X21594   3.584   4.061   2.961  2.2342  1.7774 -1.6848
  187POPC  H10Y21595   3.758   4.028   2.991 -1.6241  2.6313  0.0351
  187POPC  C31121596   3.630   4.004   3.174 -0.2060 -0.2721  0.8742
  187POPC  H11X21597   3.695   3.925   3.217 -1.7313 -1.7082  0.6849
  187POPC  H11Y21598   3.524   3.979   3.196 -1.6050  3.7807 -0.3466
  187POPC  C31221599   3.649   4.131   3.249 -0.9495  0.8669  0.4435
  187POPC  H12X21600   3.562   4.189   3.213  0.0130  0.5608 -2.6335
  187POPC  H12Y21601   3.744   4.184   3.225 -2.1974  2.0387 -2.2649
  187POPC  C31321602   3.645   4.105   3.401  0.2742  0.4381  0.1593
  187POPC  H13X21603   3.700   4.012   3.427 -0.9031  0.1765  1.8846
  187POPC  H13Y21604   3.536   4.089   3.411 -0.2114  1.9684 -1.9622
  187POPC  C31421605   3.710   4.215   3.493  1.1191  0.1823  0.1505
  187POPC  H14X21606   3.670   4.309   3.451 -1.1507 -0.4329  0.7910
  187POPC  H14Y21607   3.818   4.187   3.498  1.4742  1.0219 -1.9748
  187POPC  C31521608   3.672   4.205   3.645  0.8559  0.0336  0.3886
  187POPC  H15X21609   3.756   4.244   3.708  0.8666  0.2022  0.2725
  187POPC  H15Y21610   3.652   4.100   3.674 -1.8393  0.2379 -0.4610
  187POPC  C31621611   3.545   4.290   3.684  0.4892 -0.6087 -0.1667
  187POPC  H16X21612   3.471   4.266   3.605 -0.2633 -0.0721  0.3524
  187POPC  H16Y21613   3.560   4.398   3.665 -1.8503 -0.0956  0.5543
  187POPC  H16Z21614   3.505   4.277   3.787  2.7644 -0.8469  0.7288
  188POPC     N21615   0.833   6.211   2.443  0.0627  0.8291  0.2914
  188POPC   C1221616   0.934   6.274   2.530 -0.4572 -0.5889 -0.2864
  188POPC  H12A21617   0.926   6.218   2.622 -1.2851  1.4372  0.9310
  188POPC  H12B21618   0.897   6.371   2.559  0.8212  0.0526 -0.7438
  188POPC   C1321619   0.832   6.286   2.313  0.1343 -0.0422  0.5639
  188POPC  H13A21620   0.769   6.373   2.327 -1.6461 -0.8954 -1.5328
  188POPC  H13B21621   0.927   6.315   2.272  0.5702 -0.0676  1.5271
  188POPC  H13C21622   0.778   6.231   2.237 -1.2802  2.1975 -0.1446
  188POPC   C1421623   0.862   6.069   2.401  0.0614  0.1125 -0.1906
  188POPC  H14A21624   0.967   6.060   2.380  0.1276  1.6342 -0.6672
  188POPC  H14B21625   0.835   6.001   2.480 -3.1067  3.0166  1.5141
  188POPC  H14C21626   0.806   6.037   2.315 -1.8855  1.5508  0.4778
  188POPC   C1521627   0.701   6.220   2.499 -0.7050  0.1263 -0.7392
  188POPC  H15A21628   0.706   6.197   2.605  2.7558  0.6726 -0.6485
  188POPC  H15B21629   0.626   6.153   2.460 -0.6599 -0.5299  0.2609
  188POPC  H15C21630   0.667   6.322   2.498  0.2188  0.4620  0.5158
  188POPC   C1121631   1.075   6.262   2.483  0.0640 -0.1762  0.3203
  188POPC  H11A21632   1.092   6.155   2.459  0.2691  0.0900 -0.8055
  188POPC  H11B21633   1.146   6.292   2.562  2.0159  1.8432 -2.0111
  188POPC     P21634   1.211   6.454   2.354 -0.0157 -0.2080  0.5371
  188POPC   O1321635   1.167   6.538   2.240  0.1577 -0.2575  0.5019
  188POPC   O1421636   1.352   6.404   2.359  0.5968  0.1791 -0.2502
  188POPC   O1221637   1.108   6.330   2.365 -0.3867  0.3549  0.0698
  188POPC   O1121638   1.196   6.535   2.488  0.2874 -0.1247 -0.2153
  188POPC    C121639   1.077   6.610   2.517 -0.0538  0.2761 -0.1519
  188POPC    HA21640   0.991   6.541   2.503  0.4320 -0.5268  0.6921
  188POPC    HB21641   1.060   6.690   2.442 -1.9227 -0.0981 -0.1793
  188POPC    C221642   1.086   6.665   2.663 -0.3382  0.2585 -0.1132
  188POPC    HS21643   0.985   6.711   2.676  0.5049  3.3391 -2.8691
  188POPC   O2121644   1.195   6.772   2.675 -0.0644  0.0231 -0.1325
  188POPC   C2121645   1.159   6.894   2.630  0.1752 -0.5159  0.6027
  188POPC   O2221646   1.050   6.926   2.588  0.3007  0.2147 -0.1205
  188POPC   C2221647   1.282   6.991   2.643 -0.0011  0.0775 -0.0920
  188POPC   H2R21648   1.363   6.945   2.583 -0.0267 -0.2238  0.1033
  188POPC   H2S21649   1.310   7.004   2.750  1.3648  0.3685 -0.4617
  188POPC    C321650   1.114   6.552   2.763  0.6150  0.1321  0.2156
  188POPC    HX21651   1.223   6.531   2.758  1.1816  2.8825 -0.6746
  188POPC    HY21652   1.056   6.464   2.729  0.6463  0.6961 -1.3719
  188POPC   O3121653   1.092   6.596   2.904  0.0609  0.4244  0.3996
  188POPC   C3121654   0.983   6.534   2.951  0.2582  0.2681 -0.4413
  188POPC   O3221655   0.924   6.440   2.906  0.3375  0.1595  0.7663
  188POPC   C3221656   0.941   6.611   3.081 -0.8722 -0.5508 -0.8286
  188POPC   H2X21657   0.930   6.721   3.064  1.1818 -0.2710 -0.5251
  188POPC   H2Y21658   1.026   6.595   3.151  1.1841  2.5925 -2.3752
  188POPC   C2321659   1.258   7.132   2.576  0.0356  0.0252 -0.0230
  188POPC   H3R21660   1.208   7.117   2.478 -1.0012 -0.5871  0.5901
  188POPC   H3S21661   1.357   7.176   2.553 -1.2197  1.7084 -2.7326
  188POPC   C2421662   1.167   7.229   2.667 -0.0651  0.6657 -0.0968
  188POPC   H4R21663   1.078   7.170   2.699  0.3081  1.5410  2.7792
  188POPC   H4S21664   1.111   7.308   2.612 -1.9375  1.4020  2.6591
  188POPC   C2521665   1.241   7.279   2.790  0.3941  0.3940 -0.5719
  188POPC   H5R21666   1.290   7.373   2.754 -0.6377  0.5825 -1.5308
  188POPC   H5S21667   1.310   7.203   2.833 -1.1544 -0.3317  0.7209
  188POPC   C2621668   1.154   7.316   2.911  0.4547 -0.4113  0.6036
  188POPC   H6R21669   1.115   7.216   2.940  0.7161 -0.9060 -0.6756
  188POPC   H6S21670   1.069   7.381   2.881  1.7825  1.0897 -0.0674
  188POPC   C2721671   1.235   7.371   3.026  0.3292  0.5147  1.3308
  188POPC   H7R21672   1.303   7.456   3.007 -0.8973  1.2485  0.0427
  188POPC   H7S21673   1.298   7.285   3.059  1.8222  0.2076 -1.9190
  188POPC   C2821674   1.153   7.412   3.150 -0.7158  0.1818 -0.9358
  188POPC   H8R21675   1.220   7.415   3.239 -1.4268 -2.7906 -0.1875
  188POPC   H8S21676   1.087   7.324   3.164  0.9532 -0.9938 -0.1464
  188POPC   C2921677   1.078   7.540   3.144  0.2556 -0.3139 -0.1306
  188POPC   H9121678   1.016   7.556   3.055  0.7687  1.3002 -0.2349
  188POPC  C21021679   1.045   7.628   3.237 -0.7669 -0.0367 -0.3335
  188POPC  H10121680   0.998   7.721   3.202 -0.5277 -0.2766 -1.3163
  188POPC  C21121681   1.080   7.626   3.385 -0.1917 -0.4019 -0.4035
  188POPC  H11R21682   1.140   7.537   3.414 -1.3222 -1.0666 -0.0493
  188POPC  H11S21683   0.992   7.615   3.451 -0.7369 -1.1825 -1.2477
  188POPC  C21221684   1.141   7.762   3.434 -0.1565  0.2158  0.6158
  188POPC  H12R21685   1.067   7.845   3.441 -0.3922 -0.0348  1.1824
  188POPC  H12S21686   1.216   7.794   3.358 -1.5947  1.0780 -0.4912
  188POPC  C21321687   1.205   7.757   3.572  0.0689 -0.2656 -1.0857
  188POPC  H13R21688   1.257   7.852   3.597  0.8716 -1.2812  1.3077
  188POPC  H13S21689   1.278   7.674   3.584  1.3724  1.1994  2.3060
  188POPC  C21421690   1.116   7.735   3.698  0.0002 -0.4738  0.0640
  188POPC  H14R21691   1.066   7.635   3.697 -2.7131  0.7720 -0.5080
  188POPC  H14S21692   1.027   7.801   3.684  0.4497  0.3679  1.0928
  188POPC  C21521693   1.184   7.766   3.831  0.0472  0.0831  0.2350
  188POPC  H15R21694   1.189   7.876   3.845 -2.2038  0.3881 -0.9407
  188POPC  H15S21695   1.289   7.727   3.826 -0.1232 -0.5489  1.3627
  188POPC  C21621696   1.100   7.719   3.955 -0.2576 -0.6695 -0.0555
  188POPC  H16R21697   1.090   7.609   3.950  2.9646 -1.0780  0.4211
  188POPC  H16S21698   0.999   7.764   3.947 -0.8774 -2.3026 -2.3569
  188POPC  C21721699   1.168   7.746   4.088 -0.4879  0.3029 -0.4418
  188POPC  H17R21700   1.184   7.856   4.080  0.6724  0.1594 -0.2604
  188POPC  H17S21701   1.269   7.699   4.089  0.7519  2.7696 -0.4540
  188POPC  C21821702   1.095   7.708   4.216 -0.5976  0.1763 -0.0627
  188POPC  H18R21703   1.162   7.732   4.302  0.8911  2.0844 -1.6677
  188POPC  H18S21704   1.071   7.600   4.210 -3.8879  0.6130  2.2892
  188POPC  H18T21705   0.999   7.762   4.229 -0.1104  1.6201 -2.0954
  188POPC   C3321706   0.805   6.561   3.127 -0.5329  0.7299 -0.6884
  188POPC   H3X21707   0.736   6.542   3.042 -0.1226  4.2899 -1.9973
  188POPC   H3Y21708   0.770   6.640   3.197  1.7027 -0.1219  1.5089
  188POPC   C3421709   0.822   6.429   3.214 -0.3809 -0.2314  0.1898
  188POPC   H4X21710   0.873   6.350   3.153 -2.7075 -0.5246 -1.5392
  188POPC   H4Y21711   0.724   6.391   3.249  0.2499 -1.0640  1.0917
  188POPC   C3521712   0.900   6.451   3.348 -0.0244 -0.1050  0.1520
  188POPC   H5X21713   0.852   6.529   3.412 -1.7980 -2.0456  1.3025
  188POPC   H5Y21714   1.008   6.473   3.334  0.1971 -0.7089  0.8717
  188POPC   C3621715   0.909   6.314   3.417  0.4861  0.0386 -0.1905
  188POPC   H6X21716   0.927   6.235   3.342  1.4384 -0.3433  0.4234
  188POPC   H6Y21717   0.814   6.295   3.472  0.9480  0.3161  0.7174
  188POPC   C3721718   1.027   6.305   3.513 -0.7287  0.0790  0.0392
  188POPC   H7X21719   1.111   6.317   3.442 -0.5034  2.5670  0.6402
  188POPC   H7Y21720   1.028   6.210   3.570 -0.5616 -0.6894 -1.2101
  188POPC   C3821721   1.032   6.419   3.616 -0.4462 -0.0676  0.2383
  188POPC   H8X21722   0.931   6.416   3.662 -0.3880 -1.8157  0.3217
  188POPC   H8Y21723   1.024   6.511   3.555 -3.1926 -0.4154 -0.0270
  188POPC   C3921724   1.150   6.413   3.709  1.1518  0.5811  0.2382
  188POPC   H9X21725   1.246   6.459   3.676  1.2359  0.6494  0.5755
  188POPC   H9Y21726   1.156   6.306   3.738 -1.1368  0.6210  1.0580
  188POPC  C31021727   1.125   6.482   3.847  0.5840 -0.5718 -0.4753
  188POPC  H10X21728   1.032   6.443   3.893  0.7256  1.3729  1.6719
  188POPC  H10Y21729   1.115   6.591   3.823  1.6940 -0.1889  0.7047
  188POPC  C31121730   1.244   6.462   3.943  0.1046 -0.1101  0.1430
  188POPC  H11X21731   1.328   6.516   3.893 -2.7564  1.9217 -2.9239
  188POPC  H11Y21732   1.265   6.353   3.948 -0.0609 -0.2295 -1.1961
  188POPC  C31221733   1.215   6.516   4.086 -0.5722 -0.2176 -0.3031
  188POPC  H12X21734   1.139   6.447   4.129 -0.7882  1.1395  1.5920
  188POPC  H12Y21735   1.175   6.619   4.083 -1.2226 -0.4739 -0.9786
  188POPC  C31321736   1.342   6.505   4.168 -0.5845 -0.8600 -0.6656
  188POPC  H13X21737   1.404   6.585   4.123  2.2749 -2.1262  0.8160
  188POPC  H13Y21738   1.404   6.415   4.149 -0.5423 -0.8967 -0.3501
  188POPC  C31421739   1.330   6.542   4.311  0.6874  0.1894 -0.5343
  188POPC  H14X21740   1.287   6.469   4.384  1.6072  0.8950  0.7642
  188POPC  H14Y21741   1.258   6.626   4.322 -1.7386 -1.5928 -1.9156
  188POPC  C31521742   1.466   6.594   4.363  0.2202 -0.3590  0.3346
  188POPC  H15X21743   1.460   6.615   4.472  1.6332 -0.0534  0.3673
  188POPC  H15Y21744   1.495   6.690   4.315  0.9481 -1.7315 -2.0992
  188POPC  C31621745   1.578   6.501   4.334 -0.0794 -0.6089  0.2740
  188POPC  H16X21746   1.594   6.499   4.224 -2.4729  0.7331 -0.1936
  188POPC  H16Y21747   1.561   6.399   4.375  0.1444  0.1585  2.4032
  188POPC  H16Z21748   1.673   6.552   4.359 -0.0713 -0.3040 -0.3518
  189SAPI   C1221749   3.594   3.464   6.111  0.9374  0.2837  0.1338
  189SAPI    H221750   3.693   3.417   6.095  0.2197 -0.4175 -2.9832
  189SAPI    O221751   3.580   3.565   6.010 -0.2255 -0.2943  0.2902
  189SAPI   HO221752   3.622   3.636   6.059 -1.1729  0.8634 -0.5177
  189SAPI   C1321753   3.493   3.356   6.110 -0.2401  0.1394  0.6520
  189SAPI    H321754   3.510   3.279   6.189 -1.8560  0.7408  1.6569
  189SAPI    O321755   3.509   3.285   5.982 -0.3181  0.0290 -0.2097
  189SAPI   HO321756   3.513   3.348   5.909  2.3641 -3.0525 -3.0508
  189SAPI   C1421757   3.360   3.424   6.120  0.0242 -0.5843 -0.4969
  189SAPI    H421758   3.349   3.494   6.035 -0.9993 -0.9621 -0.6923
  189SAPI    O421759   3.254   3.331   6.111 -0.3061 -0.0837  0.1704
  189SAPI   HO421760   3.285   3.252   6.065  1.2559  0.0381  0.9286
  189SAPI   C1521761   3.339   3.519   6.239 -1.3438 -0.9911  0.1783
  189SAPI    H521762   3.319   3.445   6.320  0.5310 -0.4497  1.1814
  189SAPI    O521763   3.233   3.606   6.229  0.2344 -0.4966 -0.1046
  189SAPI   HO521764   3.255   3.679   6.171 -0.7599  0.5343  0.7601
  189SAPI   C1621765   3.471   3.584   6.287  0.0318  0.3870  0.9100
  189SAPI    H621766   3.464   3.681   6.233 -0.4002  2.5316  4.4779
  189SAPI    O621767   3.467   3.609   6.430  0.6529  0.4180 -0.1416
  189SAPI   HO621768   3.504   3.696   6.445  2.6393 -0.6783  1.9994
  189SAPI   C1121769   3.601   3.519   6.247 -0.2562 -0.1092 -0.7812
  189SAPI    H121770   3.605   3.429   6.312 -2.7757  0.2516 -0.0227
  189SAPI     P21771   3.862   3.581   6.296 -0.1161  0.0391 -0.0118
  189SAPI   O1321772   3.862   3.474   6.399 -0.7758 -0.2572 -0.5347
  189SAPI   O1421773   3.932   3.709   6.326 -0.3220 -0.2542  0.7031
  189SAPI   O1221774   3.703   3.622   6.268  0.0367  0.8461 -0.2577
  189SAPI   O1121775   3.926   3.523   6.166 -0.1878 -0.4326  0.9939
  189SAPI    C121776   4.033   3.430   6.162  1.0224 -0.1047 -0.3315
  189SAPI    HA21777   4.117   3.473   6.104  2.1424 -1.9171 -0.1375
  189SAPI    HB21778   4.078   3.411   6.262  2.2913 -0.2930 -0.9167
  189SAPI    C221779   3.995   3.291   6.096  0.2726 -0.0074  0.9657
  189SAPI    HS21780   4.086   3.238   6.060  0.5998  0.9666  0.3061
  189SAPI   O2121781   3.889   3.292   5.999 -0.0183  0.2792 -0.1954
  189SAPI   C2121782   3.930   3.365   5.889  0.8733 -0.2691  0.0544
  189SAPI   O2221783   4.040   3.409   5.877  0.3253  0.1285 -0.3385
  189SAPI   C2221784   3.823   3.373   5.782 -0.2370 -0.1314  0.0055
  189SAPI   H2R21785   3.778   3.271   5.786  2.2357 -1.2709  0.9927
  189SAPI   H2S21786   3.744   3.447   5.805 -1.1230 -0.9022 -0.4975
  189SAPI    C321787   3.940   3.205   6.213  0.1913  0.1146 -0.6058
  189SAPI    HX21788   3.862   3.268   6.261 -0.5676 -0.5172 -1.0030
  189SAPI    HY21789   4.022   3.199   6.288 -1.3969  0.2882  1.2300
  189SAPI   O3121790   3.893   3.072   6.178 -0.3640 -0.1110 -0.0098
  189SAPI   C3121791   3.765   3.048   6.191 -0.3057  0.4387 -0.2643
  189SAPI   O3221792   3.689   3.107   6.264 -0.1508  0.8545  0.2257
  189SAPI   C3221793   3.732   2.908   6.131 -0.0042  0.3091  0.1626
  189SAPI   H2X21794   3.681   2.849   6.210  1.1544 -0.2764  0.4898
  189SAPI   H2Y21795   3.829   2.859   6.111  1.1868  2.3153  0.7480
  189SAPI   C2321796   3.870   3.387   5.640  0.3331  0.2242  0.4690
  189SAPI   H3R21797   3.942   3.305   5.619 -2.4113 -2.1229 -0.5648
  189SAPI   H3S21798   3.922   3.482   5.615  0.3841  0.2943  0.8487
  189SAPI   C2421799   3.752   3.382   5.540  0.2534 -1.2913  0.4187
  189SAPI   H4R21800   3.714   3.279   5.554 -1.5963 -0.4736  1.7851
  189SAPI   H4S21801   3.803   3.394   5.442  0.5337  0.5611  0.7536
  189SAPI   C2521802   3.643   3.486   5.548  0.3462  0.1058 -0.0609
  189SAPI   H5R21803   3.591   3.495   5.644  1.5286  1.5288  0.4718
  189SAPI   C2621804   3.618   3.580   5.456 -0.0365  0.0349  0.8245
  189SAPI   H6R21805   3.548   3.660   5.485 -0.6533 -0.0626 -0.3549
  189SAPI   C2721806   3.683   3.592   5.315 -0.2745  0.2620 -0.1017
  189SAPI   H7R21807   3.648   3.511   5.247 -2.2082  0.5827  0.4526
  189SAPI   H7S21808   3.794   3.581   5.316 -0.1994  0.9939 -0.0415
  189SAPI   C2821809   3.642   3.726   5.256 -0.2963 -0.3715  0.1767
  189SAPI   H8R21810   3.659   3.809   5.326  0.1031  0.1357 -0.5164
  189SAPI   C2921811   3.606   3.747   5.132  0.0362 -0.2043  0.5489
  189SAPI   H9R21812   3.575   3.847   5.098 -3.6434 -0.7087  1.9334
  189SAPI  C21021813   3.572   3.643   5.029  0.2529 -0.2818 -0.8417
  189SAPI  H10R21814   3.473   3.596   5.049 -1.0335  2.2248 -0.9336
  189SAPI  H10S21815   3.657   3.572   5.034  0.4081 -0.2973 -2.7898
  189SAPI  C21121816   3.554   3.704   4.895  1.0551  0.0349 -0.2757
  189SAPI  H11R21817   3.457   3.754   4.888  0.7769 -0.6427 -1.6589
  189SAPI  C21221818   3.627   3.683   4.784 -0.1248  0.0747 -1.1232
  189SAPI  H12R21819   3.593   3.727   4.689  0.8135 -0.1870 -1.5984
  189SAPI  C21321820   3.747   3.600   4.769 -0.4007  0.3015 -0.3777
  189SAPI  H13R21821   3.779   3.548   4.863 -1.9794 -1.7290 -0.8896
  189SAPI  H13S21822   3.831   3.663   4.734 -1.2018  1.3018 -0.5366
  189SAPI  C21421823   3.722   3.481   4.676 -0.0475  0.0567 -0.6787
  189SAPI  H14R21824   3.665   3.403   4.729 -0.2163  0.4888 -0.2150
  189SAPI  C21521825   3.764   3.474   4.548 -0.1496  1.1634 -0.7424
  189SAPI  H15R21826   3.735   3.381   4.497 -0.5887 -0.3661  2.0811
  189SAPI  C21621827   3.835   3.568   4.457 -0.4112  0.4261  0.5974
  189SAPI  H16R21828   3.880   3.657   4.507 -0.1996 -0.1796  1.5039
  189SAPI  H16S21829   3.768   3.600   4.374 -1.5270 -0.5755  1.0781
  189SAPI  C21721830   3.954   3.504   4.384 -0.3466  0.4848  0.5200
  189SAPI  H17R21831   3.923   3.403   4.348  0.9602  0.1070  0.4201
  189SAPI  H17S21832   4.031   3.477   4.459 -1.9228  0.3060  2.1335
  189SAPI  C21821833   4.009   3.567   4.256 -1.0080 -0.5105 -0.9623
  189SAPI  H18R21834   4.044   3.673   4.266  0.1216 -0.8137 -1.4463
  189SAPI  H18S21835   3.930   3.560   4.179 -1.3265 -2.4938 -0.5097
  189SAPI  C21921836   4.131   3.487   4.208 -0.5870  0.4842  0.3962
  189SAPI  H19R21837   4.085   3.402   4.153 -1.7746  1.1694  0.2953
  189SAPI  H19S21838   4.187   3.444   4.293  1.2706 -0.0491 -1.0346
  189SAPI  C22021839   4.230   3.564   4.114 -0.4866 -1.0442 -0.2269
  189SAPI  H20R21840   4.299   3.627   4.175 -0.9930 -0.6563 -0.0459
  189SAPI  H20S21841   4.181   3.630   4.039  0.5254 -0.6913 -0.5982
  189SAPI  H20T21842   4.295   3.504   4.046  2.7988  1.4113  0.4851
  189SAPI   C3321843   3.641   2.925   6.000 -0.3933 -0.1043 -0.3300
  189SAPI   H3X21844   3.546   2.972   6.034  0.2373  2.0275 -1.3162
  189SAPI   H3Y21845   3.608   2.826   5.961  1.5564 -0.3577 -1.4641
  189SAPI   C3421846   3.721   3.002   5.898  0.4244 -0.0602  0.0833
  189SAPI   H4X21847   3.731   3.110   5.923  1.4924 -0.1360  0.0539
  189SAPI   H4Y21848   3.666   3.008   5.802  0.7436  1.4664 -0.0430
  189SAPI   C3521849   3.854   2.938   5.862 -0.0811 -0.0782 -0.2348
  189SAPI   H5X21850   3.846   2.828   5.877 -2.3856 -0.1491 -1.6398
  189SAPI   H5Y21851   3.933   2.970   5.933 -0.6629 -0.5174  0.6208
  189SAPI   C3621852   3.894   2.977   5.714  0.1691  0.3369  0.2884
  189SAPI   H6X21853   4.005   2.973   5.709  0.1289 -0.5132 -0.0357
  189SAPI   H6Y21854   3.858   3.080   5.695 -1.2522  0.0746  1.3890
  189SAPI   C3721855   3.839   2.898   5.597 -0.2461 -0.4501 -0.1116
  189SAPI   H7X21856   3.731   2.881   5.615 -0.2986  0.7463  0.8197
  189SAPI   H7Y21857   3.885   2.797   5.607 -1.8975 -1.1483  0.8676
  189SAPI   C3821858   3.876   2.948   5.455 -0.0924 -0.0632 -0.1696
  189SAPI   H8X21859   3.985   2.967   5.445 -0.1656  0.1321 -0.6131
  189SAPI   H8Y21860   3.809   3.036   5.448 -1.1828 -0.7512  1.0279
  189SAPI   C3921861   3.838   2.843   5.354  0.3672 -0.3542  0.3388
  189SAPI   H9X21862   3.739   2.799   5.381  0.7579  0.0136  2.5330
  189SAPI   H9Y21863   3.910   2.761   5.370  1.1968  0.4857  1.0402
  189SAPI  C31021864   3.858   2.876   5.200  0.0069 -0.6933 -0.6153
  189SAPI  H10X21865   3.960   2.919   5.196  0.0474 -0.4831  1.3812
  189SAPI  H10Y21866   3.785   2.946   5.154 -0.3170 -0.7071 -0.1376
  189SAPI  C31121867   3.838   2.754   5.110 -0.4576  0.6748  0.0125
  189SAPI  H11X21868   3.731   2.724   5.110  0.3030 -2.4656 -0.2296
  189SAPI  H11Y21869   3.905   2.669   5.138  0.4886  1.7534  1.1321
  189SAPI  C31221870   3.882   2.802   4.973  0.4223  0.5466  0.2788
  189SAPI  H12X21871   3.991   2.823   4.978  0.5996 -0.2963  0.1334
  189SAPI  H12Y21872   3.820   2.889   4.942  0.5918  0.4054 -0.4714
  189SAPI  C31321873   3.875   2.697   4.851 -0.3696 -0.4220  0.0165
  189SAPI  H13X21874   3.766   2.681   4.836 -1.0611  0.8203  2.9595
  189SAPI  H13Y21875   3.927   2.600   4.872  2.0611  0.6199 -0.7716
  189SAPI  C31421876   3.932   2.755   4.716 -0.2307  0.1072  0.2135
  189SAPI  H14X21877   4.038   2.789   4.724 -0.7937  1.8253  0.8760
  189SAPI  H14Y21878   3.867   2.843   4.695  0.1938  0.2865 -0.4201
  189SAPI  C31521879   3.917   2.661   4.602  0.6367  0.2526 -0.2203
  189SAPI  H15X21880   3.815   2.621   4.588  0.0004  1.8552 -0.4415
  189SAPI  H15Y21881   3.985   2.578   4.630 -2.1127 -2.2395 -0.4937
  189SAPI  C31621882   3.950   2.719   4.466 -0.1725  0.1474  0.2398
  189SAPI  H16X21883   4.055   2.754   4.478  0.3734 -0.6527 -1.7888
  189SAPI  H16Y21884   3.882   2.800   4.435  0.2085  0.4611  0.2194
  189SAPI  C31721885   3.946   2.607   4.362  0.0109 -0.2142 -0.8342
  189SAPI  H17X21886   4.002   2.519   4.400  1.7405  0.4533 -1.7404
  189SAPI  H17Y21887   3.988   2.634   4.263 -0.0580 -1.3619 -1.1924
  189SAPI  C31821888   3.798   2.579   4.323 -0.0603  0.0633  0.4686
  189SAPI  H18X21889   3.746   2.515   4.398 -1.6288 -0.9462 -1.3674
  189SAPI  H18Y21890   3.786   2.520   4.229  1.5287  1.6681 -0.8061
  189SAPI  H18Z21891   3.751   2.678   4.308 -0.7810 -0.4200 -0.6681
  190SAPI   C1221892   5.518   2.778   6.434 -0.1885  0.0422  0.2345
  190SAPI    H221893   5.578   2.804   6.344 -0.5964  2.0729  0.4846
  190SAPI    O221894   5.479   2.899   6.503  0.2836 -0.2528 -0.3277
  190SAPI   HO221895   5.560   2.946   6.526 -0.1582 -0.1763  1.1117
  190SAPI   C1321896   5.392   2.704   6.382  0.0751 -0.3911 -0.2694
  190SAPI    H321897   5.422   2.619   6.318  0.0184 -1.4942  1.1140
  190SAPI    O321898   5.322   2.787   6.296 -0.1399  0.1899  0.3187
  190SAPI   HO321899   5.229   2.769   6.310 -0.5003 -0.8089 -2.6462
  190SAPI   C1421900   5.306   2.652   6.497 -0.4773  0.3122 -0.3436
  190SAPI    H421901   5.268   2.746   6.542 -1.6313  0.5465 -1.7369
  190SAPI    O421902   5.193   2.577   6.452 -0.3990  0.3200  0.8151
  190SAPI   HO421903   5.119   2.597   6.509 -1.7407  0.1061 -0.7789
  190SAPI   C1521904   5.379   2.584   6.619 -0.2127 -0.3406 -0.1026
  190SAPI    H521905   5.406   2.482   6.583  0.8634 -0.5102  1.1120
  190SAPI    O521906   5.299   2.555   6.732  0.3236  0.2495  0.3333
  190SAPI   HO521907   5.293   2.460   6.741  2.8504 -0.0576 -0.4587
  190SAPI   C1621908   5.517   2.654   6.648  0.7655  0.3470 -0.0344
  190SAPI    H621909   5.501   2.755   6.689  0.4546  0.3924 -0.2612
  190SAPI    O621910   5.595   2.575   6.741 -0.2415  0.4829  0.4396
  190SAPI   HO621911   5.667   2.540   6.687 -0.3103  1.3464 -0.2370
  190SAPI   C1121912   5.595   2.675   6.520  0.4354 -0.2108  0.2954
  190SAPI    H121913   5.601   2.578   6.467 -1.1662  0.3469 -0.9781
  190SAPI     P21914   5.854   2.653   6.528  0.1933  0.1520  0.0581
  190SAPI   O1321915   5.815   2.516   6.571  0.0757  0.5818  0.1065
  190SAPI   O1421916   5.956   2.724   6.602 -0.5337  0.3481  0.3518
  190SAPI   O1221917   5.721   2.746   6.548  0.3208  0.0225  0.2389
  190SAPI   O1121918   5.884   2.664   6.374  0.4741 -0.2009  0.2271
  190SAPI    C121919   5.911   2.798   6.320  0.2738 -0.0774  0.1032
  190SAPI    HA21920   5.849   2.882   6.360  0.7267 -0.2820  1.2917
  190SAPI    HB21921   6.018   2.827   6.331  0.4065  0.5897 -2.4501
  190SAPI    C221922   5.887   2.799   6.164  0.2688  0.1364  0.3670
  190SAPI    HS21923   5.923   2.899   6.133  1.8510 -0.1643  1.1526
  190SAPI   O2121924   5.743   2.785   6.134  0.8755  0.2277  0.1178
  190SAPI   C2121925   5.702   2.863   6.036  0.0034 -0.0080  0.5854
  190SAPI   O2221926   5.770   2.943   5.977 -0.8175 -0.1440  0.1177
  190SAPI   C2221927   5.549   2.846   6.011  0.1866  0.6902 -0.1465
  190SAPI   H2R21928   5.533   2.738   6.031 -0.1051  1.1874  2.7725
  190SAPI   H2S21929   5.491   2.893   6.093  1.3401 -1.4223  1.9930
  190SAPI    C321930   5.970   2.683   6.111 -0.3573  0.0509  0.1013
  190SAPI    HX21931   5.931   2.594   6.166 -1.7270 -1.2007 -2.7038
  190SAPI    HY21932   6.078   2.688   6.138 -0.2652  0.2182 -0.2963
  190SAPI   O3121933   5.962   2.666   5.972 -0.4831  0.1653  0.3816
  190SAPI   C3121934   6.028   2.757   5.898 -0.2304  0.3150 -0.6435
  190SAPI   O3221935   6.092   2.848   5.949  0.2623  0.2970 -0.6854
  190SAPI   C3221936   6.011   2.733   5.751 -0.8917  0.1395 -0.0577
  190SAPI   H2X21937   5.910   2.763   5.714 -0.7895 -1.0701 -1.3933
  190SAPI   H2Y21938   6.012   2.624   5.732  0.2024 -0.1783  1.6401
  190SAPI   C2321939   5.504   2.904   5.878 -0.2648 -0.3726  0.4850
  190SAPI   H3R21940   5.559   2.869   5.787 -1.2729 -0.4233 -0.1239
  190SAPI   H3S21941   5.531   3.011   5.886  0.6938 -0.4287 -1.3504
  190SAPI   C2421942   5.357   2.890   5.832 -0.3984 -1.0158  0.1627
  190SAPI   H4R21943   5.368   2.948   5.738  2.5778 -0.6060  0.6809
  190SAPI   H4S21944   5.286   2.952   5.891 -0.9178 -0.8884 -0.5752
  190SAPI   C2521945   5.310   2.750   5.797  0.2509 -0.2405  0.1430
  190SAPI   H5R21946   5.265   2.700   5.885 -0.9957  0.9208  0.1942
  190SAPI   C2621947   5.310   2.692   5.673  0.2427 -0.7926 -0.6638
  190SAPI   H6R21948   5.284   2.585   5.668  0.3896 -0.7877 -1.8404
  190SAPI   C2721949   5.360   2.760   5.549  0.0583 -0.1090 -0.7117
  190SAPI   H7R21950   5.470   2.768   5.556 -0.0005  0.6789 -0.5534
  190SAPI   H7S21951   5.329   2.866   5.542 -1.4229 -0.3115  1.5427
  190SAPI   C2821952   5.339   2.688   5.425  0.4424  0.2160 -0.0998
  190SAPI   H8R21953   5.387   2.589   5.431 -0.5770 -0.2270  1.0409
  190SAPI   C2921954   5.260   2.722   5.324  0.4674 -0.7023 -0.0088
  190SAPI   H9R21955   5.234   2.643   5.252 -0.7243  1.2640 -1.8197
  190SAPI  C21021956   5.192   2.853   5.305 -1.2326  0.2008 -0.1924
  190SAPI  H10R21957   5.244   2.939   5.353  2.6436 -1.7425 -0.5162
  190SAPI  H10S21958   5.100   2.858   5.368  0.2371 -1.0496  2.1968
  190SAPI  C21121959   5.160   2.878   5.159  0.3390  0.2545 -0.9109
  190SAPI  H11R21960   5.217   2.945   5.093 -2.1613  2.4819 -0.9907
  190SAPI  C21221961   5.041   2.842   5.107 -0.9665  0.3366  0.1473
  190SAPI  H12R21962   5.030   2.861   5.000 -0.3580  3.0830  0.4940
  190SAPI  C21321963   4.924   2.783   5.171  0.5174  0.2241  1.3875
  190SAPI  H13R21964   4.882   2.840   5.257  0.8985  1.5815  0.7108
  190SAPI  H13S21965   4.949   2.694   5.232 -2.2183 -1.6583 -0.0004
  190SAPI  C21421966   4.798   2.756   5.093 -0.5834 -0.1301 -0.5728
  190SAPI  H14R21967   4.721   2.833   5.111 -0.7922 -0.1653 -1.2963
  190SAPI  C21521968   4.781   2.650   5.017  0.0367 -0.0110  0.7362
  190SAPI  H15R21969   4.698   2.637   4.946  1.3597 -1.4483 -0.5997
  190SAPI  C21621970   4.881   2.545   4.971 -0.2758  0.4463  0.1507
  190SAPI  H16R21971   4.834   2.445   4.961  1.4033 -0.3292 -0.3367
  190SAPI  H16S21972   4.958   2.539   5.051  1.9074  3.5907 -1.4914
  190SAPI  C21721973   4.975   2.579   4.847  0.3883  0.2195  0.8239
  190SAPI  H17R21974   5.017   2.682   4.850 -1.0138  0.8271  0.8835
  190SAPI  H17S21975   4.920   2.569   4.751  3.0282 -2.3677 -0.5840
  190SAPI  C21821976   5.100   2.490   4.834 -0.0145 -0.0116  0.1579
  190SAPI  H18R21977   5.123   2.484   4.725 -1.1710  2.6265 -0.3168
  190SAPI  H18S21978   5.077   2.389   4.873  1.7729  0.3668  2.4089
  190SAPI  C21921979   5.221   2.540   4.913  0.0935  0.0266 -0.0642
  190SAPI  H19R21980   5.200   2.547   5.022  1.4866  2.0610  0.1364
  190SAPI  H19S21981   5.258   2.640   4.882  2.2481 -0.6835  0.0607
  190SAPI  C22021982   5.347   2.449   4.904  0.1514 -0.3829  0.1806
  190SAPI  H20R21983   5.418   2.481   4.984 -1.5137 -0.9556  1.9744
  190SAPI  H20S21984   5.395   2.461   4.805 -0.9690  1.8658 -0.1524
  190SAPI  H20T21985   5.314   2.344   4.920  1.6549 -1.1459 -1.4016
  190SAPI   C3321986   6.119   2.797   5.660 -0.2397 -0.0595 -0.1947
  190SAPI   H3X21987   6.225   2.769   5.679 -0.1800  0.3175  0.0459
  190SAPI   H3Y21988   6.120   2.905   5.687 -0.6458 -0.5606  2.0432
  190SAPI   C3421989   6.088   2.808   5.503  0.1959 -0.1968 -1.0270
  190SAPI   H4X21990   6.008   2.883   5.485  0.7592  0.8150  0.4238
  190SAPI   H4Y21991   6.057   2.705   5.475  4.8453 -1.5634 -1.9816
  190SAPI   C3521992   6.210   2.854   5.418  0.7395  0.2734  0.1768
  190SAPI   H5X21993   6.299   2.791   5.439 -0.5420 -1.8568 -0.5187
  190SAPI   H5Y21994   6.234   2.958   5.450 -0.4904 -0.0439  2.3275
  190SAPI   C3621995   6.183   2.845   5.266 -0.3257  0.6027 -0.2957
  190SAPI   H6X21996   6.160   2.736   5.260  0.8736  0.1559  2.0351
  190SAPI   H6Y21997   6.280   2.878   5.225  0.7332 -1.9354 -0.0197
  190SAPI   C3721998   6.070   2.925   5.205 -0.4290 -0.3295 -0.3824
  190SAPI   H7X21999   6.079   3.031   5.236  0.1433 -0.5662  0.2682
  190SAPI   H7Y22000   5.966   2.894   5.229 -0.2528 -1.2040 -0.6830
  190SAPI   C3822001   6.075   2.929   5.048 -0.0692 -0.9762  0.7725
  190SAPI   H8X22002   6.064   2.825   5.012  1.0190 -0.9574  0.3161
  190SAPI   H8Y22003   6.169   2.976   5.009 -1.4816  1.8620  0.5252
  190SAPI   C3922004   5.963   3.008   4.977 -0.2300 -0.6231 -0.0653
  190SAPI   H9X22005   5.964   3.107   5.027 -1.0688 -0.4774 -0.3202
  190SAPI   H9Y22006   5.862   2.965   4.991 -0.8522  0.2081 -1.6553
  190SAPI  C31022007   5.980   3.029   4.826  0.1171 -0.0670  0.4316
  190SAPI  H10X22008   6.011   2.929   4.789  1.8722  0.2233  1.0386
  190SAPI  H10Y22009   6.069   3.094   4.815 -0.7414  1.0429 -0.1613
  190SAPI  C31122010   5.861   3.085   4.747  0.2726  0.4500 -1.0965
  190SAPI  H11X22011   5.841   3.189   4.779 -0.9221 -0.4171  1.2078
  190SAPI  H11Y22012   5.770   3.026   4.768  0.2059  1.3336  1.4254
  190SAPI  C31222013   5.891   3.075   4.596 -0.4970 -0.1637  0.9065
  190SAPI  H12X22014   5.917   2.968   4.583  1.4303  0.4490 -0.8562
  190SAPI  H12Y22015   5.984   3.133   4.579 -0.0081 -0.8811  1.0858
  190SAPI  C31322016   5.775   3.116   4.500 -0.0651 -0.1725  0.3144
  190SAPI  H13X22017   5.696   3.039   4.487  0.0917 -0.3563  0.4612
  190SAPI  H13Y22018   5.823   3.121   4.401  1.9643  1.1999  1.3023
  190SAPI  C31422019   5.715   3.252   4.544  0.2538 -0.4565 -0.6977
  190SAPI  H14X22020   5.796   3.326   4.556  1.0892 -1.0286 -2.5167
  190SAPI  H14Y22021   5.652   3.241   4.635  0.8420 -1.6126 -0.4169
  190SAPI  C31522022   5.622   3.315   4.432 -0.0954 -0.1969 -0.7816
  190SAPI  H15X22023   5.522   3.266   4.430 -0.7306  1.0915 -1.1700
  190SAPI  H15Y22024   5.662   3.287   4.332 -0.4896  1.4356 -1.4219
  190SAPI  C31622025   5.602   3.467   4.441 -0.2042  0.1714 -0.3856
  190SAPI  H16X22026   5.704   3.505   4.417  0.7035 -0.3732  2.2692
  190SAPI  H16Y22027   5.567   3.516   4.534 -0.1677 -2.1719  0.9159
  190SAPI  C31722028   5.511   3.528   4.329  0.5746 -0.1569 -0.5372
  190SAPI  H17X22029   5.405   3.498   4.322  0.6164  0.0000 -2.7352
  190SAPI  H17Y22030   5.552   3.481   4.237  0.4571 -0.5308 -0.3972
  190SAPI  C31822031   5.496   3.678   4.329 -0.4280 -0.2627  0.0740
  190SAPI  H18X22032   5.429   3.718   4.250  1.1728  3.2288  0.3103
  190SAPI  H18Y22033   5.594   3.728   4.315  0.0946 -2.0692 -3.9236
  190SAPI  H18Z22034   5.449   3.709   4.425  0.2036  0.0752  0.2796
  191SAPI   C1222035   2.767   0.609   2.274 -0.6842  0.1195  0.0017
  191SAPI    H222036   2.691   0.531   2.293 -1.4728  0.8130 -0.2527
  191SAPI    O222037   2.808   0.604   2.136 -0.7119  0.0286 -0.0391
  191SAPI   HO222038   2.822   0.512   2.111  0.3072  0.1658 -0.0190
  191SAPI   C1322039   2.703   0.740   2.318  0.3568  0.0770  0.3221
  191SAPI    H322040   2.686   0.735   2.428  1.1292 -4.1983  0.4289
  191SAPI    O322041   2.575   0.746   2.264  0.1301 -0.5164 -0.3482
  191SAPI   HO322042   2.592   0.745   2.170 -1.1556  1.9393 -0.6928
  191SAPI   C1422043   2.786   0.861   2.277 -0.1279  0.3161 -0.0027
  191SAPI    H422044   2.799   0.857   2.167  0.6109 -0.1212  0.0982
  191SAPI    O422045   2.724   0.983   2.318 -0.9635 -0.2686  0.3729
  191SAPI   HO422046   2.730   0.995   2.413  0.1531 -3.7316  0.8892
  191SAPI   C1522047   2.930   0.838   2.323 -0.1522 -0.1599  0.3591
  191SAPI    H522048   2.924   0.868   2.430  2.3493  0.4831  0.3806
  191SAPI    O522049   3.021   0.932   2.262  0.0158 -0.1895 -0.7823
  191SAPI   HO522050   3.073   0.961   2.338 -2.3342 -1.5799  1.5020
  191SAPI   C1622051   2.986   0.693   2.328 -0.0778  0.0560  0.3502
  191SAPI    H622052   3.030   0.669   2.229  0.9334  0.5272  0.6765
  191SAPI    O622053   3.090   0.685   2.415 -0.6235  0.0099 -0.2487
  191SAPI   HO622054   3.057   0.649   2.498 -0.9715 -0.2412 -0.4971
  191SAPI   C1122055   2.884   0.582   2.358  0.3094  0.9524 -0.2249
  191SAPI    H122056   2.845   0.593   2.461  1.8305 -0.1160  0.5042
  191SAPI     P22057   2.907   0.331   2.469  0.2603  0.0048  0.0656
  191SAPI   O1322058   2.960   0.206   2.426 -0.1381  0.1597  0.1104
  191SAPI   O1422059   2.769   0.334   2.525  0.1174  0.4048 -0.4764
  191SAPI   O1222060   2.924   0.440   2.343 -0.1320 -0.5105  0.1030
  191SAPI   O1122061   3.009   0.387   2.578 -0.6552 -0.0042  0.6345
  191SAPI    C122062   3.145   0.342   2.572  0.4248 -0.2929  0.5310
  191SAPI    HA22063   3.175   0.302   2.473  0.7126 -0.8255  0.8292
  191SAPI    HB22064   3.205   0.428   2.609 -0.9564  1.2972 -0.7155
  191SAPI    C222065   3.175   0.232   2.679 -0.2712 -0.4277 -0.5216
  191SAPI    HS22066   3.096   0.155   2.693  0.4268 -0.7934  1.8268
  191SAPI   O2122067   3.193   0.289   2.814  0.0300  0.6054 -1.2484
  191SAPI   C2122068   3.171   0.207   2.915 -0.1236  0.5462 -0.1400
  191SAPI   O2222069   3.117   0.094   2.903 -0.3396  0.0491 -0.6193
  191SAPI   C2222070   3.221   0.271   3.043  0.1179 -0.5901  0.4657
  191SAPI   H2R22071   3.312   0.213   3.070 -0.6612 -2.5715 -0.8798
  191SAPI   H2S22072   3.253   0.376   3.028  1.2545 -0.8199  1.1256
  191SAPI    C322073   3.306   0.158   2.655  0.2857 -0.0688 -0.4399
  191SAPI    HX22074   3.291   0.078   2.579  1.3193 -0.8076  0.1067
  191SAPI    HY22075   3.325   0.097   2.746  2.1123  0.5396 -0.3866
  191SAPI   O3122076   3.422   0.240   2.629  0.8670  0.3082  0.2478
  191SAPI   C3122077   3.502   0.266   2.730 -0.4480 -0.2851  0.5028
  191SAPI   O3222078   3.484   0.248   2.849 -0.4049  0.6546 -0.3274
  191SAPI   C3222079   3.623   0.338   2.673  0.2448  0.6346 -0.3342
  191SAPI   H2X22080   3.591   0.414   2.598 -0.2124  2.0613  1.2443
  191SAPI   H2Y22081   3.686   0.260   2.626 -1.4128 -1.9335  1.4241
  191SAPI   C2322082   3.120   0.243   3.165  0.5634  0.4632  0.4071
  191SAPI   H3R22083   3.182   0.209   3.250  1.6226 -1.1896 -0.9686
  191SAPI   H3S22084   3.052   0.160   3.137 -0.2301  1.1471  0.2548
  191SAPI   C2422085   3.033   0.370   3.204  0.3339 -0.3125  0.1076
  191SAPI   H4R22086   2.986   0.406   3.110  4.4330  0.5290 -1.8655
  191SAPI   H4S22087   3.119   0.433   3.235  0.0225  0.2320 -0.1075
  191SAPI   C2522088   2.944   0.350   3.318  0.0994 -0.4802 -0.8594
  191SAPI   H5R22089   2.846   0.313   3.284 -1.0163 -0.0980  1.6898
  191SAPI   C2622090   2.955   0.372   3.451  0.4596  0.0086  0.5846
  191SAPI   H6R22091   2.867   0.353   3.514  0.2150  1.3026  0.6553
  191SAPI   C2722092   3.068   0.437   3.525 -0.1985  0.1785 -0.0852
  191SAPI   H7R22093   3.021   0.470   3.620 -1.0669  0.4976 -0.6092
  191SAPI   H7S22094   3.101   0.519   3.458  0.3687 -0.7467 -0.9724
  191SAPI   C2822095   3.178   0.339   3.548 -0.2386  0.6735 -0.2635
  191SAPI   H8R22096   3.244   0.323   3.462 -1.6561 -0.6215 -1.1619
  191SAPI   C2922097   3.206   0.277   3.671 -0.0574  0.2133  0.2011
  191SAPI   H9R22098   3.293   0.211   3.679  0.0187  0.0986 -1.2058
  191SAPI  C21022099   3.119   0.302   3.796  0.4780  0.2002  0.3574
  191SAPI  H10R22100   3.016   0.333   3.767  0.5367  0.6711  0.6456
  191SAPI  H10S22101   3.149   0.391   3.855  0.2718  0.3986  0.1659
  191SAPI  C21122102   3.104   0.180   3.884  0.6890 -0.3754 -0.4417
  191SAPI  H11R22103   3.150   0.087   3.847  0.8998  0.7888 -3.4277
  191SAPI  C21222104   3.042   0.174   4.005 -0.2686 -0.0557  0.2569
  191SAPI  H12R22105   3.044   0.088   4.073 -1.3830  1.6734  2.6099
  191SAPI  C21322106   2.967   0.296   4.065 -0.1983  0.9785 -0.3038
  191SAPI  H13R22107   2.898   0.348   3.995 -1.1120 -0.0336 -0.1758
  191SAPI  H13S22108   3.044   0.373   4.087  0.2427  1.0687 -2.0091
  191SAPI  C21422109   2.881   0.259   4.192  0.3289 -0.1142  1.0186
  191SAPI  H14R22110   2.780   0.224   4.167 -0.8478  1.8444  2.6529
  191SAPI  C21522111   2.920   0.256   4.317  0.5844 -0.1451 -0.4483
  191SAPI  H15R22112   2.853   0.215   4.394 -1.8881  0.8505 -1.9786
  191SAPI  C21622113   3.062   0.290   4.369  0.3106  0.0237  0.7484
  191SAPI  H16R22114   3.116   0.336   4.283 -0.1246  0.4906  0.7197
  191SAPI  H16S22115   3.118   0.209   4.420 -0.3156  0.7991  2.7987
  191SAPI  C21722116   3.053   0.412   4.472 -0.5476  0.0483  0.0158
  191SAPI  H17R22117   3.001   0.493   4.417  0.8065  0.8516 -0.1151
  191SAPI  H17S22118   3.157   0.449   4.477  0.1449 -1.2378 -2.6076
  191SAPI  C21822119   3.008   0.376   4.612  0.6870  0.1916 -0.1407
  191SAPI  H18R22120   3.059   0.441   4.686 -0.5144  0.6109  0.3476
  191SAPI  H18S22121   3.038   0.270   4.621 -0.3635 -0.1387 -0.3550
  191SAPI  C21922122   2.858   0.405   4.634  0.0626  0.3741  0.2221
  191SAPI  H19R22123   2.802   0.324   4.686 -1.1963 -0.0522 -1.7067
  191SAPI  H19S22124   2.802   0.415   4.539 -0.1593 -0.3684  0.2665
  191SAPI  C22022125   2.838   0.528   4.722  0.1990 -0.3353  1.0280
  191SAPI  H20R22126   2.729   0.547   4.730  0.7946  4.0100  1.5943
  191SAPI  H20S22127   2.868   0.613   4.656 -0.4707 -1.1059 -0.3128
  191SAPI  H20T22128   2.895   0.512   4.816  0.1995 -1.1235  0.8976
  191SAPI   C3322129   3.697   0.411   2.790  0.0923 -0.3419 -0.0342
  191SAPI   H3X22130   3.725   0.325   2.855  1.7104 -0.0793 -0.3339
  191SAPI   H3Y22131   3.627   0.480   2.842  1.0890  0.6412  0.0341
  191SAPI   C3422132   3.819   0.480   2.744 -0.7374 -0.1366  0.0498
  191SAPI   H4X22133   3.798   0.527   2.645  2.5429 -1.2004 -1.3123
  191SAPI   H4Y22134   3.899   0.409   2.714 -1.1666 -0.1338 -1.1975
  191SAPI   C3522135   3.866   0.588   2.844 -0.6300 -0.8269 -0.5918
  191SAPI   H5X22136   3.775   0.650   2.861  0.3631  1.0849 -1.7700
  191SAPI   H5Y22137   3.941   0.660   2.805 -0.5536 -0.7424 -0.2904
  191SAPI   C3622138   3.917   0.523   2.973  0.7662  0.2676 -0.7257
  191SAPI   H6X22139   4.007   0.460   2.963  0.6737 -0.7861  3.5365
  191SAPI   H6Y22140   3.827   0.469   3.008  0.1218  1.2010 -0.8902
  191SAPI   C3722141   3.935   0.630   3.081  0.5238 -0.4123  0.3617
  191SAPI   H7X22142   3.843   0.692   3.077  0.9918  0.3092  0.7501
  191SAPI   H7Y22143   4.025   0.690   3.055  1.2378 -1.2470  0.8331
  191SAPI   C3822144   3.949   0.582   3.227  0.0940  0.3452  0.0840
  191SAPI   H8X22145   4.032   0.508   3.241  3.0710  3.7745  2.4708
  191SAPI   H8Y22146   3.855   0.526   3.247  0.3945  0.1251  0.9455
  191SAPI   C3922147   3.955   0.695   3.331  0.2739 -0.2751  1.0884
  191SAPI   H9X22148   3.858   0.749   3.315  1.7502  2.6402  1.2641
  191SAPI   H9Y22149   4.037   0.768   3.316 -1.8939  1.8315 -1.6172
  191SAPI  C31022150   3.951   0.646   3.477 -0.7831  1.1704  0.1317
  191SAPI  H10X22151   4.044   0.588   3.495 -0.7558  1.1522 -0.0612
  191SAPI  H10Y22152   3.871   0.570   3.491 -2.0986  2.2331 -1.3101
  191SAPI  C31122153   3.943   0.754   3.576 -0.1916 -0.2639  0.5324
  191SAPI  H11X22154   3.854   0.814   3.547  0.7878  0.3694 -1.3748
  191SAPI  H11Y22155   4.032   0.818   3.560 -1.7570  1.2691 -3.2617
  191SAPI  C31222156   3.933   0.700   3.717 -0.3521  0.2993 -0.7206
  191SAPI  H12X22157   4.011   0.623   3.732 -0.6766  0.3801  1.8425
  191SAPI  H12Y22158   3.838   0.642   3.719 -0.7059  0.8516 -1.2220
  191SAPI  C31322159   3.935   0.804   3.826 -0.5471  0.4177 -0.0924
  191SAPI  H13X22160   3.886   0.896   3.788 -0.6546 -0.6564 -2.7027
  191SAPI  H13Y22161   4.037   0.838   3.855 -0.5819  1.8455 -1.5141
  191SAPI  C31422162   3.860   0.763   3.954  0.2447 -0.1904 -0.0746
  191SAPI  H14X22163   3.756   0.735   3.925  0.2137  1.6937 -1.9588
  191SAPI  H14Y22164   3.838   0.850   4.019  0.0266 -1.5671  1.7885
  191SAPI  C31522165   3.933   0.674   4.048 -0.6114  0.0991 -0.4635
  191SAPI  H15X22166   4.023   0.728   4.086 -0.0099 -1.2832  0.1284
  191SAPI  H15Y22167   3.982   0.594   3.991  1.0212 -0.3324  1.4292
  191SAPI  C31622168   3.845   0.619   4.159 -0.0353 -1.3411 -0.0691
  191SAPI  H16X22169   3.755   0.571   4.116  0.6720 -1.3416 -1.6356
  191SAPI  H16Y22170   3.817   0.712   4.212  0.2147 -0.9496 -0.6076
  191SAPI  C31722171   3.919   0.530   4.258 -0.3963 -0.1700 -0.3519
  191SAPI  H17X22172   4.010   0.584   4.292 -0.5722  1.4819 -2.2359
  191SAPI  H17Y22173   3.947   0.437   4.205  0.3349 -0.0674 -0.1581
  191SAPI  C31822174   3.830   0.485   4.376 -0.4802 -0.6356  0.5095
  191SAPI  H18X22175   3.832   0.563   4.455  1.3527 -0.6303  0.4935
  191SAPI  H18Y22176   3.873   0.396   4.426  2.9625 -0.1690 -1.2950
  191SAPI  H18Z22177   3.730   0.460   4.333 -0.6728  0.5412  0.2229
  192SAPI   C1222178   5.308   3.964   2.103 -0.1420 -0.4661  0.2584
  192SAPI    H222179   5.239   4.000   2.024 -0.3426  0.7630  0.9620
  192SAPI    O222180   5.394   3.859   2.062  0.3534 -0.8117 -0.3976
  192SAPI   HO222181   5.378   3.851   1.967 -0.2393 -1.4917 -0.2523
  192SAPI   C1322182   5.397   4.084   2.127  0.2035  0.9041 -0.4138
  192SAPI    H322183   5.319   4.163   2.135 -2.3454 -1.2433 -2.1728
  192SAPI    O322184   5.475   4.117   2.016 -0.2553 -0.3364  0.1096
  192SAPI   HO322185   5.513   4.034   1.984  2.9145  1.1034 -0.3134
  192SAPI   C1422186   5.482   4.079   2.248 -0.4966  0.2560  0.3815
  192SAPI    H422187   5.575   4.036   2.207 -1.5814 -1.2811 -0.5658
  192SAPI    O422188   5.522   4.201   2.302  0.1589  0.4360  0.3571
  192SAPI   HO422189   5.461   4.271   2.281  2.1609  2.7072  1.6630
  192SAPI   C1522190   5.440   3.986   2.361 -0.0237 -0.1732  0.1263
  192SAPI    H522191   5.396   4.056   2.436  0.6913  1.4333 -0.8909
  192SAPI    O522192   5.548   3.910   2.425  0.2102  0.7777  0.7756
  192SAPI   HO522193   5.614   3.882   2.362 -0.9866 -0.8329  0.1569
  192SAPI   C1622194   5.325   3.889   2.342 -0.5632 -0.2290  0.6477
  192SAPI    H622195   5.364   3.789   2.317 -2.7451 -1.0711  0.3805
  192SAPI    O622196   5.246   3.866   2.458  0.5126  0.0402  0.4798
  192SAPI   HO622197   5.155   3.853   2.432  0.4482 -0.1261  0.7826
  192SAPI   C1122198   5.237   3.922   2.227  0.1582 -0.0788  0.6070
  192SAPI    H122199   5.174   4.007   2.260 -2.9175 -1.3319 -1.5917
  192SAPI     P22200   4.984   3.847   2.188  0.0024  0.1040  0.2232
  192SAPI   O1322201   4.916   3.728   2.139 -0.0746  0.6678 -0.2379
  192SAPI   O1422202   4.987   3.975   2.110  0.1201  0.0474 -0.5119
  192SAPI   O1222203   5.144   3.806   2.205  0.0614  0.1371 -0.6652
  192SAPI   O1122204   4.935   3.878   2.334 -0.2365  0.2839  0.2758
  192SAPI    C122205   4.813   3.923   2.370 -0.3616 -0.0774  0.6058
  192SAPI    HA22206   4.783   4.008   2.305 -1.6602 -0.4359  0.6974
  192SAPI    HB22207   4.734   3.844   2.367  1.5930 -2.1604  1.3086
  192SAPI    C222208   4.817   3.984   2.512  0.0914  0.0187 -0.2167
  192SAPI    HS22209   4.720   4.037   2.530  0.0413 -0.4097  0.8872
  192SAPI   O2122210   4.935   4.069   2.523 -0.6613  0.1340  0.2497
  192SAPI   C2122211   4.917   4.189   2.461  0.3411  0.2550  0.2709
  192SAPI   O2222212   4.813   4.228   2.409 -0.2332 -0.8931 -0.1613
  192SAPI   C2222213   5.034   4.282   2.466  0.2033 -0.0824  0.6676
  192SAPI   H2R22214   5.095   4.262   2.376 -0.1761  0.0909  0.3689
  192SAPI   H2S22215   4.991   4.378   2.431 -1.0702 -0.8380  0.0674
  192SAPI    C322216   4.834   3.874   2.616 -0.0638  0.2237 -1.1321
  192SAPI    HX22217   4.936   3.830   2.610  0.8050  1.5005  2.2377
  192SAPI    HY22218   4.759   3.797   2.587 -0.3541 -0.5052  1.3246
  192SAPI   O3122219   4.813   3.920   2.755 -0.4144 -0.2822 -0.1529
  192SAPI   C3122220   4.864   3.843   2.849  0.2610  0.0678 -0.5986
  192SAPI   O3222221   4.902   3.726   2.832  0.1336 -0.2381 -0.5890
  192SAPI   C3222222   4.874   3.925   2.973 -0.2771  0.5709  0.3380
  192SAPI   H2X22223   4.775   3.972   2.995  0.4731  1.9968  0.7798
  192SAPI   H2Y22224   4.949   4.006   2.966  0.2452  0.2341  1.6226
  192SAPI   C2322225   5.111   4.308   2.593 -0.5205 -0.2439 -1.2723
  192SAPI   H3R22226   5.196   4.378   2.579 -0.3230 -0.3888 -0.8158
  192SAPI   H3S22227   5.154   4.209   2.618  1.8186  0.6854 -1.3795
  192SAPI   C2422228   5.031   4.384   2.700 -0.1347 -0.3026 -1.0057
  192SAPI   H4R22229   4.973   4.469   2.658 -0.1028  2.0059  3.0946
  192SAPI   H4S22230   5.108   4.426   2.769 -2.0553  2.2203 -0.2764
  192SAPI   C2522231   4.946   4.301   2.788 -0.9410  0.1788  0.1089
  192SAPI   H5R22232   4.939   4.197   2.752 -1.4861  0.0833  0.4858
  192SAPI   C2622233   4.881   4.339   2.892 -0.4211 -0.7207 -0.4017
  192SAPI   H6R22234   4.830   4.258   2.946  0.4812  0.4137  2.3628
  192SAPI   C2722235   4.880   4.477   2.950 -0.8752 -0.3403 -0.3712
  192SAPI   H7R22236   4.912   4.556   2.878  0.9730 -1.2466 -0.6045
  192SAPI   H7S22237   4.961   4.481   3.026 -1.9845 -0.7112  0.8689
  192SAPI   C2822238   4.736   4.516   2.997  0.3121  0.5677 -0.7264
  192SAPI   H8R22239   4.670   4.527   2.910  0.5813  0.7844 -0.9049
  192SAPI   C2922240   4.693   4.531   3.123 -0.0420  0.3750 -0.0193
  192SAPI   H9R22241   4.586   4.554   3.134 -0.2978  0.4238 -2.2444
  192SAPI  C21022242   4.765   4.542   3.251  0.0830  0.1348 -0.0006
  192SAPI  H10R22243   4.866   4.497   3.249 -0.5464 -1.3636 -1.2318
  192SAPI  H10S22244   4.701   4.485   3.323  1.0877 -0.7408  0.2195
  192SAPI  C21122245   4.774   4.683   3.305 -0.2377  0.6425 -0.5823
  192SAPI  H11R22246   4.830   4.761   3.251 -0.3679  1.4006  0.3546
  192SAPI  C21222247   4.706   4.717   3.413 -0.1821 -0.5195  0.3858
  192SAPI  H12R22248   4.728   4.819   3.449 -0.8976 -1.0196  2.3225
  192SAPI  C21322249   4.621   4.650   3.516  0.0523  0.2444  0.5699
  192SAPI  H13R22250   4.552   4.578   3.467  1.0756 -0.0639 -0.4629
  192SAPI  H13S22251   4.544   4.715   3.564  0.8077 -0.9502  3.6492
  192SAPI  C21422252   4.693   4.593   3.641  0.3272 -0.4744  0.5623
  192SAPI  H14R22253   4.749   4.500   3.625  1.1418 -0.0012  0.5531
  192SAPI  C21522254   4.709   4.654   3.761 -0.0477  0.5197  0.0400
  192SAPI  H15R22255   4.767   4.597   3.835  0.1843 -0.7281 -1.0626
  192SAPI  C21622256   4.662   4.789   3.799  0.4901  0.0081 -0.5124
  192SAPI  H16R22257   4.587   4.831   3.729 -1.8439  0.7010  2.2229
  192SAPI  H16S22258   4.751   4.855   3.799  1.0542 -0.7186  0.3122
  192SAPI  C21722259   4.594   4.796   3.940  0.2611 -0.7674  0.0495
  192SAPI  H17R22260   4.654   4.734   4.011 -0.8411 -2.8040 -0.7029
  192SAPI  H17S22261   4.489   4.764   3.921  0.2050  0.3303 -1.7640
  192SAPI  C21822262   4.574   4.941   3.995 -0.2130 -0.4196 -0.0893
  192SAPI  H18R22263   4.513   4.934   4.089 -1.3435 -0.8665 -0.8276
  192SAPI  H18S22264   4.529   5.008   3.919  0.5328 -0.7889 -0.8617
  192SAPI  C21922265   4.704   5.009   4.039 -0.6569  0.2911  0.9231
  192SAPI  H19R22266   4.764   5.039   3.951  0.9599 -0.8494  1.5968
  192SAPI  H19S22267   4.769   4.932   4.084  1.1058  0.5157 -1.0918
  192SAPI  C22022268   4.684   5.121   4.141  0.7036 -0.2213 -0.3846
  192SAPI  H20R22269   4.628   5.205   4.096  0.6464 -1.9800 -3.9763
  192SAPI  H20S22270   4.783   5.158   4.176  0.7834 -1.5588  0.9099
  192SAPI  H20T22271   4.618   5.088   4.224 -0.9835  1.6856 -0.9075
  192SAPI   C3322272   4.905   3.847   3.102  0.4894 -0.5498  0.3195
  192SAPI   H3X22273   4.918   3.925   3.180 -1.7203 -0.2339  0.4462
  192SAPI   H3Y22274   4.986   3.775   3.080 -0.8580 -1.6517 -1.3121
  192SAPI   C3422275   4.784   3.761   3.146 -0.8559 -0.0872 -0.2000
  192SAPI   H4X22276   4.773   3.684   3.066  2.2922  0.6230 -1.4549
  192SAPI   H4Y22277   4.691   3.820   3.160 -1.1768 -0.7741  0.7145
  192SAPI   C3522278   4.790   3.695   3.280 -0.1038  0.1247  0.2284
  192SAPI   H5X22279   4.696   3.650   3.318  1.4108 -0.9674  2.9123
  192SAPI   H5Y22280   4.801   3.770   3.361 -3.8168 -0.1586  1.1400
  192SAPI   C3622281   4.908   3.592   3.290  0.0079  0.2770 -0.6867
  192SAPI   H6X22282   5.003   3.639   3.259  0.8859 -1.3759 -0.6086
  192SAPI   H6Y22283   4.883   3.508   3.221 -1.7136  0.0022  0.2025
  192SAPI   C3722284   4.921   3.524   3.422 -0.3608  0.4626  0.1774
  192SAPI   H7X22285   4.926   3.595   3.508 -0.7158 -2.3351  2.6877
  192SAPI   H7Y22286   5.013   3.462   3.434 -1.1735 -1.0675 -1.1380
  192SAPI   C3822287   4.804   3.432   3.450  0.0165  0.4400 -0.0474
  192SAPI   H8X22288   4.809   3.342   3.384 -2.0696  0.5412 -0.4267
  192SAPI   H8Y22289   4.706   3.477   3.424  0.6568  2.4173  0.7985
  192SAPI   C3922290   4.797   3.384   3.594 -0.2603  0.1806  0.1180
  192SAPI   H9X22291   4.807   3.471   3.662  1.7538  0.5774 -0.6019
  192SAPI   H9Y22292   4.887   3.319   3.603  1.7273  2.7486 -0.1495
  192SAPI  C31022293   4.670   3.293   3.618 -0.2919 -0.4179 -0.1950
  192SAPI  H10X22294   4.668   3.215   3.539  1.6114 -2.0171  1.2271
  192SAPI  H10Y22295   4.579   3.357   3.621 -1.7259 -2.3428 -0.8314
  192SAPI  C31122296   4.694   3.225   3.753  0.1895  0.3242 -0.3075
  192SAPI  H11X22297   4.799   3.193   3.770  0.2518  1.8740  3.0490
  192SAPI  H11Y22298   4.624   3.139   3.747  1.8637 -1.1542  0.2302
  192SAPI  C31222299   4.650   3.320   3.868 -0.3385  0.5738 -0.7902
  192SAPI  H12X22300   4.580   3.395   3.825 -1.5878 -0.3612 -0.4357
  192SAPI  H12Y22301   4.740   3.364   3.915 -0.4376 -2.1506  2.2899
  192SAPI  C31322302   4.573   3.238   3.982  0.1436 -0.5949  0.0022
  192SAPI  H13X22303   4.641   3.154   4.008  1.6109  0.7898  0.7534
  192SAPI  H13Y22304   4.470   3.211   3.948 -0.7954  1.9261  0.6468
  192SAPI  C31422305   4.544   3.324   4.104  0.1024  1.0060  0.0398
  192SAPI  H14X22306   4.493   3.418   4.075 -1.2577  0.0196 -0.9366
  192SAPI  H14Y22307   4.642   3.353   4.146 -0.8341  0.1624  3.0446
  192SAPI  C31522308   4.474   3.246   4.222  0.0780 -0.3577  0.4346
  192SAPI  H15X22309   4.486   3.311   4.311 -0.5112 -0.6271  0.7164
  192SAPI  H15Y22310   4.538   3.157   4.240  1.6982  0.9518  1.4072
  192SAPI  C31622311   4.343   3.197   4.177  0.7018 -0.2111  0.5568
  192SAPI  H16X22312   4.371   3.110   4.114  0.6920  0.2191 -0.0484
  192SAPI  H16Y22313   4.278   3.266   4.119  1.3964 -0.9616 -1.1463
  192SAPI  C31722314   4.259   3.126   4.292 -0.3675  0.6919  0.4322
  192SAPI  H17X22315   4.175   3.086   4.232  1.6510 -0.4568 -1.7727
  192SAPI  H17Y22316   4.236   3.201   4.371 -1.9978  0.5010  0.1659
  192SAPI  C31822317   4.342   3.012   4.349 -0.0158 -0.2645  0.1246
  192SAPI  H18X22318   4.276   2.938   4.399 -1.6499  0.3948 -0.9860
  192SAPI  H18Y22319   4.408   3.053   4.429 -0.7492 -1.0633  1.1596
  192SAPI  H18Z22320   4.393   2.955   4.268  1.0587 -2.3726  2.1616
  193SOD    SOD22321   0.575   5.580   7.690  0.1314  0.6792 -0.2562
  194SOD    SOD22322   0.215   5.023   1.073 -0.0255  0.1256  0.3752
  195SOD    SOD22323   6.589   1.038   7.971  0.2722  0.2236 -0.3053
  196SOD    SOD22324   2.238   1.609   0.380 -0.3054  0.0183 -0.1910
  197SOD    SOD22325   4.260   2.916   1.159 -0.8385  0.3261  0.2930
  198SOD    SOD22326   6.173   6.844   6.873 -0.3215 -0.2791 -0.1357
  199SOD    SOD22327   1.013   0.579   1.921 -0.4166 -0.6885  0.0922
  200SOD    SOD22328   2.441   3.628   6.752 -0.1992 -0.8474 -0.6898
  201SOD    SOD22329   5.566   2.960   8.614 -0.1309 -0.4925 -0.1294
  202SOD    SOD22330   0.666   6.201   1.876 -0.0458  0.1888  0.1317
  203SOD    SOD22331   2.855   4.752   6.932 -0.2654  0.2898  0.1825
  204SOD    SOD22332   0.706   0.769   7.880  0.1902 -0.3261 -0.1423
  205SOD    SOD22333   4.243   2.403   6.501 -0.1034  0.0627 -0.1245
  206SOD    SOD22334   6.589   3.481   1.767 -0.0946 -0.6594  0.1541
  207SOD    SOD22335   4.177   4.601   1.621 -0.6001  0.3070 -0.1621
  208SOD    SOD22336   2.359   4.736   1.564  0.0723 -0.1320  0.4418
  209SOD    SOD22337   4.859   3.887   1.027  0.0090 -0.1648 -0.2277
  210SOD    SOD22338   3.118   0.692   7.627 -0.2635  0.0419  0.5944
  211SOD    SOD22339   5.686   3.933   2.654  0.1694 -0.2879  0.5129
  212SOD    SOD22340   5.545   5.281   6.520 -0.5203 -0.4633  0.1721
  213SOD    SOD22341   5.041   6.399   7.580  0.0929  0.1382 -0.0650
  214SOD    SOD22342   0.232   2.726   2.405  0.2511  0.2148  0.0966
  215SOD    SOD22343   1.942   2.698   6.625 -0.1809  0.0990  0.1513
  216SOD    SOD22344   2.258   1.013   1.712  0.0488  0.2119  0.2084
  217SOD    SOD22345   5.959   2.303   1.880  0.2365 -0.2634 -0.1942
  218SOD    SOD22346   3.061   3.436   6.226 -0.3398 -0.1641  0.1167
  219SOD    SOD22347   1.075   0.040   2.121  0.3236  0.3219 -0.0295
  220SOD    SOD22348   1.927   5.576   7.078 -0.0516 -0.1510 -0.0018
  221SOD    SOD22349   5.941   1.660   6.983  0.3531  0.0764  0.3058
  222SOD    SOD22350   1.556   0.930   0.843 -0.4423 -0.1821  0.1692
  223SOD    SOD22351   3.422   4.344   8.491 -0.0951 -0.0962  0.4535
  224SOD    SOD22352   5.714   5.201   0.172 -0.4675 -0.5325 -0.0756
  225SOD    SOD22353   5.483   3.888   6.700 -0.1487  0.0021  0.1457
  226SOD    SOD22354   5.786   5.733   1.820  0.2090 -0.6727  0.4083
  227SOD    SOD22355   4.357   4.510   7.245  0.7615  0.4959  0.4697
  228SOD    SOD22356   2.864   2.462   1.905  0.4111  0.1093  0.4655
  229SOD    SOD22357   1.949   4.731   8.454  0.1451  0.6114 -0.3076
  230CLA    CLA22358   1.173   1.079   8.747 -0.2458 -0.2314  0.1813
  231CLA    CLA22359   4.883   4.608   8.225 -0.6451 -0.0890  0.2067
  232CLA    CLA22360   0.291   4.438   1.786  0.2678 -0.0267 -0.2088
  233CLA    CLA22361   4.074   0.035   7.981  0.0224  0.2614  0.2143
  234CLA    CLA22362   2.575   4.461   1.223  0.1090  0.4159  0.0732
  235CLA    CLA22363   6.308   3.136   8.148  0.2091 -0.3253  0.3880
  236CLA    CLA22364   6.394   0.630   1.298  0.4723 -0.3476  0.0749
  237CLA    CLA22365   5.780   1.383   0.168 -0.0875 -0.1119 -0.1282
  238CLA    CLA22366   1.846   2.133   8.757 -0.1328  0.1945  0.0853
  239CLA    CLA22367   0.235   3.518   8.559  0.2888 -0.1635  0.2928
  240CLA    CLA22368   5.956   0.482   7.799 -0.1097  0.2737  0.1157
  241CLA    CLA22369   5.134   3.694   8.186 -0.1731  0.1954  0.1158
  242CLA    CLA22370   3.430   1.505   0.421 -0.0068  0.4454  0.0425
  243CLA    CLA22371   4.798   5.482   7.146 -0.1460 -0.3919 -0.0096
  244CLA    CLA22372   2.922   3.594   7.781  0.4917  0.0949  0.2096
  245CLA    CLA22373   0.667   0.846   1.166 -0.3165  0.0183  0.0311
  246CLA    CLA22374   0.184   1.168   7.100  0.0613  0.2815  0.3439
  247TIP3   OH222375   6.780   1.389   8.097 -1.0885  0.4942  0.5637
  247TIP3    H122376   6.841   1.463   8.106 -0.4592 -0.1405  1.6902
  247TIP3    H222377   6.743   1.379   8.184 -0.6632 -0.9414  0.5984
  248TIP3   OH222378   4.721   2.880   0.781  0.1133  0.2950  0.1853
  248TIP3    H122379   4.670   2.808   0.743 -0.5553  0.5120  0.6504
  248TIP3    H222380   4.672   2.959   0.759  0.6572  0.5865 -0.0132
  249TIP3   OH222381   1.097   3.314   0.622 -0.2646  0.6263  0.2485
  249TIP3    H122382   1.043   3.392   0.611  2.1846  3.1665  3.7954
  249TIP3    H222383   1.137   3.300   0.536 -3.4380  0.9843 -1.4246
  250TIP3   OH222384   2.507   2.027   0.629  0.1668  0.2747 -0.2631
  250TIP3    H122385   2.596   2.063   0.631  0.8118 -1.2140 -0.7133
  250TIP3    H222386   2.450   2.104   0.624  1.4684  1.2318 -1.0828
  251TIP3   OH222387   5.289   0.458   7.879  0.2028  0.5169  0.1966
  251TIP3    H122388   5.285   0.426   7.789 -1.1851  2.1110 -0.3818
  251TIP3    H222389   5.376   0.498   7.886  0.2673  0.5232 -0.5115
  252TIP3   OH222390   3.886   2.133   6.677 -0.0315  0.0601  0.2050
  252TIP3    H122391   3.824   2.204   6.663  0.8742  0.6318 -1.1500
  252TIP3    H222392   3.843   2.056   6.640 -0.9751 -0.1100  1.5915
  253TIP3   OH222393   1.881   2.661   8.768 -0.1482  0.2680  0.7584
  253TIP3    H122394   1.935   2.721   8.717 -0.8798  1.5213  1.4071
  253TIP3    H222395   1.930   2.648   8.849 -1.0564  1.9470  1.6384
  254TIP3   OH222396   6.381   0.109   8.479 -0.4315  0.2161 -0.3158
  254TIP3    H122397   6.434   0.175   8.524  0.3319 -0.4692 -0.1896
  254TIP3    H222398   6.318   0.081   8.545 -0.8072  0.8673 -0.3913
  255TIP3   OH222399   5.116   4.868   6.745 -0.5977  0.3585 -0.2074
  255TIP3    H122400   5.061   4.848   6.821 -0.0232 -0.7583 -0.0752
  255TIP3    H222401   5.187   4.804   6.748  1.9314  2.9586  0.8052
  256TIP3   OH222402   2.140   3.195   6.249  0.0969  0.0251 -0.4733
  256TIP3    H122403   2.178   3.267   6.198 -1.3414  2.1839  1.3051
  256TIP3    H222404   2.176   3.207   6.337 -1.6613 -0.1966  0.3226
  257TIP3   OH222405   3.840   3.123   7.120 -0.3308  0.0384  0.4610
  257TIP3    H122406   3.812   3.049   7.172 -0.1393  1.0025  1.9972
  257TIP3    H222407   3.759   3.171   7.101 -0.7161 -1.4217 -2.0581
  258TIP3   OH222408   5.015   3.942   1.841 -1.0145  0.4560  0.5732
  258TIP3    H122409   4.977   3.977   1.921 -0.7249  1.3506  0.3247
  258TIP3    H222410   5.022   3.848   1.857 -0.8586  0.6428  1.6357
  259TIP3   OH222411   2.586   4.238   7.177  0.4125 -0.0634  0.2941
  259TIP3    H122412   2.556   4.313   7.125 -2.0797 -0.8551  0.4760
  259TIP3    H222413   2.643   4.189   7.117  0.6808  1.0371 -0.3868
  260TIP3   OH222414   1.443   2.247   2.084 -0.1478  0.3457  0.3449
  260TIP3    H122415   1.493   2.279   2.160 -0.3869 -0.0010  0.6525
  260TIP3    H222416   1.391   2.174   2.119 -1.7951  1.4461  0.3255
  261TIP3   OH222417   3.997   2.454   7.322  0.5920  0.6585 -0.2790
  261TIP3    H122418   3.994   2.411   7.407 -1.5663  0.3078 -0.4649
  261TIP3    H222419   3.986   2.547   7.342 -2.5489  0.3991 -0.1739
  262TIP3   OH222420   0.182   4.121   8.545 -0.2521  0.2112 -0.3166
  262TIP3    H122421   0.115   4.056   8.564 -1.1158  1.3671  0.7290
  262TIP3    H222422   0.200   4.162   8.630 -1.0147  2.5189 -1.2036
  263TIP3   OH222423   4.792   4.127   8.319 -0.4381 -0.0883 -0.0965
  263TIP3    H122424   4.817   4.093   8.233  0.3729 -0.1787  0.1648
  263TIP3    H222425   4.812   4.056   8.380 -1.4608 -0.2081  0.1245
  264TIP3   OH222426   1.386   1.389   1.041  0.0052  0.6850  0.7223
  264TIP3    H122427   1.312   1.417   0.988  0.4621 -0.8344 -0.8126
  264TIP3    H222428   1.437   1.468   1.055 -0.9374  1.4029  0.2354
  265TIP3   OH222429   4.182   3.439   0.912  0.3189 -0.0781 -0.2989
  265TIP3    H122430   4.205   3.351   0.943  0.1983 -0.0001  0.0200
  265TIP3    H222431   4.266   3.483   0.899  0.3710  0.0891  0.5185
  266TIP3   OH222432   3.773   3.444   0.677 -1.0340  0.0320  0.4357
  266TIP3    H122433   3.834   3.498   0.727 -0.9038  0.5719 -0.2849
  266TIP3    H222434   3.776   3.481   0.589 -1.2064 -0.9437  0.0150
  267TIP3   OH222435   3.107   5.819   7.860  0.0740  0.3820  0.2925
  267TIP3    H122436   3.076   5.854   7.944  0.5352  0.8133  0.2886
  267TIP3    H222437   3.032   5.770   7.825 -0.5382  1.2350  0.3738
  268TIP3   OH222438   0.385   3.423   7.986  0.7036  0.1631  0.1444
  268TIP3    H122439   0.416   3.335   7.964  0.1356 -0.2625  0.9958
  268TIP3    H222440   0.317   3.441   7.922 -0.4392 -0.7721  1.0600
  269TIP3   OH222441   2.862   2.018   7.258 -0.2352  0.0798  0.1516
  269TIP3    H122442   2.816   2.094   7.292 -0.5319  0.3904 -0.9150
  269TIP3    H222443   2.933   2.054   7.205 -2.0690 -0.2720 -2.7407
  270TIP3   OH222444   5.857   2.558   1.457 -0.4089  0.4688 -0.0900
  270TIP3    H122445   5.847   2.633   1.398  0.7490  1.1288  0.5192
  270TIP3    H222446   5.768   2.527   1.472 -0.7577  0.4568 -1.9539
  271TIP3   OH222447   4.647   0.819   0.703  0.4978  0.4574 -0.6665
  271TIP3    H122448   4.626   0.825   0.796 -1.3699  2.0595 -1.1332
  271TIP3    H222449   4.589   0.751   0.668 -0.9360  1.8599 -1.1432
  272TIP3   OH222450   0.676   3.979   7.498  0.1711 -0.9837 -0.5485
  272TIP3    H122451   0.722   4.058   7.524  1.2411 -1.8586  0.3099
  272TIP3    H222452   0.638   4.000   7.412  1.0915  0.1878 -0.6858
  273TIP3   OH222453   3.227   3.924   7.740 -0.6445 -0.1623  0.1954
  273TIP3    H122454   3.256   3.977   7.814  0.3313  2.4036 -1.8453
  273TIP3    H222455   3.149   3.970   7.707  0.7639  0.7041 -2.1957
  274TIP3   OH222456   5.152   5.815   0.137 -0.1604  0.3893 -0.0542
  274TIP3    H122457   5.112   5.847   0.218 -0.3163  1.1402 -0.4191
  274TIP3    H222458   5.139   5.721   0.140  0.2877  0.3475  1.0432
  275TIP3   OH222459   2.715   6.583   1.038  0.5833 -0.3473 -0.0667
  275TIP3    H122460   2.678   6.637   1.108 -2.2814  0.3869 -1.9630
  275TIP3    H222461   2.733   6.499   1.079 -0.1909  0.3133  1.7328
  276TIP3   OH222462   3.319   5.247   0.527 -0.5015 -0.2606 -0.1146
  276TIP3    H122463   3.354   5.298   0.600  0.0993 -1.3962  0.4125
  276TIP3    H222464   3.394   5.235   0.469 -0.4800 -1.0879  0.0829
  277TIP3   OH222465   3.728   1.540   6.608  0.2563 -0.3422  0.2587
  277TIP3    H122466   3.758   1.482   6.678 -0.6508  1.3804  2.1764
  277TIP3    H222467   3.638   1.562   6.632  0.3435  1.3050 -0.7555
  278TIP3   OH222468   0.140   5.210   1.888 -0.3920 -0.5595  1.1880
  278TIP3    H122469   0.178   5.135   1.843 -0.9308 -0.6572  0.8841
  278TIP3    H222470   0.147   5.282   1.825 -1.7510 -0.8538  0.6638
  279TIP3   OH222471   4.267   6.095   0.468  0.4713  0.2510  0.7295
  279TIP3    H122472   4.266   6.188   0.448 -0.4622  0.0581 -0.2080
  279TIP3    H222473   4.217   6.087   0.549 -1.1282  0.3730 -0.2082
  280TIP3   OH222474   0.939   1.062   1.781 -0.2605  0.6105 -0.0164
  280TIP3    H122475   0.926   1.156   1.791  1.0313  0.6420  1.9245
  280TIP3    H222476   1.034   1.051   1.779 -0.3728 -0.7040  0.5874
  281TIP3   OH222477   3.253   3.880   6.734 -0.4803 -0.0389  0.6709
  281TIP3    H122478   3.317   3.951   6.731 -0.1762 -0.3032 -2.0726
  281TIP3    H222479   3.307   3.800   6.737 -0.7751 -0.2137  1.5667
  282TIP3   OH222480   2.673   5.892   7.814 -0.6755 -0.2228 -0.0516
  282TIP3    H122481   2.707   5.925   7.730 -1.1816  1.3697  0.3290
  282TIP3    H222482   2.578   5.888   7.801 -0.6643 -1.1384  0.0744
  283TIP3   OH222483   4.184   1.042   7.296  0.3113  0.1668 -0.3319
  283TIP3    H122484   4.195   0.947   7.305 -0.0250  0.1718  0.2047
  283TIP3    H222485   4.199   1.076   7.384  1.8697  0.7698 -0.8077
  284TIP3   OH222486   2.779   3.226   7.863 -0.6265 -0.4309 -0.3252
  284TIP3    H122487   2.849   3.274   7.907 -0.7725  0.2973 -0.8566
  284TIP3    H222488   2.714   3.293   7.841 -0.5688 -0.7556 -1.6031
  285TIP3   OH222489   3.648   4.697   8.586  0.3357  0.5038  1.0880
  285TIP3    H122490   3.742   4.709   8.572 -0.1165  4.2764  0.1427
  285TIP3    H222491   3.636   4.715   8.680  0.4850  0.8478  1.0438
  286TIP3   OH222492   0.027   4.350   7.442 -0.0017 -0.0464  0.9979
  286TIP3    H122493   0.074   4.267   7.452  1.8092  0.8775  0.6334
  286TIP3    H222494   0.018   4.383   7.532 -0.1150 -0.3289  1.0897
  287TIP3   OH222495   6.598   1.309   2.773  0.5283 -0.3600  0.0475
  287TIP3    H122496   6.656   1.234   2.765  0.2948 -0.4944 -0.3955
  287TIP3    H222497   6.616   1.362   2.695  1.8504  0.8637  1.1368
  288TIP3   OH222498   1.714   5.290   1.896  0.1989  0.6179 -0.4786
  288TIP3    H122499   1.636   5.276   1.843 -0.9293  2.2493  0.6524
  288TIP3    H222500   1.705   5.230   1.970  0.1379  0.6494 -0.4610
  289TIP3   OH222501   5.814   6.456   8.194  0.1532 -0.0859  0.3303
  289TIP3    H122502   5.724   6.426   8.200  0.3685 -0.7844  0.1552
  289TIP3    H222503   5.867   6.376   8.196  0.6762  0.1328 -1.7891
  290TIP3   OH222504   4.574   4.841   7.975 -0.2581  0.3277 -0.2820
  290TIP3    H122505   4.546   4.781   7.907 -1.3598  0.9874 -0.4282
  290TIP3    H222506   4.669   4.831   7.979 -0.5206 -2.4237  0.6468
  291TIP3   OH222507   6.208   3.215   1.467  0.4324 -0.4160 -0.3714
  291TIP3    H122508   6.130   3.214   1.412  0.7061  1.6880 -0.8853
  291TIP3    H222509   6.261   3.142   1.435 -0.1499 -0.2351 -1.7982
  292TIP3   OH222510   2.717   6.164   1.461 -0.1819 -0.4759  0.1558
  292TIP3    H122511   2.643   6.137   1.515 -1.0254 -2.2707 -1.7598
  292TIP3    H222512   2.678   6.195   1.380  1.1195  0.3515 -0.1799
  293TIP3   OH222513   1.917   3.890   1.575 -0.4263  0.5311 -0.2085
  293TIP3    H122514   1.833   3.936   1.573 -0.4778  0.4220 -0.7959
  293TIP3    H222515   1.894   3.800   1.597 -0.3756  0.6718  0.4435
  294TIP3   OH222516   0.901   5.519   2.217 -0.0122  0.1580  0.0766
  294TIP3    H122517   0.865   5.431   2.201  0.4734  0.4227 -3.1689
  294TIP3    H222518   0.849   5.553   2.290 -1.6000 -2.0714  0.0887
  295TIP3   OH222519   4.002   4.248   7.236  0.2643  0.5765 -0.1663
  295TIP3    H122520   4.093   4.273   7.253  0.3403  0.3607 -0.2513
  295TIP3    H222521   3.981   4.290   7.152  1.4929 -2.3600 -2.0955
  296TIP3   OH222522   2.670   1.547   8.292 -0.7117  0.4233 -0.3170
  296TIP3    H122523   2.740   1.612   8.290 -0.3424  0.0632  0.6053
  296TIP3    H222524   2.711   1.466   8.261 -0.3243 -0.1366  1.5549
  297TIP3   OH222525   1.852   1.083   8.622 -0.7428 -0.5230 -0.2633
  297TIP3    H122526   1.782   1.018   8.629  0.3693 -1.6464  4.7379
  297TIP3    H222527   1.933   1.032   8.623  0.1316  0.7956  0.5469
  298TIP3   OH222528   2.945   5.283   8.158  0.5565  0.3079  0.0423
  298TIP3    H122529   2.952   5.336   8.238  0.3049  0.3557  0.0339
  298TIP3    H222530   3.035   5.275   8.126  0.4902  1.5599 -0.4943
  299TIP3   OH222531   5.682   6.061   8.328 -0.2625  0.8562  0.4067
  299TIP3    H122532   5.673   6.022   8.415  0.8426 -2.2057 -0.7315
  299TIP3    H222533   5.592   6.064   8.294 -0.4408 -0.2934  0.7392
  300TIP3   OH222534   2.368   5.599   7.816 -0.7916  0.9185  0.3587
  300TIP3    H122535   2.343   5.582   7.907  0.3211  1.2762  0.7467
  300TIP3    H222536   2.372   5.512   7.776 -1.2690  0.7585  0.6531
  301TIP3   OH222537   3.459   4.491   8.295  0.2850  0.2199 -0.3039
  301TIP3    H122538   3.384   4.544   8.268 -0.3547 -1.1831 -1.3941
  301TIP3    H222539   3.534   4.533   8.253 -0.2913 -0.0590 -1.6525
  302TIP3   OH222540   2.999   5.475   7.210  0.7611  0.1410 -0.4463
  302TIP3    H122541   2.990   5.443   7.120  0.9741 -0.6879 -0.1807
  302TIP3    H222542   3.058   5.413   7.252  1.2710  0.9545  0.0659
  303TIP3   OH222543   0.651   0.574   7.758  0.2271  0.1004 -0.9406
  303TIP3    H122544   0.629   0.487   7.790 -2.7908  0.9814 -0.2694
  303TIP3    H222545   0.649   0.566   7.663 -0.7892 -0.4377 -0.8911
  304TIP3   OH222546   3.179   5.131   0.055  0.2358 -0.1604  0.0939
  304TIP3    H122547   3.104   5.074   0.043  0.0850 -0.0111  0.3118
  304TIP3    H222548   3.152   5.216   0.020  0.4824 -0.2389 -0.2892
  305TIP3   OH222549   3.268   0.215   8.400 -0.4439  0.5326  0.1332
  305TIP3    H122550   3.183   0.258   8.403 -0.0725  1.3267 -0.4263
  305TIP3    H222551   3.254   0.138   8.344 -0.4244  1.5380 -1.2925
  306TIP3   OH222552   6.091   1.511   8.659  0.8682  0.0623  0.6630
  306TIP3    H122553   6.087   1.425   8.699  1.0133 -0.5656 -0.6302
  306TIP3    H222554   6.047   1.569   8.721 -0.0158 -1.0889  1.1345
  307TIP3   OH222555   4.089   1.872   8.461 -0.3848 -0.6370 -0.0996
  307TIP3    H122556   4.078   1.803   8.395 -0.5491 -0.4199 -0.3002
  307TIP3    H222557   4.184   1.878   8.474 -0.2032  0.5036 -1.5914
  308TIP3   OH222558   1.997   4.754   2.184  0.2562  0.3916  0.0810
  308TIP3    H122559   1.914   4.794   2.212  0.5797  0.2755  1.2632
  308TIP3    H222560   2.049   4.749   2.264  0.6804 -1.2843 -0.2502
  309TIP3   OH222561   3.223   3.537   6.876 -0.2898  0.6544 -0.4510
  309TIP3    H122562   3.307   3.580   6.892  0.3677 -1.5101  2.6146
  309TIP3    H222563   3.245   3.456   6.831 -0.5577 -0.3711  1.1820
  310TIP3   OH222564   0.683   1.552   6.363  0.1776 -0.0680  0.2452
  310TIP3    H122565   0.661   1.614   6.294 -2.0490 -0.1041  0.8556
  310TIP3    H222566   0.647   1.469   6.332  0.6313 -0.4509  0.7311
  311TIP3   OH222567   6.435   1.442   6.414  0.3307 -0.2169 -0.0388
  311TIP3    H122568   6.466   1.369   6.469 -1.2108 -0.8578  0.0189
  311TIP3    H222569   6.472   1.520   6.456 -1.2742 -0.6158  2.3509
  312TIP3   OH222570   1.123   0.246   7.814  0.4166 -0.0600  0.2422
  312TIP3    H122571   1.104   0.228   7.906  0.6008 -0.6648  0.1623
  312TIP3    H222572   1.215   0.224   7.804  0.4929  0.3581 -0.0037
  313TIP3   OH222573   3.593   2.414   1.697  0.0093  0.3695 -0.0342
  313TIP3    H122574   3.498   2.412   1.693 -0.0294  1.7454 -0.4328
  313TIP3    H222575   3.615   2.507   1.706  1.2597 -0.0626  2.0194
  314TIP3   OH222576   4.896   4.790   7.194  0.5761  0.2037 -0.1074
  314TIP3    H122577   4.822   4.850   7.200  0.6680  0.4140 -0.9222
  314TIP3    H222578   4.942   4.800   7.277  0.0631  0.5615  0.1382
  315TIP3   OH222579   5.795   4.873   7.767 -0.3494 -0.6086  0.2435
  315TIP3    H122580   5.792   4.796   7.823  1.5879 -0.1106  1.1225
  315TIP3    H222581   5.878   4.916   7.790 -1.3978  1.7758 -0.1591
  316TIP3   OH222582   4.457   5.969   2.137  0.2526  0.0188  0.6231
  316TIP3    H122583   4.531   5.924   2.179 -0.1869 -2.6337 -1.1513
  316TIP3    H222584   4.396   5.898   2.116 -0.5833  1.4688 -2.2855
  317TIP3   OH222585   6.705   3.768   0.124  0.2933  0.1455  0.2833
  317TIP3    H122586   6.785   3.821   0.129 -0.5076  1.7054 -1.9585
  317TIP3    H222587   6.710   3.726   0.038  0.1086 -2.2167  1.3538
  318TIP3   OH222588   0.735   3.526   8.153 -0.5922  0.0605 -0.1234
  318TIP3    H122589   0.667   3.592   8.167 -1.8744 -1.3511  0.6371
  318TIP3    H222590   0.717   3.492   8.066 -1.1799 -0.6243  0.2517
  319TIP3   OH222591   5.394   1.713   2.422  0.0496 -0.4653 -0.0092
  319TIP3    H122592   5.388   1.786   2.362 -0.0941 -0.1550  0.3784
  319TIP3    H222593   5.487   1.706   2.442  0.4472 -2.0753 -2.0921
  320TIP3   OH222594   1.032   2.897   0.867  0.1629 -0.0474 -0.2034
  320TIP3    H122595   1.076   2.904   0.782  0.5440  0.9193  0.0588
  320TIP3    H222596   0.939   2.898   0.846  0.2369  1.2223 -0.5605
  321TIP3   OH222597   1.365   6.640   7.327 -0.1048 -0.1196 -0.3616
  321TIP3    H122598   1.455   6.661   7.353 -0.0877  0.2231 -0.6811
  321TIP3    H222599   1.376   6.585   7.249 -0.1761  2.3442 -2.2052
  322TIP3   OH222600   5.829   4.556   1.989 -0.2281 -0.2390  0.1189
  322TIP3    H122601   5.873   4.471   1.991  0.6673  0.2008 -0.1832
  322TIP3    H222602   5.755   4.546   2.049  0.3124 -0.9921  0.6910
  323TIP3   OH222603   0.596   3.649   6.305 -0.0013 -0.3905 -0.5486
  323TIP3    H122604   0.546   3.600   6.369 -1.4029  2.7671  1.0264
  323TIP3    H222605   0.539   3.653   6.228 -1.1052  0.8767  0.2729
  324TIP3   OH222606   0.913   3.759   2.214 -0.2021 -0.2023 -0.6564
  324TIP3    H122607   0.888   3.849   2.238  0.4569 -0.0378 -0.5711
  324TIP3    H222608   1.008   3.758   2.221 -0.2006 -0.8916 -0.7375
  325TIP3   OH222609   3.165   6.008   8.729  0.1292  0.4496 -0.4874
  325TIP3    H122610   3.167   5.965   8.644 -0.3338 -0.8476  0.1356
  325TIP3    H222611   3.075   6.038   8.739 -0.0440 -0.1952 -0.0777
  326TIP3   OH222612   6.308   0.045   1.673  0.1358  0.5775  0.1016
  326TIP3    H122613   6.294   0.133   1.639  0.9926  0.2632 -1.1067
  326TIP3    H222614   6.238  -0.007   1.635 -0.7537  0.8250  1.3149
  327TIP3   OH222615   2.863   2.235   6.204  0.6448 -0.4719 -0.0278
  327TIP3    H122616   2.795   2.222   6.138  0.2542  1.7163 -0.1430
  327TIP3    H222617   2.829   2.193   6.283 -0.2007 -0.6431 -0.4768
  328TIP3   OH222618   6.551   2.070   6.785 -0.2508  0.6526  0.3235
  328TIP3    H122619   6.564   2.131   6.713 -0.8829 -0.0550 -0.4143
  328TIP3    H222620   6.457   2.076   6.805  0.0383  1.3740  1.5919
  329TIP3   OH222621   3.388   0.218   1.700  0.1459 -0.9547 -0.0013
  329TIP3    H122622   3.336   0.225   1.780  0.3829  0.4345  0.0609
  329TIP3    H222623   3.426   0.130   1.703 -1.5910 -1.7363  0.3057
  330TIP3   OH222624   0.641   1.849   1.547 -0.3119  0.1432 -0.3143
  330TIP3    H122625   0.588   1.920   1.583  0.2226 -0.4590  1.8273
  330TIP3    H222626   0.606   1.770   1.588  0.6285 -0.5553 -0.8068
  331TIP3   OH222627   2.210   6.499   8.510  0.7651 -0.7143 -0.1894
  331TIP3    H122628   2.260   6.568   8.467  0.1618 -1.2120 -1.8044
  331TIP3    H222629   2.254   6.418   8.484  0.4541 -1.0253  0.2483
  332TIP3   OH222630   5.169   3.538   6.123 -0.0934  0.6991  0.3135
  332TIP3    H122631   5.228   3.465   6.142 -2.5446 -1.5059  0.0717
  332TIP3    H222632   5.120   3.510   6.046  0.1888  3.5230 -1.0158
  333TIP3   OH222633   0.739   5.740   1.852 -0.0298 -0.0009 -0.9387
  333TIP3    H122634   0.813   5.772   1.904 -2.1751  1.0519  1.7559
  333TIP3    H222635   0.707   5.818   1.806 -2.5130  0.9624  2.0819
  334TIP3   OH222636   6.669   6.155   7.630 -0.9587 -0.0394 -0.1590
  334TIP3    H122637   6.742   6.195   7.584 -0.9708  0.3545  0.1621
  334TIP3    H222638   6.643   6.081   7.575 -1.6380  1.0343 -1.3276
  335TIP3   OH222639   4.020   4.233   7.522  0.0147 -0.0523  0.0938
  335TIP3    H122640   3.979   4.319   7.515  2.2018  0.9771 -0.8483
  335TIP3    H222641   4.009   4.194   7.435 -0.8849 -0.7421  0.4890
  336TIP3   OH222642   2.880   4.882   6.200 -0.2632  0.1700 -0.3044
  336TIP3    H122643   2.901   4.814   6.136 -0.2883 -0.6020  0.4918
  336TIP3    H222644   2.868   4.961   6.147 -0.4061 -0.4703 -1.2628
  337TIP3   OH222645   3.763   0.849   0.456 -0.4037 -0.8034  0.1198
  337TIP3    H122646   3.761   0.780   0.522  0.1535 -0.2449  0.7373
  337TIP3    H222647   3.802   0.924   0.501 -0.3878 -0.2897 -0.7298
  338TIP3   OH222648   3.444   4.107   0.518 -0.1206  0.4383  0.4493
  338TIP3    H122649   3.396   4.030   0.489 -2.8844  1.9038  0.7771
  338TIP3    H222650   3.466   4.089   0.610 -0.5765 -0.0247  0.4686
  339TIP3   OH222651   4.423   3.393   8.806  0.1207 -1.0605  0.1597
  339TIP3    H122652   4.512   3.418   8.782  0.3027 -2.5490 -0.8291
  339TIP3    H222653   4.375   3.394   8.724 -0.0502 -3.0442  0.1805
  340TIP3   OH222654   6.520   5.982   8.697  0.3425 -0.2169 -0.3804
  340TIP3    H122655   6.582   6.054   8.685 -1.6915  1.5549 -0.7976
  340TIP3    H222656   6.536   5.925   8.622  1.8012 -0.1157 -0.1920
  341TIP3   OH222657   6.609   0.510   8.192 -0.2603  0.2173  0.5799
  341TIP3    H122658   6.583   0.500   8.101  3.0917  0.5223 -0.5482
  341TIP3    H222659   6.598   0.423   8.230 -0.8841 -0.1229 -0.3530
  342TIP3   OH222660   6.620   4.677   7.116  0.0935  0.0437  0.1168
  342TIP3    H122661   6.535   4.688   7.074  0.0667  0.1463  0.1976
  342TIP3    H222662   6.657   4.765   7.117  0.1274  0.0281  0.2389
  343TIP3   OH222663   5.774   2.327   1.103 -0.5080 -0.3446  0.2351
  343TIP3    H122664   5.737   2.414   1.093 -0.1892  0.0580  2.1122
  343TIP3    H222665   5.701   2.267   1.088 -1.0181  0.2956  0.1466
  344TIP3   OH222666   3.719   2.894   7.223  0.0140 -0.4062  0.2416
  344TIP3    H122667   3.643   2.847   7.188 -0.0542 -0.9636  1.0913
  344TIP3    H222668   3.681   2.959   7.283  0.2082 -0.9533  0.9761
  345TIP3   OH222669   5.238   6.474   1.197 -0.4763 -0.4888 -0.1842
  345TIP3    H122670   5.274   6.394   1.237  1.2934  0.5009  0.3162
  345TIP3    H222671   5.284   6.545   1.242 -3.2650  0.9317  0.6466
  346TIP3   OH222672   0.383   0.660   8.437  0.6302 -0.4346 -0.3222
  346TIP3    H122673   0.333   0.737   8.464 -1.2669 -1.7185 -0.0114
  346TIP3    H222674   0.407   0.617   8.519  0.1337 -1.0985 -0.5138
  347TIP3   OH222675   0.661   4.630   8.573 -0.3206 -0.4261 -0.2655
  347TIP3    H122676   0.587   4.573   8.551 -0.1873 -0.6658 -0.1067
  347TIP3    H222677   0.620   4.708   8.612 -0.4691 -0.8226  0.4016
  348TIP3   OH222678   2.811   5.829   1.470  0.2842  0.1412  0.4905
  348TIP3    H122679   2.717   5.841   1.463  0.3714  1.1372  0.9185
  348TIP3    H222680   2.827   5.742   1.433 -0.6860  0.3249 -0.3875
  349TIP3   OH222681   0.643   0.995   0.210 -0.7082 -0.5388  0.4729
  349TIP3    H122682   0.636   0.935   0.136 -0.1653 -0.1182  0.0674
  349TIP3    H222683   0.617   0.943   0.286 -1.1519 -1.0131  0.0044
  350TIP3   OH222684   2.773   1.012   8.570  0.0198 -0.1948  0.3571
  350TIP3    H122685   2.680   0.998   8.583  0.0541 -1.8054 -0.7943
  350TIP3    H222686   2.815   0.933   8.605  0.9758  0.5403  0.9432
  351TIP3   OH222687   5.841   3.313   0.711  0.6396  0.1624  0.2334
  351TIP3    H122688   5.908   3.339   0.774  1.0100 -0.7208  0.2230
  351TIP3    H222689   5.890   3.269   0.641 -0.0309 -1.5024  0.7630
  352TIP3   OH222690   5.736   2.281   6.877  0.4945  0.4493  0.0353
  352TIP3    H122691   5.649   2.244   6.861  0.6465 -0.3929  1.0096
  352TIP3    H222692   5.729   2.323   6.963  0.6602  1.6610 -0.5348
  353TIP3   OH222693   0.875   4.318   6.457  0.0074  0.1109 -0.0299
  353TIP3    H122694   0.888   4.259   6.532  1.2671  1.1047  0.5707
  353TIP3    H222695   0.925   4.277   6.386 -1.3046 -0.9087 -0.4147
  354TIP3   OH222696   3.510   5.926   6.857 -0.1229 -0.1517  0.3540
  354TIP3    H122697   3.460   5.917   6.776  1.2417 -1.0375 -0.4285
  354TIP3    H222698   3.444   5.924   6.926 -1.3815  1.3396 -0.7476
  355TIP3   OH222699   3.179   4.301   1.045 -0.2330  0.1241  0.2734
  355TIP3    H122700   3.272   4.319   1.060 -0.2531  0.2885  0.2047
  355TIP3    H222701   3.156   4.354   0.968 -0.2089 -0.4646 -0.1422
  356TIP3   OH222702   4.463   3.269   2.073 -0.4650  0.1276  0.0880
  356TIP3    H122703   4.482   3.248   2.164  0.7797  2.5091  0.4722
  356TIP3    H222704   4.496   3.194   2.024  2.2112  0.3156  1.3963
  357TIP3   OH222705   5.718   0.683   1.785  0.3752  0.2188 -0.1469
  357TIP3    H122706   5.693   0.745   1.854 -0.7168  1.8034 -1.8767
  357TIP3    H222707   5.773   0.618   1.830 -1.6180  0.2217  2.5325
  358TIP3   OH222708   4.167   1.432   1.883 -0.4535  0.2337 -0.3761
  358TIP3    H122709   4.109   1.386   1.944  0.4754 -0.6305 -0.1109
  358TIP3    H222710   4.224   1.364   1.849  0.2700  1.0301 -0.7854
  359TIP3   OH222711   1.234   3.489   8.310  0.4860  0.1631 -0.3137
  359TIP3    H122712   1.251   3.485   8.405  1.2328 -0.9620 -0.4822
  359TIP3    H222713   1.141   3.470   8.301  0.6313 -0.7880  0.1249
  360TIP3   OH222714   2.287   0.168   7.704 -0.9844 -0.0904  0.4380
  360TIP3    H122715   2.264   0.221   7.780  0.3693  0.5082  0.4555
  360TIP3    H222716   2.343   0.099   7.739  1.5065  1.4637 -0.2565
  361TIP3   OH222717   5.925   2.248   2.353  0.4298  0.1801  0.8723
  361TIP3    H122718   5.890   2.258   2.441 -0.9793  1.3356  0.2192
  361TIP3    H222719   5.858   2.201   2.305  0.1069  1.6393 -0.1747
  362TIP3   OH222720   0.817   4.999   0.262  0.2038 -0.5235 -0.0009
  362TIP3    H122721   0.770   4.981   0.344  0.9014 -1.1458  0.2795
  362TIP3    H222722   0.755   4.976   0.193 -0.3096 -0.2173  0.3522
  363TIP3   OH222723   2.148   4.239   0.290 -0.3078  0.5216  0.4864
  363TIP3    H122724   2.226   4.293   0.296  0.7022 -0.9200  0.8889
  363TIP3    H222725   2.075   4.300   0.296  0.7860  1.8503  0.5280
  364TIP3   OH222726   4.549   0.085   0.235 -0.2505 -0.0780  0.0810
  364TIP3    H122727   4.622   0.048   0.285 -0.2628  0.2679  0.3598
  364TIP3    H222728   4.569   0.064   0.144 -0.4735 -1.1570  0.2578
  365TIP3   OH222729   5.488   3.026   0.788 -0.7016  0.1896 -0.2637
  365TIP3    H122730   5.479   3.110   0.744 -2.9099 -0.6363 -1.5519
  365TIP3    H222731   5.405   2.981   0.772 -0.1447 -1.6948  1.5794
  366TIP3   OH222732   2.237   4.617   1.779  0.2489  0.6577 -0.4444
  366TIP3    H122733   2.147   4.645   1.797 -0.0054 -0.1292 -0.4342
  366TIP3    H222734   2.290   4.666   1.841 -0.3742 -0.2736  0.9049
  367TIP3   OH222735   6.582   1.020   0.450  0.4270 -0.5888  0.0028
  367TIP3    H122736   6.575   1.033   0.356  0.6600  3.3889  0.3802
  367TIP3    H222737   6.674   1.037   0.470 -0.3517  2.9769  1.2832
  368TIP3   OH222738   0.883   4.539   6.675  0.4100  0.6571 -0.0723
  368TIP3    H122739   0.810   4.601   6.671  0.1133  0.3607  0.6577
  368TIP3    H222740   0.891   4.507   6.585 -2.6377 -1.9134  0.3821
  369TIP3   OH222741   5.848   4.280   7.091 -0.5042 -0.3313 -0.2011
  369TIP3    H122742   5.758   4.258   7.069 -0.5620 -0.1413 -0.1570
  369TIP3    H222743   5.896   4.197   7.084 -0.4339 -0.1953 -1.4617
  370TIP3   OH222744   3.091   0.538   7.304 -0.5264  0.6417  0.6663
  370TIP3    H122745   3.035   0.547   7.227 -0.9655 -2.4964  0.4707
  370TIP3    H222746   3.180   0.529   7.269 -0.2176  2.7785  0.8053
  371TIP3   OH222747   3.355   1.094   8.678  0.1992  0.6148  0.2168
  371TIP3    H122748   3.370   1.011   8.723  1.0092  0.9319  0.5546
  371TIP3    H222749   3.331   1.068   8.589 -0.2851  0.0103  0.5165
  372TIP3   OH222750   3.847   0.030   7.028 -0.2919  0.0117 -0.5674
  372TIP3    H122751   3.862  -0.052   7.075 -1.3054  1.2696  2.1215
  372TIP3    H222752   3.763   0.018   6.985  0.1215 -0.7521 -1.1998
  373TIP3   OH222753   6.536   0.957   6.374 -0.2916  0.1219 -0.3933
  373TIP3    H122754   6.596   0.982   6.304 -0.2101 -1.3267 -0.8608
  373TIP3    H222755   6.581   0.886   6.420 -2.0308 -1.7027 -1.3726
  374TIP3   OH222756   5.225   5.579   1.267  0.0820 -0.1992 -0.6650
  374TIP3    H122757   5.191   5.614   1.185 -0.7057 -2.1064 -1.2023
  374TIP3    H222758   5.199   5.643   1.333 -1.1380  0.3198 -1.6076
  375TIP3   OH222759   6.119   4.932   7.019 -0.9512  0.5572  0.7074
  375TIP3    H122760   6.169   4.851   7.014 -0.3209  0.8731  1.5515
  375TIP3    H222761   6.151   4.985   6.946  0.4049  0.9833  1.5745
  376TIP3   OH222762   6.619   2.582   7.499 -0.5184 -0.1026 -0.3986
  376TIP3    H122763   6.649   2.556   7.411 -0.5569  0.0268 -0.4502
  376TIP3    H222764   6.652   2.672   7.509  0.3356 -0.4617  0.1105
  377TIP3   OH222765   1.207   5.676   7.262  0.2564  0.5195  0.4179
  377TIP3    H122766   1.190   5.721   7.344 -0.9771 -2.2441  1.8122
  377TIP3    H222767   1.302   5.662   7.261  0.2256  0.1137  1.6748
  378TIP3   OH222768   3.278   3.890   8.385 -0.7153  0.6541  0.2216
  378TIP3    H122769   3.320   3.877   8.470 -1.8495 -0.1802  0.6828
  378TIP3    H222770   3.348   3.875   8.321  0.0169  0.7033  0.9960
  379TIP3   OH222771   6.404   3.505   6.482  0.0985  0.5336 -0.4210
  379TIP3    H122772   6.346   3.506   6.559  0.7204 -2.1782  0.2221
  379TIP3    H222773   6.430   3.413   6.474  0.6139  0.8631 -3.5102
  380TIP3   OH222774   6.455   2.503   1.576 -0.4154 -0.0625  0.4620
  380TIP3    H122775   6.528   2.481   1.634 -0.8796 -1.8960  0.4274
  380TIP3    H222776   6.492   2.497   1.488 -0.0849  1.2136  0.4990
  381TIP3   OH222777   6.038   4.018   7.815  0.6018  0.7440 -0.7435
  381TIP3    H122778   6.129   3.991   7.828  0.1192 -0.5458  0.2441
  381TIP3    H222779   6.013   4.060   7.898 -0.0423 -0.0091 -0.5362
  382TIP3   OH222780   5.597   3.630   1.928  0.5428  0.4135  0.0975
  382TIP3    H122781   5.603   3.548   1.879  2.3125  1.2614 -1.1938
  382TIP3    H222782   5.644   3.612   2.010  2.8222  0.7162 -1.0809
  383TIP3   OH222783   6.521   5.612   6.841  0.2729 -0.0223 -0.2124
  383TIP3    H122784   6.540   5.651   6.926  0.0447  0.4484 -0.3766
  383TIP3    H222785   6.563   5.671   6.778  2.4118 -1.5371 -0.3380
  384TIP3   OH222786   6.704   4.197   0.835  0.6190  0.3016 -0.2905
  384TIP3    H122787   6.663   4.279   0.806 -1.4660  0.5036  2.7401
  384TIP3    H222788   6.798   4.211   0.820  0.0988  1.9278 -2.7389
  385TIP3   OH222789   1.568   0.533   1.374  0.3046 -0.0220 -0.1403
  385TIP3    H122790   1.574   0.487   1.458 -0.5343 -0.8581 -0.5270
  385TIP3    H222791   1.632   0.604   1.382  1.2999 -0.9637  0.6484
  386TIP3   OH222792   0.986   0.359   8.763 -0.1043  0.5811  0.4705
  386TIP3    H122793   1.021   0.348   8.852 -0.1127  0.9532  0.5183
  386TIP3    H222794   0.904   0.309   8.763 -0.4661  1.1667  0.8847
  387TIP3   OH222795   0.108   1.565   1.843 -0.2187  0.1276 -0.4387
  387TIP3    H122796   0.109   1.523   1.929  1.3457  1.0678  0.0383
  387TIP3    H222797   0.094   1.658   1.861  2.0465  0.6338 -0.9865
  388TIP3   OH222798   4.907   5.749   0.686  0.1220  0.1403 -0.0205
  388TIP3    H122799   4.932   5.824   0.739  0.8750 -1.2831  1.7282
  388TIP3    H222800   4.824   5.774   0.646 -0.2642  1.4309  1.5119
  389TIP3   OH222801   2.262   6.534   7.227 -0.1883  0.3767  0.3044
  389TIP3    H122802   2.273   6.597   7.156 -2.7036  3.5692  2.3825
  389TIP3    H222803   2.344   6.539   7.276  0.2221  0.9099 -0.4065
  390TIP3   OH222804   4.188   5.238   0.688 -0.6255  0.3927  0.0240
  390TIP3    H122805   4.265   5.295   0.683  0.2883 -0.6727  1.3865
  390TIP3    H222806   4.115   5.295   0.663  0.2228  2.2197  1.4362
  391TIP3   OH222807   2.015   4.689   7.100  0.0384 -0.1970  0.4303
  391TIP3    H122808   1.996   4.661   7.189  0.6558 -1.7292  0.1081
  391TIP3    H222809   1.929   4.709   7.062 -0.6635 -3.0131  0.2768
  392TIP3   OH222810   2.794   0.718   1.813  0.0011 -0.2700  0.2475
  392TIP3    H122811   2.854   0.790   1.791  1.6384 -1.8184 -0.6332
  392TIP3    H222812   2.739   0.709   1.735 -1.8459  1.4843  1.2462
  393TIP3   OH222813   5.674   6.554   8.802 -0.3928 -0.1647 -0.1874
  393TIP3    H122814   5.641   6.643   8.815  0.4291 -0.0838  1.6331
  393TIP3    H222815   5.768   6.561   8.815 -0.6230 -1.8929  4.5372
  394TIP3   OH222816   6.004   4.683   7.844 -0.3174 -0.8911  0.4552
  394TIP3    H122817   5.959   4.603   7.870  0.9154 -2.1938 -1.2198
  394TIP3    H222818   6.024   4.671   7.751 -1.7763  2.2135 -0.3821
  395TIP3   OH222819   3.386   2.522   0.417 -0.0113  0.3315  0.6755
  395TIP3    H122820   3.462   2.487   0.370  0.5650 -1.9021  3.0325
  395TIP3    H222821   3.349   2.587   0.357  1.3205 -1.4265 -2.3314
  396TIP3   OH222822   2.012   3.262   1.485  0.4364  0.6772 -0.4379
  396TIP3    H122823   2.014   3.168   1.468  3.4473  0.2324  1.4486
  396TIP3    H222824   2.061   3.301   1.412 -1.9146  1.0208 -1.9095
  397TIP3   OH222825   0.964   4.891   7.184 -0.3616 -0.5820 -0.4409
  397TIP3    H122826   0.972   4.829   7.111 -0.9741 -1.1148 -0.0606
  397TIP3    H222827   0.883   4.939   7.166  0.0793  0.0836 -0.7041
  398TIP3   OH222828   5.635   3.552   7.708  0.0733  0.1065 -0.1923
  398TIP3    H122829   5.555   3.540   7.657  0.2062  1.8014 -0.8589
  398TIP3    H222830   5.689   3.609   7.654  1.1132  0.2183  0.9282
  399TIP3   OH222831   0.332   3.222   1.619  0.1794 -0.1747  0.5752
  399TIP3    H122832   0.308   3.140   1.662  0.4330 -0.9466 -0.7021
  399TIP3    H222833   0.307   3.209   1.527  1.4921  0.6359  0.0702
  400TIP3   OH222834   5.684   5.229   8.397 -0.2517 -0.2564 -0.1545
  400TIP3    H122835   5.696   5.147   8.348 -0.3187 -0.5257  0.2764
  400TIP3    H222836   5.732   5.216   8.478 -1.4896 -0.4492  0.5776
  401TIP3   OH222837   0.262   4.147   7.182 -0.0144  0.7494 -0.6032
  401TIP3    H122838   0.189   4.085   7.192  1.1008 -0.7958 -1.5716
  401TIP3    H222839   0.250   4.210   7.253 -0.7849 -1.0497  0.9491
  402TIP3   OH222840   6.221   5.913   1.593 -0.9408 -0.2947 -0.3381
  402TIP3    H122841   6.308   5.883   1.621 -1.0021  0.1031  0.3100
  402TIP3    H222842   6.173   5.833   1.573 -0.4043 -0.5165 -0.7572
  403TIP3   OH222843   3.107   5.973   8.108  0.5734  0.2774  0.1559
  403TIP3    H122844   3.012   5.979   8.115  0.5377  1.1146 -0.8005
  403TIP3    H222845   3.136   6.064   8.099  1.3726 -0.0339 -0.5476
  404TIP3   OH222846   0.499   2.862   0.031  0.0895  0.4926  0.2318
  404TIP3    H122847   0.544   2.802  -0.028  0.3145  0.7303  0.1572
  404TIP3    H222848   0.493   2.944  -0.019 -1.6542  0.0844 -0.2956
  405TIP3   OH222849   1.879   5.284   8.087  0.1344  0.6342 -0.4788
  405TIP3    H122850   1.793   5.243   8.100  0.4176  0.1252 -0.2297
  405TIP3    H222851   1.869   5.332   8.005  0.1229 -0.7722 -1.3207
  406TIP3   OH222852   6.353   6.559   1.670 -0.2843  0.4144  0.4831
  406TIP3    H122853   6.389   6.623   1.730  0.0078  0.2529  0.4806
  406TIP3    H222854   6.298   6.610   1.610 -0.1027  0.6505  0.5190
  407TIP3   OH222855   6.075   4.970   0.875 -0.1773  0.6743  0.4243
  407TIP3    H122856   6.101   4.880   0.895 -0.7343  0.3742 -0.1775
  407TIP3    H222857   6.157   5.014   0.852 -0.1420 -0.3008 -1.5830
  408TIP3   OH222858   6.513   1.790   1.347 -0.4826  0.1522 -0.0309
  408TIP3    H122859   6.567   1.810   1.423 -0.5647  1.1733 -0.2268
  408TIP3    H222860   6.466   1.872   1.328 -1.8670 -0.6198 -0.0543
  409TIP3   OH222861   4.538   4.829   8.481  0.0092 -0.2547  0.3439
  409TIP3    H122862   4.595   4.754   8.497 -1.9166 -1.7835  0.3212
  409TIP3    H222863   4.526   4.830   8.386  2.0999  1.7442  0.0115
  410TIP3   OH222864   3.380   4.483   5.948 -0.5648  0.3985 -0.1060
  410TIP3    H122865   3.367   4.390   5.929 -2.5784  0.8556 -1.2158
  410TIP3    H222866   3.392   4.486   6.043  0.5720 -1.0640 -0.1573
  411TIP3   OH222867   6.379   5.242   1.593 -0.2401 -0.0833  0.6985
  411TIP3    H122868   6.290   5.253   1.627 -0.3711 -0.6291  0.5320
  411TIP3    H222869   6.370   5.180   1.521 -0.0710  1.5189 -0.7914
  412TIP3   OH222870   0.299   6.378   1.865  0.0214 -0.0807 -0.5905
  412TIP3    H122871   0.251   6.456   1.892  0.9463  0.2784  0.0567
  412TIP3    H222872   0.306   6.386   1.770  1.6852  1.5781 -0.3805
  413TIP3   OH222873   2.140   0.276   0.952 -0.4269  0.2804  0.1366
  413TIP3    H122874   2.178   0.325   0.879 -0.9563  0.0022 -0.3391
  413TIP3    H222875   2.103   0.343   1.009 -1.2447  0.4561 -0.5663
  414TIP3   OH222876   1.025   4.377   7.155  0.3466 -0.2891  0.0391
  414TIP3    H122877   1.098   4.358   7.096  0.1552  0.9972 -0.6455
  414TIP3    H222878   0.961   4.309   7.136 -0.5469  1.1879 -2.7312
  415TIP3   OH222879   1.403   6.323   1.561 -0.4562  0.0501 -0.4333
  415TIP3    H122880   1.439   6.238   1.537 -2.0478 -0.6982 -0.2628
  415TIP3    H222881   1.348   6.348   1.487 -0.9512  0.3693  0.0349
  416TIP3   OH222882   5.951   0.391   0.611  0.0560 -0.0665  0.4702
  416TIP3    H122883   5.962   0.332   0.536  0.7339 -1.5421  1.6679
  416TIP3    H222884   6.035   0.436   0.619 -0.0792  0.2271  0.2265
  417TIP3   OH222885   3.847   4.149   6.628 -0.1782  0.2220  0.0113
  417TIP3    H122886   3.831   4.196   6.547  1.8474  0.7842 -0.1266
  417TIP3    H222887   3.877   4.062   6.600 -0.2260  0.1502  0.1780
  418TIP3   OH222888   6.428   4.265   7.959 -0.1057  0.2603  0.2459
  418TIP3    H122889   6.473   4.309   7.887  0.5792 -0.4055  0.2566
  418TIP3    H222890   6.349   4.317   7.973 -0.7391 -0.1146 -1.6275
  419TIP3   OH222891   0.620   4.556   0.611  0.7938 -0.6048 -0.2390
  419TIP3    H122892   0.639   4.580   0.520  1.7080 -0.0766  0.0760
  419TIP3    H222893   0.564   4.478   0.604 -0.6445  0.4494 -1.2795
  420TIP3   OH222894   4.780   6.336   8.507 -0.4678 -0.1793  0.5300
  420TIP3    H122895   4.732   6.357   8.587 -1.2282 -0.4280  0.1481
  420TIP3    H222896   4.774   6.416   8.454 -0.2154 -0.1155  0.5947
  421TIP3   OH222897   1.472   5.326   0.360 -0.0306 -0.2420  0.6049
  421TIP3    H122898   1.501   5.406   0.403 -1.0108  0.1904  0.4901
  421TIP3    H222899   1.379   5.318   0.383 -0.2811 -0.6244 -0.4528
  422TIP3   OH222900   3.417   1.223   8.417  0.3070  0.6039 -0.6882
  422TIP3    H122901   3.439   1.153   8.478  1.7764  1.6715  0.0843
  422TIP3    H222902   3.444   1.304   8.462 -1.3779  1.6820 -1.5265
  423TIP3   OH222903   2.843   6.786   1.630 -0.6014 -0.7979 -0.0126
  423TIP3    H122904   2.848   6.696   1.661  0.9700 -0.1700  1.8034
  423TIP3    H222905   2.934   6.809   1.609 -0.4381  1.2024  2.3610
  424TIP3   OH222906   0.291   2.060   6.177 -0.4601  0.2524  0.4104
  424TIP3    H122907   0.225   1.996   6.150  0.1425  0.1917 -0.9608
  424TIP3    H222908   0.365   2.007   6.207 -0.0533  0.2972 -0.4969
  425TIP3   OH222909   0.543   0.662   6.632  0.4678  0.2692 -0.6235
  425TIP3    H122910   0.531   0.584   6.687  1.0053  1.1287  0.7815
  425TIP3    H222911   0.570   0.628   6.547 -1.2282 -1.1663 -0.6435
  426TIP3   OH222912   4.318   3.053   6.326 -0.4727 -0.2340 -0.0777
  426TIP3    H122913   4.408   3.021   6.334 -0.0909  0.5687 -0.8299
  426TIP3    H222914   4.327   3.149   6.332 -0.8875  0.0700 -2.8120
  427TIP3   OH222915   4.388   3.405   1.502  0.5236 -0.6889 -0.2257
  427TIP3    H122916   4.299   3.405   1.537  1.1244  0.8840  1.4790
  427TIP3    H222917   4.396   3.490   1.458  0.6906 -1.5032 -1.8265
  428TIP3   OH222918   1.563   1.779   0.727 -0.7780 -0.3657  0.6873
  428TIP3    H122919   1.532   1.791   0.638  0.0549 -0.4745  0.3738
  428TIP3    H222920   1.489   1.741   0.773 -1.3206 -0.0022  0.1255
  429TIP3   OH222921   0.679   4.843   0.040 -0.1028 -0.3612 -0.2260
  429TIP3    H122922   0.736   4.788  -0.014 -1.4551 -0.7577 -1.3185
  429TIP3    H222923   0.670   4.924  -0.010 -4.1638 -1.9523 -2.5981
  430TIP3   OH222924   2.890   2.694   6.561  0.1818 -0.4468  0.2473
  430TIP3    H122925   2.896   2.711   6.468  0.0140 -1.2982  0.0659
  430TIP3    H222926   2.841   2.612   6.567  0.1217 -0.3620  1.0846
  431TIP3   OH222927   4.032   3.959   7.045 -0.0657 -0.0283  0.6453
  431TIP3    H122928   4.031   4.048   7.011 -1.5297 -0.0468  0.5900
  431TIP3    H222929   4.014   3.969   7.139 -0.8481 -0.3029  0.5275
  432TIP3   OH222930   2.488   6.721   1.596  0.0996  0.2756 -0.1486
  432TIP3    H122931   2.493   6.635   1.637 -1.5193 -0.1016 -0.6695
  432TIP3    H222932   2.458   6.704   1.507 -1.9819  1.4648  0.2616
  433TIP3   OH222933   1.637   2.479   6.275 -0.1679 -0.0893 -0.1719
  433TIP3    H122934   1.692   2.516   6.343 -1.0139  0.9879 -0.0403
  433TIP3    H222935   1.632   2.385   6.295 -0.0239  0.1388  0.9661
  434TIP3   OH222936   2.224   1.056   1.284  0.4252 -0.2654 -0.4025
  434TIP3    H122937   2.174   1.111   1.344  2.3509  1.8832 -0.6465
  434TIP3    H222938   2.165   1.044   1.209 -0.6754  0.0137  0.3903
  435TIP3   OH222939   5.683   3.218   7.263 -0.0616  0.4358 -0.8106
  435TIP3    H122940   5.752   3.170   7.309  0.2642 -0.2400 -1.9650
  435TIP3    H222941   5.643   3.272   7.331  0.9707  0.1278  0.0812
  436TIP3   OH222942   1.149   2.796   1.358  0.1634 -0.3790  0.3612
  436TIP3    H122943   1.088   2.836   1.296  1.4005  0.7640 -0.1813
  436TIP3    H222944   1.099   2.726   1.399 -1.4490  0.4024 -0.1750
  437TIP3   OH222945   4.731   3.531   7.387  0.0678 -0.3703  0.5157
  437TIP3    H122946   4.742   3.527   7.482 -1.0926 -0.6427  0.6595
  437TIP3    H222947   4.779   3.455   7.354  1.5583  0.4281  0.7437
  438TIP3   OH222948   1.671   3.424   8.802 -0.1405  0.0245 -0.4708
  438TIP3    H122949   1.665   3.345   8.748  2.3144  0.2049 -1.1169
  438TIP3    H222950   1.620   3.489   8.753 -1.1019 -0.7942 -0.5972
  439TIP3   OH222951   4.951   6.522   6.389  0.1863  0.1049 -0.6795
  439TIP3    H122952   4.861   6.525   6.421  0.5718 -0.8606  0.5434
  439TIP3    H222953   4.999   6.585   6.442  0.5344 -0.4658 -0.3043
  440TIP3   OH222954   0.997   2.684   7.867  0.0587  0.4489 -0.0243
  440TIP3    H122955   1.008   2.600   7.824 -3.1531 -0.4928  0.7468
  440TIP3    H222956   1.014   2.749   7.798  0.9930 -0.8146 -1.0329
  441TIP3   OH222957   6.071   1.818   8.243 -0.5332 -0.3077  0.0291
  441TIP3    H122958   6.053   1.861   8.160 -0.6699 -0.3132  0.0560
  441TIP3    H222959   6.039   1.728   8.231 -1.0953 -0.1437  0.2894
  442TIP3   OH222960   6.510   3.000   1.726 -0.4703 -0.8214  0.3454
  442TIP3    H122961   6.439   2.936   1.732 -0.5107 -0.7184  1.0421
  442TIP3    H222962   6.541   2.993   1.636 -1.8063 -0.4074 -0.1807
  443TIP3   OH222963   1.848   0.220   0.964 -0.3458 -0.1445 -0.4303
  443TIP3    H122964   1.819   0.279   1.035  0.6625  1.9621 -1.6610
  443TIP3    H222965   1.943   0.233   0.959 -0.0079 -2.2592 -0.4960
  444TIP3   OH222966   1.288   4.827   1.223 -0.1705  1.0202  0.2086
  444TIP3    H122967   1.325   4.903   1.179  0.3388  0.4357 -0.4047
  444TIP3    H222968   1.339   4.818   1.303  1.3833 -0.0385 -0.8380
  445TIP3   OH222969   3.143   0.852   1.809 -0.1892  0.2129  0.3891
  445TIP3    H122970   3.094   0.806   1.877 -0.7113 -0.8479 -0.6740
  445TIP3    H222971   3.235   0.831   1.826 -0.2917  0.2055  0.9318
  446TIP3   OH222972   4.767   3.521   2.744 -0.0502 -0.2926  0.4227
  446TIP3    H122973   4.852   3.481   2.731  0.1591  0.4543 -0.7434
  446TIP3    H222974   4.785   3.603   2.790 -0.1209 -0.1137  0.1384
  447TIP3   OH222975   1.667   1.931   2.550  0.1213  0.4797  0.3808
  447TIP3    H122976   1.672   1.995   2.621  0.5640 -0.0600  0.8413
  447TIP3    H222977   1.580   1.892   2.560 -0.2334  1.1262 -0.0236
  448TIP3   OH222978   5.181   6.604   0.806 -0.1971  0.5966  0.0721
  448TIP3    H122979   5.189   6.672   0.873  1.2033  1.1021 -0.5799
  448TIP3    H222980   5.234   6.531   0.841 -2.0513 -0.3826  0.9835
  449TIP3   OH222981   0.633   4.985   8.148  0.0942  0.1968  0.1736
  449TIP3    H122982   0.601   4.975   8.059 -3.2133  1.6037  1.0683
  449TIP3    H222983   0.704   5.049   8.141  0.5266 -0.4324 -1.5302
  450TIP3   OH222984   4.300   1.053   7.821 -0.2031 -0.5089 -0.2520
  450TIP3    H122985   4.290   1.147   7.806  1.2834 -0.1311  0.8267
  450TIP3    H222986   4.251   1.036   7.901 -3.2385 -1.3673 -2.1393
  451TIP3   OH222987   0.285   2.481   1.363  0.0004 -0.0477  0.6192
  451TIP3    H122988   0.367   2.522   1.334  0.7151 -0.6055  1.7697
  451TIP3    H222989   0.313   2.400   1.405 -0.8547  1.0988  3.6328
  452TIP3   OH222990   5.402   1.645   8.296 -0.0425 -0.2544 -0.5005
  452TIP3    H122991   5.482   1.615   8.338 -0.5150  1.9954  2.2748
  452TIP3    H222992   5.421   1.734   8.267 -0.6228 -0.7922 -2.7747
  453TIP3   OH222993   1.759   2.497   0.756  0.2876  0.1773 -0.2889
  453TIP3    H122994   1.742   2.468   0.846  1.6302 -0.0470 -0.0833
  453TIP3    H222995   1.790   2.418   0.711 -2.5123 -0.2717 -1.6080
  454TIP3   OH222996   2.131   4.711   0.074 -0.4429 -0.4125 -0.0292
  454TIP3    H122997   2.224   4.693   0.090  0.0183 -0.0633 -2.0791
  454TIP3    H222998   2.085   4.638   0.116  0.8136 -1.0778  0.2470
  455TIP3   OH222999   1.069   4.057   7.231 -0.0739 -0.5988  0.0781
  455TIP3    H123000   0.992   4.001   7.224  0.2832 -1.1189  0.2266
  455TIP3    H223001   1.071   4.106   7.148 -1.0987  0.1417  0.4651
  456TIP3   OH223002   4.799   1.268   6.979  0.1360 -0.1841  0.1279
  456TIP3    H123003   4.796   1.350   7.027 -0.6527  0.5092 -1.0763
  456TIP3    H223004   4.821   1.293   6.889  2.1772 -1.4996  0.1777
  457TIP3   OH223005   6.769   4.434   7.169 -0.4635 -0.0093 -0.4473
  457TIP3    H123006   6.776   4.416   7.263 -1.1532 -0.3212 -0.4496
  457TIP3    H223007   6.723   4.518   7.165 -0.7186 -0.1509 -0.5095
  458TIP3   OH223008   1.843   5.823   7.808  0.2559  0.1663  0.7649
  458TIP3    H123009   1.907   5.852   7.872  0.3426 -1.6135  1.5242
  458TIP3    H223010   1.895   5.789   7.735  0.1669  0.3954  0.5938
  459TIP3   OH223011   4.882   3.307   2.889 -0.3517 -0.1369  0.0114
  459TIP3    H123012   4.807   3.365   2.896 -1.4352 -1.4323 -0.3523
  459TIP3    H223013   4.901   3.302   2.795 -1.4640 -1.7609 -0.1748
  460TIP3   OH223014   2.208   1.736   1.611  0.2439 -0.0999 -0.5862
  460TIP3    H123015   2.273   1.793   1.654 -0.4957 -0.3923  0.9811
  460TIP3    H223016   2.226   1.649   1.645  0.9015 -0.7363 -2.4272
  461TIP3   OH223017   1.159   3.045   8.322 -1.1153  0.5844  0.3816
  461TIP3    H123018   1.207   2.968   8.351 -0.1347  0.7013 -0.8335
  461TIP3    H223019   1.180   3.113   8.386 -0.0406  0.4935  0.1409
  462TIP3   OH223020   5.406   6.149   8.553 -0.1173 -0.0707  0.0044
  462TIP3    H123021   5.347   6.073   8.557 -0.1014 -0.0633  0.4885
  462TIP3    H223022   5.388   6.189   8.468 -0.1771 -0.5751 -0.2253
  463TIP3   OH223023   3.559   0.877   1.630  0.2108  0.1110  0.1449
  463TIP3    H123024   3.572   0.786   1.656 -1.1873 -0.1615 -0.0554
  463TIP3    H223025   3.627   0.893   1.564  0.1158 -0.9581 -0.2238
  464TIP3   OH223026   5.960   3.298   8.119 -0.1920 -0.1095 -0.6101
  464TIP3    H123027   6.055   3.304   8.104 -0.3930  0.1490 -1.9027
  464TIP3    H223028   5.922   3.301   8.032 -1.2189 -4.2494 -0.5289
  465TIP3   OH223029   0.554   0.759   8.083 -0.6376  0.4063 -0.0013
  465TIP3    H123030   0.470   0.712   8.081 -1.0172  1.0447 -2.8576
  465TIP3    H223031   0.530   0.851   8.092 -0.1645  0.4850  0.5044
  466TIP3   OH223032   1.221   4.681   0.931 -0.0116 -0.4547  0.0583
  466TIP3    H123033   1.310   4.647   0.945  0.2048 -0.7313 -1.7640
  466TIP3    H223034   1.188   4.632   0.855 -1.3702  0.3194  0.1138
  467TIP3   OH223035   0.431   6.323   1.061 -0.2631  1.1940  0.8076
  467TIP3    H123036   0.389   6.393   1.011  0.0653  0.7471 -0.1217
  467TIP3    H223037   0.424   6.246   1.004 -1.3779  0.2435  2.1672
  468TIP3   OH223038   0.374   0.015   6.471  0.0759  0.0505 -0.0907
  468TIP3    H123039   0.322   0.009   6.391 -2.2822  0.2426  1.3372
  468TIP3    H223040   0.380  -0.076   6.502 -0.3128  0.1511  0.2832
  469TIP3   OH223041   3.369   4.825   1.202 -0.1674  0.1455 -0.1635
  469TIP3    H123042   3.313   4.862   1.134 -0.3036  1.1219  0.4527
  469TIP3    H223043   3.313   4.762   1.248 -0.7169  0.9865  0.3363
  470TIP3   OH223044   3.367   3.557   1.193  0.1105  0.0845 -0.0609
  470TIP3    H123045   3.423   3.481   1.176 -1.0124 -0.7153 -0.2919
  470TIP3    H223046   3.320   3.571   1.111 -0.1479  0.6347  0.1786
  471TIP3   OH223047   5.069   0.793   1.404  0.5829  0.1980 -0.2801
  471TIP3    H123048   5.084   0.853   1.478  1.5697 -1.2156  0.7318
  471TIP3    H223049   4.999   0.834   1.354 -0.9672  0.6659  2.0953
  472TIP3   OH223050   2.812   4.676   7.969  0.2177 -0.2243  0.7804
  472TIP3    H123051   2.734   4.624   7.946  1.1481 -0.6633 -1.5812
  472TIP3    H223052   2.825   4.657   8.062 -2.0094 -0.7623  1.0589
  473TIP3   OH223053   6.203   6.081   8.145 -0.6512  0.0032 -0.4451
  473TIP3    H123054   6.273   6.119   8.198  0.5401 -1.2086 -1.0916
  473TIP3    H223055   6.155   6.157   8.111  0.3893  0.8661 -0.0447
  474TIP3   OH223056   2.416   0.320   0.414 -0.4255  0.2231 -0.2095
  474TIP3    H123057   2.376   0.291   0.496  1.1645 -1.5244  0.0241
  474TIP3    H223058   2.433   0.413   0.427 -1.8715  0.3964  0.6990
  475TIP3   OH223059   4.599   5.557   0.260  0.1329 -0.0915 -0.3678
  475TIP3    H123060   4.556   5.565   0.175 -0.5013  0.2574 -0.0213
  475TIP3    H223061   4.693   5.561   0.241  0.0121 -0.5731 -1.1043
  476TIP3   OH223062   6.485   2.404   0.459 -0.3832 -0.7073  0.1896
  476TIP3    H123063   6.549   2.333   0.466 -0.4694 -0.7255  0.9151
  476TIP3    H223064   6.457   2.403   0.367  1.9979  0.4708 -0.6266
  477TIP3   OH223065   0.464   0.355   7.164 -0.2183  0.0159 -0.1448
  477TIP3    H123066   0.528   0.344   7.093 -0.7077  3.8680 -1.4442
  477TIP3    H223067   0.516   0.351   7.244  1.5300  1.6229 -1.0992
  478TIP3   OH223068   1.626   5.889   8.321  0.4004 -0.2764  0.3379
  478TIP3    H123069   1.701   5.839   8.351  0.3154  0.9767  2.9612
  478TIP3    H223070   1.607   5.950   8.393 -1.5071  1.2469 -1.3130
  479TIP3   OH223071   2.082   5.153   0.612 -0.0131  0.0125 -0.6672
  479TIP3    H123072   2.136   5.212   0.560  1.9618  1.1576  2.3864
  479TIP3    H223073   2.098   5.180   0.703 -1.7059 -3.0520  0.6911
  480TIP3   OH223074   5.115   5.587   7.588  0.5661 -0.0768  0.0880
  480TIP3    H123075   5.040   5.529   7.572  0.6324 -0.0656 -0.2776
  480TIP3    H223076   5.157   5.596   7.502  1.1277 -0.2742  0.3367
  481TIP3   OH223077   1.458   2.810   0.673 -0.1746  0.0070 -0.4803
  481TIP3    H123078   1.535   2.753   0.681 -1.1317 -1.1804  0.8157
  481TIP3    H223079   1.492   2.891   0.634  1.9274 -0.0651  1.0337
  482TIP3   OH223080   5.613   6.130   1.915 -0.1951 -0.0445  0.1508
  482TIP3    H123081   5.523   6.149   1.939 -0.5477 -0.3324 -0.8964
  482TIP3    H223082   5.618   6.035   1.913 -0.3305 -0.0491 -1.3646
  483TIP3   OH223083   0.640   3.621   6.883 -0.1553 -0.3801 -0.0875
  483TIP3    H123084   0.545   3.620   6.897 -0.3730  1.0388 -1.2304
  483TIP3    H223085   0.654   3.568   6.805  0.1116 -1.2788  0.5520
  484TIP3   OH223086   1.621   4.994   6.490 -0.5022  0.2804  0.3107
  484TIP3    H123087   1.542   4.995   6.436 -0.6817 -0.0249  0.5653
  484TIP3    H223088   1.598   4.940   6.566  0.1744 -0.3998  0.0452
  485TIP3   OH223089   5.766   2.603   8.730 -0.1821  0.0909  0.3523
  485TIP3    H123090   5.848   2.561   8.702 -0.0681 -1.2842  2.4846
  485TIP3    H223091   5.725   2.538   8.787 -1.7400  1.5836  1.0018
  486TIP3   OH223092   5.080   1.908   0.302 -0.1254 -0.4077 -0.6413
  486TIP3    H123093   5.138   1.974   0.264 -1.2162  1.0953  0.2540
  486TIP3    H223094   4.992   1.942   0.291 -0.5919 -0.5381  1.9463
  487TIP3   OH223095   4.009   2.959   0.645 -0.0510  0.1475  0.7495
  487TIP3    H123096   4.012   2.868   0.674  0.1803  0.1196  0.6374
  487TIP3    H223097   4.024   3.010   0.725 -0.2756  0.0915  0.8289
  488TIP3   OH223098   4.741   6.771   0.437 -0.1542 -0.4498  0.3193
  488TIP3    H123099   4.750   6.759   0.343  0.6485  0.7442  0.2123
  488TIP3    H223100   4.826   6.745   0.473 -0.1039  0.0579  0.5890
  489TIP3   OH223101   6.592   0.499   6.678  0.5441 -0.3507  0.2398
  489TIP3    H123102   6.586   0.410   6.713  3.5819 -0.6963  0.0759
  489TIP3    H223103   6.640   0.548   6.745  0.5726  0.6970 -0.5244
  490TIP3   OH223104   1.828   2.705   1.243  0.3860 -0.4898 -0.0595
  490TIP3    H123105   1.817   2.623   1.291 -0.0609 -0.4957 -0.1662
  490TIP3    H223106   1.756   2.706   1.180  1.8202 -1.1675 -1.7459
  491TIP3   OH223107   4.859   1.669   8.778 -0.0158 -0.0356  0.2718
  491TIP3    H123108   4.918   1.655   8.852  0.2147 -0.9162 -0.0665
  491TIP3    H223109   4.898   1.743   8.731 -1.2839  1.9302  2.1246
  492TIP3   OH223110   4.542   4.814   0.096  0.2905  0.2467 -0.1343
  492TIP3    H123111   4.490   4.812   0.176  0.0337 -0.2223 -0.3106
  492TIP3    H223112   4.521   4.899   0.056 -1.3090 -0.4227 -0.8220
  493TIP3   OH223113   4.011   4.931   6.489  0.0444  0.4007  0.2920
  493TIP3    H123114   4.015   5.011   6.435 -0.8960  1.3959  1.6398
  493TIP3    H223115   3.942   4.948   6.553 -0.0954 -1.4689  0.6965
  494TIP3   OH223116   5.322   5.337   8.737  0.3039 -0.5842  0.2946
  494TIP3    H123117   5.400   5.322   8.790  1.2009  0.3773 -0.6988
  494TIP3    H223118   5.332   5.277   8.662  0.5221  0.1345 -0.2616
  495TIP3   OH223119   2.036   2.826   8.295 -0.4104 -0.3536  0.1995
  495TIP3    H123120   2.102   2.894   8.280  0.9585 -2.2025 -3.3143
  495TIP3    H223121   1.961   2.852   8.242 -0.3068 -0.9855 -0.2749
  496TIP3   OH223122   1.521   4.721   6.939  0.4456 -0.0785 -0.1050
  496TIP3    H123123   1.452   4.669   6.980  0.0021  0.7193  0.1891
  496TIP3    H223124   1.547   4.671   6.862 -1.5745  0.3235 -1.1209
  497TIP3   OH223125   2.764   6.329   7.296 -0.1749  0.0393  0.5615
  497TIP3    H123126   2.681   6.336   7.248 -0.0742  1.6450  0.5754
  497TIP3    H223127   2.759   6.243   7.338 -1.7300 -0.0080  0.3620
  498TIP3   OH223128   6.128   3.031   7.290  0.3378 -0.5797  0.1520
  498TIP3    H123129   6.202   3.010   7.347 -0.0358  0.2233  0.9563
  498TIP3    H223130   6.079   2.949   7.285  0.7602 -0.8537  0.4128
  499TIP3   OH223131   2.841   5.693   7.911 -0.4978  0.3661 -0.1582
  499TIP3    H123132   2.782   5.749   7.861  0.6780  1.2890 -0.5675
  499TIP3    H223133   2.847   5.612   7.860 -2.6514 -0.4226  0.7176
  500TIP3   OH223134   3.680   3.951   7.303  0.5540  0.3658 -0.2122
  500TIP3    H123135   3.673   3.942   7.208  1.4814 -1.0766 -0.1767
  500TIP3    H223136   3.746   3.886   7.328 -0.2378  0.1850  1.5127
  501TIP3   OH223137   1.061   4.502   0.358 -0.0520  0.6898  0.1927
  501TIP3    H123138   1.153   4.526   0.367 -0.0907  1.4554 -1.1523
  501TIP3    H223139   1.018   4.582   0.328 -1.2199  0.4134  1.0443
  502TIP3   OH223140   5.747   2.928   8.121  0.4908  0.0245 -0.3566
  502TIP3    H123141   5.838   2.918   8.148  0.3849  1.2128  0.5587
  502TIP3    H223142   5.740   2.878   8.040  1.8903 -0.2754 -0.3219
  503TIP3   OH223143   2.850   4.479   1.380  0.2506  0.6989  0.6570
  503TIP3    H123144   2.900   4.410   1.336  0.2603  0.7406  0.6014
  503TIP3    H223145   2.759   4.464   1.353 -0.1663 -0.9078  2.7458
  504TIP3   OH223146   2.583   6.070   6.427  0.0603  0.1345  0.7142
  504TIP3    H123147   2.487   6.068   6.425  0.0026  0.6333  2.2616
  504TIP3    H223148   2.609   5.988   6.383 -1.0282  0.4071 -0.5104
  505TIP3   OH223149   5.457   3.292   0.943 -0.1279  0.3806  0.2536
  505TIP3    H123150   5.465   3.304   0.848  1.3535 -0.3517  0.2623
  505TIP3    H223151   5.477   3.378   0.979 -0.3756  0.5821 -0.0814
  506TIP3   OH223152   2.562   6.419   8.496  0.4226 -0.7076  0.1812
  506TIP3    H123153   2.564   6.511   8.469  1.2919 -0.3718  1.3123
  506TIP3    H223154   2.518   6.374   8.424 -1.7205  0.8445  0.4270
  507TIP3   OH223155   4.123   2.481   7.908 -0.9546  0.2136 -0.0352
  507TIP3    H123156   4.218   2.473   7.906 -0.9985 -1.2916  1.4168
  507TIP3    H223157   4.106   2.568   7.943  0.0089 -0.7105  3.1036
  508TIP3   OH223158   0.568   6.066   0.676  0.6677  0.1813  0.3001
  508TIP3    H123159   0.644   6.008   0.672  0.3259 -0.1942 -1.8907
  508TIP3    H223160   0.493   6.007   0.671  0.2671  0.6779  0.4219
  509TIP3   OH223161   2.661   6.686   0.732  0.5268 -0.3178  0.0631
  509TIP3    H123162   2.608   6.742   0.675  1.5555  1.2010  0.5540
  509TIP3    H223163   2.706   6.746   0.790 -0.2261 -1.8061  2.3134
  510TIP3   OH223164   2.070   3.304   0.925 -0.0276  0.1432  0.8092
  510TIP3    H123165   2.110   3.384   0.958  0.1606  0.5189 -0.2804
  510TIP3    H223166   1.997   3.286   0.984  0.8495  0.2763  1.9450
  511TIP3   OH223167   2.353   3.018   7.362  0.4725 -0.1833  0.2521
  511TIP3    H123168   2.338   3.004   7.455  1.9556  3.9741  1.3280
  511TIP3    H223169   2.281   3.075   7.334 -0.3557 -1.9165 -1.4563
  512TIP3   OH223170   4.582   5.309   8.326 -0.1369  0.0698 -0.2371
  512TIP3    H123171   4.647   5.278   8.263  0.0153 -0.6473  0.2621
  512TIP3    H223172   4.510   5.342   8.272  0.6278  0.8829 -0.7980
  513TIP3   OH223173   2.829   5.233   0.715  0.4360 -0.3558  0.2922
  513TIP3    H123174   2.881   5.189   0.783  0.4877 -0.8485 -0.0562
  513TIP3    H223175   2.886   5.302   0.682  0.3277  0.0294  0.9012
  514TIP3   OH223176   3.878   3.088   6.543  0.2015  0.5327  0.0689
  514TIP3    H123177   3.965   3.048   6.553  0.5789  1.2952 -0.1235
  514TIP3    H223178   3.829   3.024   6.491 -0.1089 -1.0046  2.1012
  515TIP3   OH223179   5.751   2.019   0.792  0.3461 -0.4711  0.6002
  515TIP3    H123180   5.803   1.956   0.842 -0.1781 -1.5075 -0.1261
  515TIP3    H223181   5.689   1.965   0.743 -0.4150  0.6466  0.3003
  516TIP3   OH223182   3.535   5.783   7.423  0.1801  0.1175  0.5411
  516TIP3    H123183   3.575   5.699   7.401 -0.6531 -0.2130  0.2573
  516TIP3    H223184   3.597   5.822   7.486  1.7287  0.3343 -1.0386
  517TIP3   OH223185   3.548   3.339   8.451 -0.3236 -0.2860  0.2684
  517TIP3    H123186   3.568   3.367   8.361  0.5837 -0.4090  0.4237
  517TIP3    H223187   3.495   3.260   8.440 -2.8173  1.3367 -0.1739
  518TIP3   OH223188   1.853   3.636   1.622  0.2885  0.1748  0.5124
  518TIP3    H123189   1.794   3.600   1.689 -0.8593  0.2403 -0.4378
  518TIP3    H223190   1.907   3.561   1.596  1.3231  0.3310  2.0649
  519TIP3   OH223191   2.238   6.086   0.890 -0.0528 -0.2258 -0.4169
  519TIP3    H123192   2.222   6.065   0.982  0.4855  1.0714 -0.0026
  519TIP3    H223193   2.333   6.090   0.883 -0.1028  0.4469 -0.8274
  520TIP3   OH223194   6.336   5.099   0.540  0.1489 -0.3496 -0.6949
  520TIP3    H123195   6.345   5.170   0.477  0.2843  0.4849  0.2357
  520TIP3    H223196   6.322   5.143   0.624 -1.1183 -1.4466 -0.2993
  521TIP3   OH223197   3.361   0.030   0.957  0.4104 -0.0122 -0.5856
  521TIP3    H123198   3.397   0.043   0.869  1.5983 -1.9630 -0.4503
  521TIP3    H223199   3.432   0.052   1.016 -0.2532  0.8916 -0.0990
  522TIP3   OH223200   0.748   0.247   0.828  0.5164 -0.1371  0.5995
  522TIP3    H123201   0.702   0.316   0.781  0.9628  0.3183  0.8272
  522TIP3    H223202   0.768   0.285   0.914  0.8197 -0.5226  0.7019
  523TIP3   OH223203   3.061   0.124   7.340 -0.1341  0.6507 -0.0462
  523TIP3    H123204   3.058   0.043   7.391 -0.1312  1.3161  1.0197
  523TIP3    H223205   3.150   0.126   7.304 -0.5251 -0.4578 -1.1713
  524TIP3   OH223206   1.148   2.105   0.317  0.1480  0.3491  0.0292
  524TIP3    H123207   1.116   2.032   0.264 -2.1407 -0.0444  1.7556
  524TIP3    H223208   1.119   2.183   0.270 -1.1130  0.0267  0.2311
  525TIP3   OH223209   2.278   4.101   1.220 -1.0678 -0.2382 -0.2393
  525TIP3    H123210   2.211   4.145   1.273 -1.4057  1.1398 -1.7117
  525TIP3    H223211   2.301   4.023   1.270 -4.2516 -1.1421  0.0173
  526TIP3   OH223212   2.762   6.303   6.424  0.5677 -0.4258 -0.4591
  526TIP3    H123213   2.698   6.232   6.420 -1.0305  0.8372  0.9170
  526TIP3    H223214   2.709   6.382   6.411  1.1727  0.9581  3.9694
  527TIP3   OH223215   0.665   2.739   7.348  0.5164  0.1219  0.1740
  527TIP3    H123216   0.597   2.686   7.390  0.6725  0.2165  0.5560
  527TIP3    H223217   0.738   2.736   7.410  0.0017  2.0125  0.9380
  528TIP3   OH223218   4.181   4.405   0.386 -0.4876  0.1036  0.2559
  528TIP3    H123219   4.099   4.377   0.345  0.2414  0.2121 -1.3782
  528TIP3    H223220   4.249   4.371   0.327  0.8250 -2.3220  2.9339
  529TIP3   OH223221   1.373   0.997   8.483 -0.0754 -0.4555  0.1885
  529TIP3    H123222   1.377   0.902   8.490 -0.1107 -0.4567  0.1927
  529TIP3    H223223   1.285   1.020   8.513 -0.2912 -0.4760 -0.4324
  530TIP3   OH223224   3.997   6.396   6.999 -0.1665 -0.1096 -0.0794
  530TIP3    H123225   3.941   6.470   6.974 -0.4184 -0.3939 -0.3702
  530TIP3    H223226   3.936   6.329   7.029  0.0616 -0.2017  0.1845
  531TIP3   OH223227   4.019   2.440   0.307  0.3804 -0.2384 -0.3340
  531TIP3    H123228   4.012   2.366   0.247 -0.8920 -1.3820  1.1187
  531TIP3    H223229   3.971   2.510   0.264 -0.8673 -1.1617 -0.5175
  532TIP3   OH223230   4.796   6.401   0.227  0.2192  0.2034  0.9919
  532TIP3    H123231   4.835   6.314   0.220 -1.6057 -0.5588 -0.4055
  532TIP3    H223232   4.851   6.447   0.292  2.7402 -1.1024 -0.0845
  533TIP3   OH223233   4.584   4.913   0.535  0.0142 -0.4417 -0.0778
  533TIP3    H123234   4.575   4.897   0.629 -2.1121  0.8016  0.0123
  533TIP3    H223235   4.622   5.001   0.530 -0.7351 -0.1177 -0.3240
  534TIP3   OH223236   1.351   4.972   6.352 -0.4071 -0.2834  0.1861
  534TIP3    H123237   1.359   4.899   6.291  0.3498  0.0998 -0.1836
  534TIP3    H223238   1.268   4.956   6.397 -0.6394 -0.9422 -0.4502
  535TIP3   OH223239   2.271   0.279   7.265 -0.2816 -0.4956 -0.3106
  535TIP3    H123240   2.241   0.319   7.347 -0.3607  1.5036 -1.2735
  535TIP3    H223241   2.343   0.335   7.236 -0.4753 -0.9920 -1.7940
  536TIP3   OH223242   0.034   1.956   0.302  0.2709 -0.0240 -0.4519
  536TIP3    H123243   0.089   1.957   0.380 -1.1731  1.0288  0.6096
  536TIP3    H223244   0.008   2.047   0.290 -1.4933 -0.5318 -0.7120
  537TIP3   OH223245   3.695   5.547   7.364  0.4565  0.2309 -0.0397
  537TIP3    H123246   3.716   5.533   7.272  0.8765  0.8939 -0.0472
  537TIP3    H223247   3.777   5.576   7.404  0.3554 -0.3512  0.6113
  538TIP3   OH223248   0.892   4.557   0.645 -0.4474  0.1865 -0.2019
  538TIP3    H123249   0.907   4.463   0.637 -1.8620 -0.3066  2.0121
  538TIP3    H223250   0.799   4.568   0.627 -0.4319  1.0612  0.2055
  539TIP3   OH223251   2.366   1.598   8.814  0.0293  0.3393  1.0488
  539TIP3    H123252   2.319   1.614   8.732 -0.3444 -4.1472  0.1576
  539TIP3    H223253   2.456   1.627   8.795 -0.2771  0.3212 -0.5950
  540TIP3   OH223254   3.661   1.227   1.315 -0.0717  0.5309  0.5708
  540TIP3    H123255   3.572   1.223   1.349  0.5790  1.1828  2.4738
  540TIP3    H223256   3.694   1.312   1.343  0.7116  0.8943 -1.3181
  541TIP3   OH223257   5.320   0.507   8.580  0.1614  0.1006  0.7924
  541TIP3    H123258   5.314   0.510   8.675 -2.5140  0.6377  0.7094
  541TIP3    H223259   5.232   0.533   8.550  0.5275 -1.3054 -1.7978
  542TIP3   OH223260   1.106   4.172   7.460  0.3781 -0.3677 -0.0225
  542TIP3    H123261   1.103   4.130   7.375 -1.0940 -1.1968  0.4129
  542TIP3    H223262   1.145   4.107   7.518 -1.3119 -0.9257  0.5192
  543TIP3   OH223263   6.215   2.237   0.430 -0.2456  0.6791 -0.8387
  543TIP3    H123264   6.218   2.212   0.523  0.9928  0.6667 -0.8618
  543TIP3    H223265   6.126   2.217   0.402 -0.2052 -0.7102 -0.0403
  544TIP3   OH223266   3.233   1.250   1.199 -0.2649  0.5259  0.8404
  544TIP3    H123267   3.154   1.294   1.230  0.6645  2.8708  0.0666
  544TIP3    H223268   3.264   1.304   1.127  1.4047 -1.0179  0.3199
  545TIP3   OH223269   3.055   5.187   0.895 -0.2905  0.2498 -0.3645
  545TIP3    H123270   3.140   5.226   0.911  0.1636 -0.1696 -1.6237
  545TIP3    H223271   2.994   5.241   0.945  0.8283 -0.2976  1.7299
  546TIP3   OH223272   0.781   0.579   1.833  0.0511  0.2183  0.1036
  546TIP3    H123273   0.722   0.505   1.820  0.9770 -0.2993 -1.2915
  546TIP3    H223274   0.724   0.655   1.832 -0.7752 -0.3734  0.4073
  547TIP3   OH223275   1.637   3.108   6.457  0.5228 -0.3854 -0.0386
  547TIP3    H123276   1.577   3.150   6.395  1.3205 -0.0157 -0.5797
  547TIP3    H223277   1.719   3.100   6.409  0.7908 -1.2721  0.5512
  548TIP3   OH223278   2.723   6.275   1.037 -0.3498 -0.1404 -0.1440
  548TIP3    H123279   2.818   6.265   1.036 -0.4125 -1.2805  1.2807
  548TIP3    H223280   2.691   6.192   1.073 -1.8802  0.2761 -0.4735
  549TIP3   OH223281   2.234   3.000   6.694 -0.6012  0.1539 -0.1907
  549TIP3    H123282   2.191   2.936   6.636 -2.6729  0.8594  0.4694
  549TIP3    H223283   2.229   2.960   6.781  0.2689  0.1833 -0.1182
  550TIP3   OH223284   3.326   0.257   7.533 -0.7625 -0.0727  0.6141
  550TIP3    H123285   3.335   0.246   7.439  0.2775  0.9013  0.5876
  550TIP3    H223286   3.247   0.206   7.555  0.0186 -1.8643 -0.4749
  551TIP3   OH223287   6.127   1.077   1.744  0.2498 -0.0096  0.6786
  551TIP3    H123288   6.161   0.992   1.714  0.1022  0.7361 -1.8732
  551TIP3    H223289   6.040   1.057   1.778 -0.3213 -0.7675 -1.0940
  552TIP3   OH223290   0.837   0.271   7.682  0.1959  0.0582  0.0114
  552TIP3    H123291   0.816   0.274   7.588  1.9550 -0.4156 -0.4326
  552TIP3    H223292   0.931   0.284   7.686  0.4781 -1.9025  1.5430
  553TIP3   OH223293   3.753   0.260   0.206  0.6858 -0.6523 -0.3337
  553TIP3    H123294   3.803   0.189   0.247  1.0590 -0.3657 -0.2853
  553TIP3    H223295   3.684   0.280   0.269  1.1997 -0.2774  0.1216
  554TIP3   OH223296   4.226   0.364   0.783 -0.2263  0.6270  0.0389
  554TIP3    H123297   4.198   0.443   0.830 -0.1651 -0.7540  2.5387
  554TIP3    H223298   4.320   0.358   0.800 -0.1270  0.3038 -0.5979
  555TIP3   OH223299   5.341   2.971   8.542  0.1437 -0.2703 -0.2296
  555TIP3    H123300   5.330   2.939   8.453  1.5034 -1.5046  0.0035
  555TIP3    H223301   5.269   2.933   8.591  0.5266 -1.2490 -0.4076
  556TIP3   OH223302   1.671   0.406   0.745  0.4235 -0.2476 -0.3918
  556TIP3    H123303   1.711   0.476   0.693 -1.2484  1.7079  0.7959
  556TIP3    H223304   1.745   0.355   0.777  1.7501  1.1713 -1.0633
  557TIP3   OH223305   0.915   3.921   0.465 -0.0813 -0.0245 -0.3259
  557TIP3    H123306   0.906   3.990   0.531  0.2341  0.6593 -0.9821
  557TIP3    H223307   0.833   3.872   0.469 -0.6167  0.8634 -0.3858
  558TIP3   OH223308   6.300   5.980   0.407 -0.4973 -0.1273  0.0293
  558TIP3    H123309   6.310   5.992   0.313  2.2049  1.0058  0.3745
  558TIP3    H223310   6.213   5.941   0.417 -0.9230 -0.1474 -2.8912
  559TIP3   OH223311   5.162   1.449   7.630  0.5925 -0.5772  0.1027
  559TIP3    H123312   5.218   1.374   7.650  0.6414 -0.4698  0.3634
  559TIP3    H223313   5.219   1.511   7.585  0.3025 -1.1456 -1.0981
  560TIP3   OH223314   0.947   5.487   7.453 -0.1763  0.0118  0.0074
  560TIP3    H123315   1.026   5.499   7.506 -1.5288  0.0722  2.1377
  560TIP3    H223316   0.924   5.575   7.423  0.6064 -0.0236 -0.7231
  561TIP3   OH223317   3.401   4.635   6.499 -0.5994 -0.5924  0.6297
  561TIP3    H123318   3.428   4.543   6.494  2.1094  0.0941  0.7269
  561TIP3    H223319   3.462   4.681   6.441 -2.2707  1.1056  0.1121
  562TIP3   OH223320   4.293   2.710   7.338  0.5911  0.0426 -0.5422
  562TIP3    H123321   4.238   2.663   7.400  1.4562 -0.1248  0.1205
  562TIP3    H223322   4.239   2.784   7.309 -1.3296 -2.0685 -2.6777
  563TIP3   OH223323   2.549   2.825   6.526  0.3150 -0.2713 -0.5049
  563TIP3    H123324   2.525   2.737   6.554  0.3000 -0.5681 -1.4156
  563TIP3    H223325   2.581   2.814   6.437  0.4184  0.6330 -0.5913
  564TIP3   OH223326   5.974   1.100   8.645 -0.3870  0.5146 -0.0801
  564TIP3    H123327   6.005   1.174   8.697 -0.3320 -0.1052  0.7986
  564TIP3    H223328   6.047   1.038   8.645 -0.6553  0.1924 -0.2766
  565TIP3   OH223329   3.631   1.742   8.293  0.1811 -0.0744 -0.0175
  565TIP3    H123330   3.571   1.670   8.274  0.4339 -0.2722 -0.0741
  565TIP3    H223331   3.717   1.709   8.266  0.0941  0.7873 -1.4863
  566TIP3   OH223332   6.706   2.158   6.983  0.1687  0.6564 -0.0621
  566TIP3    H123333   6.679   2.247   6.961 -0.4284  0.4714 -0.0809
  566TIP3    H223334   6.667   2.103   6.915  0.7180  0.4018 -0.1772
  567TIP3   OH223335   4.200   5.291   0.950  0.1425 -0.4270 -0.1884
  567TIP3    H123336   4.199   5.286   0.854 -0.1033  1.0705 -0.2867
  567TIP3    H223337   4.111   5.268   0.976 -0.2772  0.8609 -0.4428
  568TIP3   OH223338   0.199   3.857   1.883  0.1487 -0.6226  0.1977
  568TIP3    H123339   0.132   3.923   1.899 -0.3221 -1.0994  0.2484
  568TIP3    H223340   0.203   3.807   1.964  1.1866 -0.0726  0.5072
  569TIP3   OH223341   2.844   5.269   0.367  0.2199 -0.0710 -0.1500
  569TIP3    H123342   2.906   5.262   0.440 -0.8273  1.1737  0.9034
  569TIP3    H223343   2.843   5.363   0.345 -0.6777 -0.1897 -0.6784
  570TIP3   OH223344   5.054   1.057   8.384  0.5060 -0.0827 -0.5990
  570TIP3    H123345   4.998   1.084   8.457  0.8297 -0.1239 -0.3350
  570TIP3    H223346   4.993   1.044   8.311  0.0905 -0.7614 -0.1436
  571TIP3   OH223347   4.650   0.357   7.826 -0.4186 -0.6337  0.2636
  571TIP3    H123348   4.664   0.264   7.810 -1.8362 -0.8354 -0.0042
  571TIP3    H223349   4.687   0.401   7.749  1.2593 -0.8611  0.9008
  572TIP3   OH223350   4.028   4.298   6.959  0.3675 -0.1883  0.3685
  572TIP3    H123351   4.041   4.379   6.910 -0.7163 -0.8816 -1.1849
  572TIP3    H223352   4.078   4.232   6.910 -0.0485 -0.7494  0.6852
  573TIP3   OH223353   1.634   0.884   1.054  0.2719 -0.1772  0.4319
  573TIP3    H123354   1.650   0.790   1.048  0.1722 -0.3590  2.3052
  573TIP3    H223355   1.637   0.902   1.148 -1.0801  1.4592  0.2019
  574TIP3   OH223356   0.829   1.285   8.546  0.0975  0.2714  0.5953
  574TIP3    H123357   0.780   1.227   8.487 -0.7283  1.2407  0.3037
  574TIP3    H223358   0.917   1.289   8.509 -0.0821 -0.0884  0.1267
  575TIP3   OH223359   0.917   3.375   7.816 -0.4238  0.2062 -0.0653
  575TIP3    H123360   0.882   3.303   7.763 -1.0032  0.7547 -0.4397
  575TIP3    H223361   0.842   3.432   7.833 -0.5201 -0.5263  2.3347
  576TIP3   OH223362   4.767   0.947   2.663 -0.1850  0.0811  0.1599
  576TIP3    H123363   4.680   0.908   2.668  0.3539 -1.7546 -2.4770
  576TIP3    H223364   4.756   1.026   2.611 -0.3448  0.1020  0.2271
  577TIP3   OH223365   5.164   3.795   8.494  0.0580  0.1726 -0.2498
  577TIP3    H123366   5.220   3.720   8.516 -3.3685 -2.6985 -0.3955
  577TIP3    H223367   5.155   3.792   8.399 -0.1015  0.7556 -0.2552
  578TIP3   OH223368   5.010   2.281   1.984 -0.0243 -0.2751 -0.2617
  578TIP3    H123369   4.999   2.266   2.078  0.9357 -1.0059 -0.2502
  578TIP3    H223370   5.086   2.227   1.960 -1.5319 -1.7715 -1.8960
  579TIP3   OH223371   6.491   2.313   8.542  0.1598 -0.5072  0.1660
  579TIP3    H123372   6.544   2.234   8.551 -1.3005 -1.6542 -0.9119
  579TIP3    H223373   6.532   2.360   8.469 -1.0384 -2.0741 -1.6013
  580TIP3   OH223374   4.882   3.283   7.631 -0.5873 -0.3017  0.5056
  580TIP3    H123375   4.967   3.260   7.668 -0.8047 -1.5740  0.2527
  580TIP3    H223376   4.885   3.253   7.541 -0.8658  0.7819  0.1194
  581TIP3   OH223377   0.283   3.008   1.839  0.0437 -0.1623 -0.2821
  581TIP3    H123378   0.364   2.992   1.887 -0.2963  0.3334  0.4717
  581TIP3    H223379   0.220   3.035   1.905 -0.7647 -0.5954 -0.8470
  582TIP3   OH223380   2.225   0.560   7.886 -0.2294  0.0631  0.1643
  582TIP3    H123381   2.320   0.552   7.886 -0.3176 -1.8421  2.2064
  582TIP3    H223382   2.194   0.470   7.895 -2.2493  0.6536 -0.4631
  583TIP3   OH223383   5.581   2.469   1.505 -0.5474  0.1799 -0.0735
  583TIP3    H123384   5.510   2.445   1.445 -0.5955 -0.7991  0.3414
  583TIP3    H223385   5.557   2.427   1.588  2.3944 -3.7489 -0.8811
  584TIP3   OH223386   0.939   3.278   6.984 -0.1559  0.1864 -0.1322
  584TIP3    H123387   1.030   3.287   7.011 -0.6158  1.2114  1.1857
  584TIP3    H223388   0.907   3.368   6.975 -1.2838 -0.1458  0.3400
  585TIP3   OH223389   4.827   0.613   7.937 -0.1060  0.0350  0.1569
  585TIP3    H123390   4.778   0.530   7.941  0.1673 -0.1774 -0.6328
  585TIP3    H223391   4.918   0.587   7.947 -0.0666  0.3146  0.5337
  586TIP3   OH223392   2.347   1.910   8.245  0.2056 -0.6464 -0.4473
  586TIP3    H123393   2.366   1.835   8.302  0.4239  1.1532  1.9978
  586TIP3    H223394   2.252   1.919   8.250  0.2505 -0.3364 -0.1827
  587TIP3   OH223395   3.135   6.408   6.779  0.6780 -0.1082  0.2742
  587TIP3    H123396   3.224   6.421   6.745  0.4795 -0.2122 -0.2950
  587TIP3    H223397   3.116   6.488   6.829  0.3555  0.7981 -1.2382
  588TIP3   OH223398   0.580   0.284   8.239 -1.0286 -0.1958 -0.2890
  588TIP3    H123399   0.561   0.200   8.197 -1.4358  0.2803 -1.0857
  588TIP3    H223400   0.563   0.349   8.171  0.5320  0.4676 -0.0823
  589TIP3   OH223401   1.357   6.718   1.895 -0.4682 -0.0778 -0.1903
  589TIP3    H123402   1.362   6.801   1.846 -0.5226  0.2932  0.4170
  589TIP3    H223403   1.439   6.714   1.944 -0.5183 -0.3245 -0.1254
  590TIP3   OH223404   0.734   6.111   1.664 -0.3397  0.2875  0.8152
  590TIP3    H123405   0.805   6.057   1.699 -1.2978 -1.1676  0.5833
  590TIP3    H223406   0.763   6.134   1.576  0.5983  1.1696  1.3359
  591TIP3   OH223407   0.179   2.668   6.461 -0.4388  0.0283  0.0993
  591TIP3    H123408   0.264   2.681   6.504 -0.5935  1.1922  0.0827
  591TIP3    H223409   0.201   2.649   6.370 -0.2032  1.1430 -0.0900
  592TIP3   OH223410   4.304   1.065   7.552 -0.1866 -0.2761  0.2812
  592TIP3    H123411   4.321   1.054   7.645 -0.6159 -1.7860  0.2150
  592TIP3    H223412   4.387   1.042   7.509 -0.3580 -0.8295  0.2427
  593TIP3   OH223413   3.335   3.578   7.575 -0.0203 -0.0314 -0.3221
  593TIP3    H123414   3.368   3.663   7.545  1.9874 -0.9726 -0.9409
  593TIP3    H223415   3.395   3.514   7.537 -0.6163 -1.6458  1.3063
  594TIP3   OH223416   6.319   4.456   8.763 -0.3723 -0.3338 -0.6258
  594TIP3    H123417   6.397   4.404   8.746  0.4304  0.4197  0.6143
  594TIP3    H223418   6.263   4.398   8.816 -0.0690 -0.4133 -0.3920
  595TIP3   OH223419   6.559   4.423   1.170 -0.0122 -0.0177 -0.4241
  595TIP3    H123420   6.644   4.442   1.209 -0.3747 -0.0140  0.3840
  595TIP3    H223421   6.507   4.388   1.242 -1.3497  1.8645 -0.4185
  596TIP3   OH223422   2.295   1.571   0.608  0.0189 -0.4586  0.1046
  596TIP3    H123423   2.338   1.641   0.658  0.3016 -0.6810  0.1741
  596TIP3    H223424   2.257   1.514   0.674 -0.5183 -0.1830  0.0407
  597TIP3   OH223425   3.762   6.198   0.568 -0.6308 -0.2416 -0.0028
  597TIP3    H123426   3.843   6.203   0.620  1.5205 -2.7533 -2.7448
  597TIP3    H223427   3.714   6.125   0.607 -0.7807  0.1713  0.6013
  598TIP3   OH223428   2.936   3.982   8.092  0.3128 -0.0790 -0.1698
  598TIP3    H123429   3.014   4.026   8.125  0.2509  0.6601 -0.9746
  598TIP3    H223430   2.969   3.922   8.024  0.3386 -0.9066  0.5565
  599TIP3   OH223431   6.137   1.943   0.228  0.1947 -0.2103 -0.2937
  599TIP3    H123432   6.113   1.925   0.319  1.4033 -0.5886 -0.0306
  599TIP3    H223433   6.218   1.893   0.215 -0.3438 -0.7379 -1.7913
  600TIP3   OH223434   3.496   6.238   7.972 -0.3097  0.5332 -0.7367
  600TIP3    H123435   3.497   6.267   7.881  0.1882 -1.2636 -1.3411
  600TIP3    H223436   3.588   6.235   7.997 -0.3652 -0.1558 -0.5929
  601TIP3   OH223437   4.130   6.112   7.495 -0.1164 -0.0283  0.5254
  601TIP3    H123438   4.127   6.102   7.590  2.7019  0.4135  0.7564
  601TIP3    H223439   4.174   6.196   7.481  0.1717 -0.4120 -1.1568
  602TIP3   OH223440   4.162   0.237   1.575 -0.6294 -0.0223  0.3440
  602TIP3    H123441   4.177   0.317   1.524  0.8587  0.8719  2.0604
  602TIP3    H223442   4.071   0.244   1.603 -1.5415 -0.6271 -2.2469
  603TIP3   OH223443   4.633   1.393   0.639  0.1070 -0.1468  0.2076
  603TIP3    H123444   4.593   1.470   0.680 -2.6284 -0.4735 -1.6191
  603TIP3    H223445   4.631   1.326   0.707 -2.2709 -0.0388  0.3255
  604TIP3   OH223446   1.683   5.790   0.797  0.4780  0.1095 -0.0694
  604TIP3    H123447   1.737   5.859   0.756  0.4795 -0.5553 -1.2480
  604TIP3    H223448   1.710   5.710   0.752 -1.3694 -0.2650 -0.5765
  605TIP3   OH223449   6.095   6.059   0.823 -0.1919  0.1313  0.4142
  605TIP3    H123450   6.075   6.134   0.767 -0.7638 -0.1427  0.2442
  605TIP3    H223451   6.036   5.990   0.792  1.2671 -0.8246 -0.3452
  606TIP3   OH223452   5.926   5.165   0.066  0.0307 -0.0970  0.3960
  606TIP3    H123453   5.941   5.108  -0.009 -1.2598 -0.0067  0.0478
  606TIP3    H223454   5.968   5.247   0.042  2.4076 -1.0163  1.1410
  607TIP3   OH223455   6.676   6.040   0.872 -0.4162 -0.0192  0.1236
  607TIP3    H123456   6.669   6.110   0.808  0.7616 -1.0274 -1.1635
  607TIP3    H223457   6.597   5.987   0.859  0.1104 -0.5725 -0.9778
  608TIP3   OH223458   6.184   2.944   8.394  0.3607 -0.1344 -0.1404
  608TIP3    H123459   6.148   3.033   8.404  1.4462  0.1655  1.6188
  608TIP3    H223460   6.223   2.944   8.307  0.6388  1.2662 -0.0482
  609TIP3   OH223461   3.351   2.877   7.903  0.0260  0.0616  0.1411
  609TIP3    H123462   3.345   2.784   7.925  1.7993 -0.2302 -0.4681
  609TIP3    H223463   3.261   2.908   7.909 -0.6652 -1.7627  0.0342
  610TIP3   OH223464   3.866   2.501   1.472 -0.1792  0.3071  0.5687
  610TIP3    H123465   3.770   2.494   1.474 -0.1938 -0.1088 -0.7316
  610TIP3    H223466   3.883   2.580   1.421  0.1572 -0.7047 -0.9569
  611TIP3   OH223467   2.499   1.162   7.311 -0.0723 -0.2430 -0.0310
  611TIP3    H123468   2.505   1.246   7.266  1.1347 -0.6839 -0.7411
  611TIP3    H223469   2.477   1.184   7.402  1.9934  0.9806  0.2252
  612TIP3   OH223470   1.954   2.700   1.736  0.3292  0.4871 -0.6381
  612TIP3    H123471   1.960   2.690   1.831 -0.4927  2.8728 -0.2753
  612TIP3    H223472   1.873   2.657   1.712 -1.0542  2.4674  0.2431
  613TIP3   OH223473   2.638   5.889   7.519  0.1767  0.2991 -0.0129
  613TIP3    H123474   2.702   5.819   7.530  1.6458  1.2347 -2.0056
  613TIP3    H223475   2.554   5.844   7.513  0.8035 -1.0810  1.0352
  614TIP3   OH223476   2.300   6.652   0.686  0.0527 -0.1136 -0.1883
  614TIP3    H123477   2.225   6.692   0.642  0.6392  0.6850 -0.4856
  614TIP3    H223478   2.369   6.719   0.682  0.6007 -0.6135  0.5874
  615TIP3   OH223479   4.844   0.396   8.555 -0.0401 -0.1890 -0.1117
  615TIP3    H123480   4.855   0.466   8.491 -2.3185  1.3469  1.0516
  615TIP3    H223481   4.804   0.324   8.506  0.8299 -0.1016 -0.9721
  616TIP3   OH223482   6.409   0.621   6.537  0.6457 -0.3734 -0.1177
  616TIP3    H123483   6.324   0.611   6.581  0.6262  1.6569  0.4214
  616TIP3    H223484   6.471   0.577   6.595  0.1730 -0.5338  0.2795
  617TIP3   OH223485   5.072   3.170   1.285  0.3401 -0.2214  0.4472
  617TIP3    H123486   5.042   3.260   1.296 -0.5174 -0.6599  2.2109
  617TIP3    H223487   5.138   3.174   1.216  0.5256  1.7907  0.6820
  618TIP3   OH223488   5.601   5.564   2.695 -0.3232  0.2936 -0.5058
  618TIP3    H123489   5.512   5.569   2.660 -0.3983 -0.8280 -0.5038
  618TIP3    H223490   5.637   5.651   2.680 -1.5369  0.8798 -0.1833
  619TIP3   OH223491   5.130   2.570   0.069  0.3118 -0.2991  0.3525
  619TIP3    H123492   5.120   2.585  -0.025  2.4265  0.5037  0.2012
  619TIP3    H223493   5.145   2.475   0.076  0.8220 -0.2700 -0.2159
  620TIP3   OH223494   0.259   1.606   0.740  0.5952  0.0638  0.7261
  620TIP3    H123495   0.214   1.529   0.705  1.5231 -0.8338  1.3979
  620TIP3    H223496   0.195   1.647   0.798  0.3269 -0.6744  0.9725
  621TIP3   OH223497   4.458   3.421   7.024  0.3074  0.2316 -0.1890
  621TIP3    H123498   4.553   3.433   7.032  1.0280 -3.4383 -1.2268
  621TIP3    H223499   4.439   3.442   6.933  0.3067  0.0662 -0.2274
  622TIP3   OH223500   1.029   5.281   0.730  0.0726 -0.3604  0.3738
  622TIP3    H123501   1.041   5.367   0.689  1.6093  0.1663  1.8551
  622TIP3    H223502   1.006   5.223   0.657 -2.5458  1.5450 -0.4869
  623TIP3   OH223503   6.053   5.937   7.688  0.4920  0.0397 -0.5008
  623TIP3    H123504   5.978   5.933   7.628  0.6620 -0.1617 -0.7028
  623TIP3    H223505   6.117   5.879   7.649  1.4925  1.6351 -1.3558
  624TIP3   OH223506   0.369   3.915   8.684 -0.5236  0.8874  0.1836
  624TIP3    H123507   0.314   3.854   8.635  0.7418 -2.8489  2.8977
  624TIP3    H223508   0.309   3.956   8.746 -1.0694  0.6544 -0.1804
  625TIP3   OH223509   3.791   4.780   7.600  0.3545 -0.3520 -0.3827
  625TIP3    H123510   3.812   4.834   7.676 -1.6394 -0.0002 -0.0221
  625TIP3    H223511   3.829   4.694   7.620  0.9312  0.0785  0.4348
  626TIP3   OH223512   4.763   3.713   1.913  0.2434 -0.2391  0.2120
  626TIP3    H123513   4.814   3.714   1.994 -0.7256  1.4993  0.8473
  626TIP3    H223514   4.706   3.790   1.919 -0.8945 -0.8860 -1.4658
  627TIP3   OH223515   6.477   5.868   8.423  0.2556 -0.3631 -0.5491
  627TIP3    H123516   6.513   5.780   8.412 -2.0398 -1.2642 -1.4650
  627TIP3    H223517   6.385   5.854   8.447  0.0698  1.7918  0.2684
  628TIP3   OH223518   1.182   3.298   7.673  0.3688 -0.6430 -0.4776
  628TIP3    H123519   1.122   3.319   7.744 -0.2307  0.3258 -1.2469
  628TIP3    H223520   1.269   3.302   7.713  0.0787  0.4739  0.0768
  629TIP3   OH223521   0.891   6.313   8.102 -0.5826 -0.7108 -0.3053
  629TIP3    H123522   0.939   6.300   8.184 -0.0135 -0.6411 -0.6184
  629TIP3    H223523   0.960   6.320   8.036 -1.0490 -1.2201 -0.8527
  630TIP3   OH223524   2.309   2.880   0.512 -0.4761  0.9446 -0.3069
  630TIP3    H123525   2.383   2.819   0.523 -1.5410  0.0531  3.3851
  630TIP3    H223526   2.280   2.866   0.422  2.2467 -0.5409 -1.0672
  631TIP3   OH223527   2.436   4.575   8.603  0.6338 -0.6516  0.4809
  631TIP3    H123528   2.375   4.505   8.581 -1.2763  0.9933  0.2643
  631TIP3    H223529   2.401   4.652   8.559  1.7530  0.7853  1.9915
  632TIP3   OH223530   1.039   0.072   6.987 -0.0954  0.1804 -0.2714
  632TIP3    H123531   0.957   0.027   6.968 -0.1948  0.8399 -1.5149
  632TIP3    H223532   1.064   0.113   6.904  2.6912 -1.8595 -0.5703
  633TIP3   OH223533   0.667   3.791   7.707  0.2103 -0.0282 -0.3240
  633TIP3    H123534   0.659   3.717   7.647 -0.8700 -0.0799 -0.1370
  633TIP3    H223535   0.685   3.866   7.651 -0.3051 -0.1612 -0.6721
  634TIP3   OH223536   1.276   5.379   7.242  0.6615 -0.0195 -0.0973
  634TIP3    H123537   1.235   5.359   7.157  0.8546  1.4556 -0.5653
  634TIP3    H223538   1.231   5.459   7.271  1.8676  0.5228  0.3079
  635TIP3   OH223539   1.094   0.784   8.027 -0.1072  0.6498 -0.6980
  635TIP3    H123540   1.082   0.850   8.095 -1.2928  0.5808 -0.8287
  635TIP3    H223541   1.117   0.834   7.949 -1.3459  0.9656 -0.8823
  636TIP3   OH223542   5.569   1.874   0.634 -0.9051  0.3608  0.6990
  636TIP3    H123543   5.562   1.903   0.543 -0.4011  0.4046  0.6682
  636TIP3    H223544   5.536   1.784   0.634 -0.4910  0.2045  0.3811
  637TIP3   OH223545   0.177   2.411   0.293 -0.1435  0.0512 -0.0590
  637TIP3    H123546   0.255   2.399   0.238 -0.4638  0.3534 -0.5865
  637TIP3    H223547   0.210   2.456   0.371  0.4404 -1.0218  0.3287
  638TIP3   OH223548   3.754   6.020   6.805  0.4622 -0.1005 -0.4575
  638TIP3    H123549   3.659   6.019   6.805  0.4558  0.2155 -1.0690
  638TIP3    H223550   3.779   5.941   6.755  0.5056  0.4132 -1.2593
  639TIP3   OH223551   5.832   0.639   7.384  0.3877 -0.3127 -0.1335
  639TIP3    H123552   5.781   0.558   7.375  2.0619 -1.2772 -1.6281
  639TIP3    H223553   5.824   0.682   7.299  2.0278 -0.5100 -0.4307
  640TIP3   OH223554   4.748   6.678   0.163  0.3621  0.0917  0.0930
  640TIP3    H123555   4.834   6.637   0.165 -0.4514 -1.7695 -0.3569
  640TIP3    H223556   4.697   6.624   0.101 -1.1204  1.1273  0.3501
  641TIP3   OH223557   3.102   4.258   7.421 -0.3202 -0.6699 -0.1265
  641TIP3    H123558   3.109   4.264   7.326 -0.1314 -0.1794 -0.0859
  641TIP3    H223559   3.086   4.349   7.449 -0.5201 -0.8328  0.2942
  642TIP3   OH223560   4.168   5.952   0.684  0.0223  0.0671  0.0514
  642TIP3    H123561   4.211   5.877   0.726  0.6286 -0.1512 -0.9417
  642TIP3    H223562   4.090   5.915   0.642 -0.7296  0.3297  1.1650
  643TIP3   OH223563   2.029   4.537   8.547  0.2608 -0.3754 -0.6684
  643TIP3    H123564   2.121   4.521   8.527  1.2051  1.3019  1.7959
  643TIP3    H223565   2.007   4.473   8.614  0.4571  0.8316  0.5904
  644TIP3   OH223566   6.320   0.719   6.291 -0.3218  0.3348 -0.0578
  644TIP3    H123567   6.387   0.787   6.286 -1.4051  1.4019 -0.2983
  644TIP3    H223568   6.321   0.692   6.383  0.0196  0.7592  0.0687
  645TIP3   OH223569   1.924   5.155   7.324 -0.0717 -0.1756 -0.1225
  645TIP3    H123570   2.003   5.105   7.343 -1.3167 -1.4415  2.2145
  645TIP3    H223571   1.878   5.102   7.258 -0.1985 -0.8756  0.5051
  646TIP3   OH223572   4.905   3.529   8.094  0.6391  0.0545 -0.0606
  646TIP3    H123573   4.968   3.597   8.121  0.6749  0.2296 -0.5793
  646TIP3    H223574   4.914   3.461   8.161 -0.1415  1.0032  1.0636
  647TIP3   OH223575   4.357   0.655   0.849 -0.0013  0.3237  0.0154
  647TIP3    H123576   4.355   0.748   0.874  0.3658  0.2301  0.4126
  647TIP3    H223577   4.373   0.609   0.931 -0.3842 -0.1059 -0.1525
  648TIP3   OH223578   2.488   0.446   1.002 -0.2372 -0.0959  0.1028
  648TIP3    H123579   2.505   0.395   0.922 -0.7021 -0.4215  0.2028
  648TIP3    H223580   2.498   0.383   1.073  0.5132  0.2740  0.3322
  649TIP3   OH223581   2.081   3.284   8.301  0.6660 -0.2548  0.4328
  649TIP3    H123582   2.111   3.202   8.340 -0.1694 -0.3919  0.8255
  649TIP3    H223583   2.001   3.260   8.253  0.3680  0.3371  0.6188
  650TIP3   OH223584   2.954   5.470   0.632  0.2203 -0.8754 -0.1916
  650TIP3    H123585   2.876   5.481   0.578  1.0764 -1.4402 -1.5755
  650TIP3    H223586   2.945   5.537   0.700  0.1695  1.3100 -2.2458
  651TIP3   OH223587   1.150   4.340   8.573  0.0858 -0.0330 -0.7141
  651TIP3    H123588   1.238   4.315   8.601  0.3790  1.4121 -0.2948
  651TIP3    H223589   1.116   4.393   8.645  0.2990  2.5413 -2.4051
  652TIP3   OH223590   4.240   3.078   2.199 -0.0200  0.8729 -0.2644
  652TIP3    H123591   4.183   3.150   2.227 -1.0290  0.0515 -0.1605
  652TIP3    H223592   4.325   3.097   2.239 -0.7095  1.1386  1.1339
  653TIP3   OH223593   2.757   2.457   6.543 -0.5673 -0.2767 -0.2030
  653TIP3    H123594   2.752   2.376   6.493 -0.9358 -0.2375 -0.2311
  653TIP3    H223595   2.673   2.501   6.527 -0.9211 -0.5234  0.8953
  654TIP3   OH223596   4.728   3.025   6.835 -0.1956 -0.1522 -0.8013
  654TIP3    H123597   4.696   3.085   6.767 -0.4259 -0.1443 -0.6845
  654TIP3    H223598   4.815   2.999   6.804 -0.5547 -0.6481 -1.4225
  655TIP3   OH223599   6.576   3.254   7.309 -0.0099 -0.1024 -0.2779
  655TIP3    H123600   6.542   3.219   7.227  0.2303 -0.1976 -0.3382
  655TIP3    H223601   6.598   3.177   7.361 -1.2309 -0.0688  0.3429
  656TIP3   OH223602   5.017   4.418   0.527 -0.2093 -0.5963  1.3482
  656TIP3    H123603   4.991   4.485   0.463  1.8954 -0.1397  0.8916
  656TIP3    H223604   4.952   4.425   0.597 -0.8665  0.9357  0.6360
  657TIP3   OH223605   3.629   3.664   1.000 -0.0827  0.9708 -0.2435
  657TIP3    H123606   3.543   3.636   0.971  0.1189  0.8989 -0.7763
  657TIP3    H223607   3.664   3.588   1.047  0.1740  0.5725 -1.0654
  658TIP3   OH223608   1.673   2.277   8.542  0.0014 -0.2500  0.2760
  658TIP3    H123609   1.649   2.347   8.604 -0.1591  0.9153 -1.0467
  658TIP3    H223610   1.747   2.233   8.583  1.1840  1.7495  0.4552
  659TIP3   OH223611   6.738   1.409   7.558  0.1344  0.1015 -0.0360
  659TIP3    H123612   6.700   1.483   7.511  0.8945  0.1882 -0.5170
  659TIP3    H223613   6.774   1.353   7.490  0.4135 -0.2403  0.3880
  660TIP3   OH223614   5.709   2.684   0.969 -0.1027 -0.2621 -0.1405
  660TIP3    H123615   5.699   2.729   0.885 -0.8457 -0.2821 -0.0705
  660TIP3    H223616   5.791   2.718   1.005  0.6755 -0.8908 -1.2569
  661TIP3   OH223617   2.420   0.728   1.279 -0.2281  0.2378 -0.1044
  661TIP3    H123618   2.392   0.698   1.365  0.7939  0.4314  0.3106
  661TIP3    H223619   2.504   0.685   1.264 -1.4529 -1.6553 -2.0543
  662TIP3   OH223620   5.183   4.992   7.876 -0.3613 -0.1446 -0.1156
  662TIP3    H123621   5.213   5.047   7.948 -1.7437 -0.6212  0.8727
  662TIP3    H223622   5.090   4.977   7.895 -0.2590 -1.9823 -0.9011
  663TIP3   OH223623   1.372   2.803   7.415 -0.7658 -0.2582  0.2045
  663TIP3    H123624   1.398   2.735   7.353  1.0769  1.1009 -0.6325
  663TIP3    H223625   1.439   2.799   7.484  0.1228  1.4558 -0.4973
  664TIP3   OH223626   2.206   2.622   7.571  0.0091 -0.2129 -0.4683
  664TIP3    H123627   2.297   2.643   7.551 -0.3800  0.3275 -1.7157
  664TIP3    H223628   2.186   2.673   7.650  0.5912  0.1486 -0.5518
  665TIP3   OH223629   4.634   2.168   8.121 -0.0830  0.2039  0.1234
  665TIP3    H123630   4.582   2.137   8.047 -4.4221  1.0652  2.4904
  665TIP3    H223631   4.652   2.089   8.172 -2.2859  0.1971  1.0106
  666TIP3   OH223632   2.042   0.647   0.579 -0.2130 -0.3144  0.3456
  666TIP3    H123633   2.059   0.560   0.617 -2.1629 -0.8238  0.1970
  666TIP3    H223634   2.128   0.683   0.561  0.7171 -1.2966  2.4805
  667TIP3   OH223635   3.078   5.806   0.303  0.0678 -0.3983 -0.5058
  667TIP3    H123636   3.133   5.872   0.261  0.3995 -0.9482 -0.9503
  667TIP3    H223637   3.001   5.799   0.245 -0.8296  0.8727  0.4782
  668TIP3   OH223638   6.478   4.546   1.797 -0.6038 -0.1715  0.3023
  668TIP3    H123639   6.483   4.531   1.891 -1.4870 -1.1658  0.2016
  668TIP3    H223640   6.430   4.629   1.789  0.7610  0.7046  0.7396
  669TIP3   OH223641   6.767   3.537   6.434  0.0526  0.5618  0.1324
  669TIP3    H123642   6.817   3.534   6.516 -0.4426 -0.5416  0.4124
  669TIP3    H223643   6.799   3.463   6.383 -0.6728  0.3735 -0.0594
  670TIP3   OH223644   5.093   0.934   7.366  0.0756  0.1265  0.2764
  670TIP3    H123645   5.079   0.958   7.458 -1.0401  0.8709 -0.0609
  670TIP3    H223646   5.184   0.957   7.349  0.0197  0.8745  0.9346
  671TIP3   OH223647   3.969   3.551   8.466  0.3503  0.6339  0.6490
  671TIP3    H123648   3.943   3.478   8.522 -1.7347  0.4214 -0.4851
  671TIP3    H223649   4.043   3.517   8.415 -0.1429 -0.4717  0.6314
  672TIP3   OH223650   3.956   4.203   8.074 -0.3519  0.4707  0.1608
  672TIP3    H123651   3.994   4.284   8.040  0.8171  0.3021  1.0267
  672TIP3    H223652   3.997   4.134   8.022 -0.4888  0.3645  0.1946
  673TIP3   OH223653   4.183   6.597   8.621  0.3038  0.2967  0.1743
  673TIP3    H123654   4.169   6.517   8.671  1.3816 -0.3695 -0.5493
  673TIP3    H223655   4.156   6.667   8.680 -0.6131 -0.5767  0.8415
  674TIP3   OH223656   3.020   4.231   1.939  0.4722 -0.1829 -0.3830
  674TIP3    H123657   3.012   4.178   1.859  0.3551 -1.7767  0.6234
  674TIP3    H223658   3.094   4.192   1.985 -0.9433 -0.8803  1.3960
  675TIP3   OH223659   1.152   6.151   0.658 -0.3520  0.1053  0.5665
  675TIP3    H123660   1.239   6.127   0.627 -0.9891 -2.1131  0.3000
  675TIP3    H223661   1.146   6.246   0.643  1.5731  0.1118 -0.4480
  676TIP3   OH223662   5.314   1.198   7.697  0.7130 -0.5384 -0.1916
  676TIP3    H123663   5.379   1.152   7.643  1.6138  0.8559 -0.3544
  676TIP3    H223664   5.275   1.129   7.750  0.8631 -1.7307 -1.5526
  677TIP3   OH223665   6.095   6.233   8.501  0.2294  0.5439  0.0242
  677TIP3    H123666   6.168   6.264   8.447 -0.1576  0.3286 -0.6394
  677TIP3    H223667   6.136   6.199   8.580  0.8283  0.6511 -0.2357
  678TIP3   OH223668   1.102   1.041   8.179 -0.5293  0.3233 -0.2051
  678TIP3    H123669   1.191   1.038   8.144 -0.3990  2.0524 -0.0915
  678TIP3    H223670   1.113   1.040   8.274 -0.7001 -0.5454 -0.1864
  679TIP3   OH223671   3.785   2.234   7.764 -0.4140 -0.6854 -0.3884
  679TIP3    H123672   3.845   2.252   7.837  1.3082  0.2971 -1.9444
  679TIP3    H223673   3.698   2.252   7.799  0.5764  3.4216  0.5029
  680TIP3   OH223674   2.073   4.048   6.951 -0.4768 -0.0022 -0.0165
  680TIP3    H123675   2.073   4.011   6.862  0.7564  0.0953 -0.0733
  680TIP3    H223676   2.146   4.004   6.995 -0.7198  0.3730  0.7747
  681TIP3   OH223677   2.497   5.474   6.785 -0.2453 -0.2204  0.1903
  681TIP3    H123678   2.559   5.419   6.736  0.1898  1.3799 -1.1456
  681TIP3    H223679   2.428   5.413   6.812 -0.8270 -1.1625 -2.9381
  682TIP3   OH223680   0.685   4.563   0.345 -0.4858 -0.4738  0.8624
  682TIP3    H123681   0.688   4.469   0.365 -1.1934 -0.3311  1.7151
  682TIP3    H223682   0.637   4.568   0.262  1.7149 -1.0136 -0.5268
  683TIP3   OH223683   6.124   3.659   8.416  0.0621 -0.6968  0.1022
  683TIP3    H123684   6.070   3.627   8.343 -1.5058  0.9740  0.4455
  683TIP3    H223685   6.070   3.643   8.494 -0.2986  1.5407  0.3993
  684TIP3   OH223686   1.350   3.287   0.049 -0.7870 -0.0047  0.1240
  684TIP3    H123687   1.258   3.265   0.064 -0.7259  0.3524  1.0836
  684TIP3    H223688   1.398   3.238   0.115 -0.0281 -2.0341 -1.7995
  685TIP3   OH223689   1.773   5.244   7.516 -0.3474  0.0968 -0.2546
  685TIP3    H123690   1.796   5.336   7.513  0.1558 -0.0465 -1.0573
  685TIP3    H223691   1.822   5.204   7.444 -0.2808 -0.8599  0.2978
  686TIP3   OH223692   2.807   4.834   1.596  0.2895 -0.2604 -0.1995
  686TIP3    H123693   2.885   4.785   1.621  1.2913  0.4227 -1.8104
  686TIP3    H223694   2.750   4.770   1.553  0.6913 -0.4385 -0.4670
  687TIP3   OH223695   3.247   0.508   1.773 -0.5439 -0.2649  0.2188
  687TIP3    H123696   3.199   0.549   1.844 -0.2100  1.3380 -0.4405
  687TIP3    H223697   3.301   0.441   1.816 -1.9024 -0.7718  1.1866
  688TIP3   OH223698   6.517   2.739   8.296 -0.1181 -0.5038  0.1642
  688TIP3    H123699   6.516   2.698   8.210 -0.9958  1.2872 -0.7210
  688TIP3    H223700   6.429   2.726   8.331 -0.1170 -0.2285  0.2787
  689TIP3   OH223701   0.675   0.274   6.618  0.4118  0.1928  0.3794
  689TIP3    H123702   0.726   0.341   6.663  1.0772  0.1459 -0.2768
  689TIP3    H223703   0.674   0.200   6.678  1.6662 -0.0286  0.1689
  690TIP3   OH223704   0.860   6.245   7.767 -0.1583  0.0809 -0.2145
  690TIP3    H123705   0.822   6.237   7.855  0.5572  0.8198  0.1824
  690TIP3    H223706   0.904   6.330   7.768 -2.3300  1.3390 -2.1730
  691TIP3   OH223707   0.898   0.636   7.899  0.2434  0.3392  0.0908
  691TIP3    H123708   0.969   0.687   7.939  1.5618  0.8211 -2.6076
  691TIP3    H223709   0.938   0.596   7.822 -2.5471  1.0106 -1.8359
  692TIP3   OH223710   3.830   2.327   8.664  0.0563 -0.0801 -0.1220
  692TIP3    H123711   3.794   2.257   8.717  0.5036  0.3639  0.7836
  692TIP3    H223712   3.881   2.283   8.596 -3.2774 -0.8170 -2.3703
  693TIP3   OH223713   2.387   1.928   1.266 -0.1028  0.6717  0.5975
  693TIP3    H123714   2.436   1.962   1.341  0.9741 -0.6052  0.5038
  693TIP3    H223715   2.438   1.956   1.189  0.3785 -0.4756  0.4879
  694TIP3   OH223716   1.538   4.600   0.666 -0.4228  0.4889  0.4640
  694TIP3    H123717   1.476   4.564   0.603  0.5138 -0.8347  0.2722
  694TIP3    H223718   1.622   4.558   0.645  0.5403  2.1283  0.7993
  695TIP3   OH223719   4.984   6.255   8.103  0.0975 -0.1617 -0.2112
  695TIP3    H123720   4.979   6.162   8.082 -0.3990  0.1358 -1.4564
  695TIP3    H223721   4.898   6.276   8.141  0.5364 -0.3996  0.9764
  696TIP3   OH223722   6.479   1.245   1.503  0.1398 -0.7206 -0.0216
  696TIP3    H123723   6.514   1.278   1.586 -0.5835 -1.8546  0.7607
  696TIP3    H223724   6.540   1.175   1.478 -1.4362 -2.6959  1.3390
  697TIP3   OH223725   0.669   2.311   7.270 -0.1364 -0.1706  0.1429
  697TIP3    H123726   0.597   2.342   7.215 -2.1304 -2.4122  1.3197
  697TIP3    H223727   0.628   2.289   7.353  1.9031 -1.6144  0.8500
  698TIP3   OH223728   0.831   0.185   0.303  0.1536  0.1076 -0.5898
  698TIP3    H123729   0.741   0.192   0.271  0.1603  2.8497 -0.2823
  698TIP3    H223730   0.823   0.189   0.398  0.5431 -1.2774 -0.4762
  699TIP3   OH223731   1.860   0.837   0.545  0.3827  0.2351  0.2813
  699TIP3    H123732   1.878   0.867   0.456 -1.1758  0.7304  0.1095
  699TIP3    H223733   1.922   0.765   0.559  0.7628  0.2604 -1.1227
  700TIP3   OH223734   3.254   6.145   8.323  0.3115 -0.2403 -0.3763
  700TIP3    H123735   3.196   6.216   8.352 -0.3920 -0.9061 -0.1075
  700TIP3    H223736   3.270   6.163   8.231 -0.4796 -0.1366 -0.4994
  701TIP3   OH223737   1.447   3.338   1.159 -0.5481 -0.8450  0.8042
  701TIP3    H123738   1.480   3.344   1.249 -1.0743  0.1496  0.9504
  701TIP3    H223739   1.354   3.363   1.166 -0.1689  1.0220 -0.2545
  702TIP3   OH223740   2.222   1.370   8.324  0.0649  0.1635  0.0492
  702TIP3    H123741   2.219   1.462   8.297 -0.5922  0.1392  0.0159
  702TIP3    H223742   2.142   1.332   8.288  0.4285 -0.4745 -0.1116
  703TIP3   OH223743   2.457   4.480   8.207  0.1189 -0.1927  0.1047
  703TIP3    H123744   2.483   4.400   8.252  0.3201  0.1688  0.6383
  703TIP3    H223745   2.537   4.512   8.167 -0.3664 -1.4313 -2.0279
  704TIP3   OH223746   2.627   6.197   0.377 -0.1550 -0.1377  0.4891
  704TIP3    H123747   2.577   6.241   0.308  0.3594  1.5282  1.1348
  704TIP3    H223748   2.562   6.149   0.428 -0.8953  0.8382  0.4750
  705TIP3   OH223749   0.223   3.699   2.116  0.4275  0.1070  0.1000
  705TIP3    H123750   0.191   3.693   2.206 -0.1523 -1.5508 -0.1694
  705TIP3    H223751   0.297   3.639   2.114 -0.1117 -0.5510 -0.7317
  706TIP3   OH223752   3.353   3.796   8.635  0.1842 -0.0862  0.0617
  706TIP3    H123753   3.377   3.802   8.727  0.6419 -0.2937 -0.0418
  706TIP3    H223754   3.297   3.719   8.629 -1.7492  1.2061  0.5555
  707TIP3   OH223755   0.419   0.294   7.463  0.0357  0.9270 -0.5549
  707TIP3    H123756   0.338   0.289   7.413  0.0553  0.6578 -0.5595
  707TIP3    H223757   0.468   0.216   7.438  1.1540  2.0532 -2.0052
  708TIP3   OH223758   0.817   3.429   0.129  0.4621  0.2307  0.4139
  708TIP3    H123759   0.746   3.405   0.069  1.0285 -1.7542  0.4514
  708TIP3    H223760   0.842   3.346   0.170  1.8338  1.1303  1.4725
  709TIP3   OH223761   4.407   0.456   7.928 -0.0669  0.1656  0.0983
  709TIP3    H123762   4.494   0.426   7.901 -0.5726 -1.2190 -0.0801
  709TIP3    H223763   4.354   0.451   7.848 -1.2080 -2.5664  0.9117
  710TIP3   OH223764   5.163   2.779   8.688  0.0554  0.3369  0.1014
  710TIP3    H123765   5.078   2.822   8.700 -0.6490 -0.5135 -1.6309
  710TIP3    H223766   5.142   2.695   8.648  1.7817  0.5643 -1.3728
  711TIP3   OH223767   6.675   0.521   0.881 -0.0971  0.0181  0.2166
  711TIP3    H123768   6.671   0.425   0.888  0.8499 -0.0180  0.3216
  711TIP3    H223769   6.738   0.538   0.812 -1.6159  0.5609 -1.0977
  712TIP3   OH223770   0.735   2.704   0.675 -0.4552  0.4025  0.4914
  712TIP3    H123771   0.681   2.651   0.733 -0.2248  0.8827  1.1540
  712TIP3    H223772   0.815   2.720   0.724 -0.3797  1.0605  0.1672
  713TIP3   OH223773   0.757   0.978   8.027 -0.3698  0.5307  0.1514
  713TIP3    H123774   0.689   0.981   8.093  0.0497 -1.2397  0.6975
  713TIP3    H223775   0.829   1.030   8.064 -0.9152  1.3200  0.1287
  714TIP3   OH223776   2.017   2.805   6.808  0.2600  0.0112 -0.2320
  714TIP3    H123777   2.095   2.801   6.862 -0.7484  0.6929  1.3301
  714TIP3    H223778   1.949   2.839   6.865 -1.4665 -1.5351 -1.2365
  715TIP3   OH223779   1.849   5.461   0.958 -0.6512  0.3806 -0.1767
  715TIP3    H123780   1.775   5.401   0.952 -1.9040  1.8811 -0.2705
  715TIP3    H223781   1.812   5.541   0.995  0.7998  1.3901 -0.8244
  716TIP3   OH223782   2.419   0.877   1.030 -0.2956  0.2059  0.3788
  716TIP3    H123783   2.510   0.858   1.010 -0.6968 -1.3257 -0.0933
  716TIP3    H223784   2.402   0.831   1.113 -0.3540  1.3959  1.0533
  717TIP3   OH223785   4.890   2.755   1.737  0.1476 -0.7523 -0.3473
  717TIP3    H123786   4.824   2.792   1.796 -0.2438 -0.4728 -0.9427
  717TIP3    H223787   4.969   2.747   1.790 -0.4057 -1.2302  0.4247
  718TIP3   OH223788   5.029   6.461   7.349  0.2154  0.0493 -0.3139
  718TIP3    H123789   4.936   6.463   7.329  0.4529 -1.2447 -1.7862
  718TIP3    H223790   5.071   6.506   7.275  0.6425  3.4305  1.7991
  719TIP3   OH223791   1.096   5.213   2.500  0.7185  0.2181 -0.2912
  719TIP3    H123792   1.159   5.142   2.510  1.0107  0.7299  2.0853
  719TIP3    H223793   1.014   5.170   2.477  0.8228 -0.9502  1.3903
  720TIP3   OH223794   2.711   1.121   1.659 -0.0500 -0.2298 -0.2836
  720TIP3    H123795   2.699   1.100   1.566 -1.5454  1.1573 -0.4509
  720TIP3    H223796   2.785   1.068   1.686  2.7261  1.7902 -3.1392
  721TIP3   OH223797   2.497   6.387   8.773 -0.2951  0.0486 -0.0722
  721TIP3    H123798   2.503   6.376   8.678 -0.2877 -1.5153  0.0754
  721TIP3    H223799   2.566   6.449   8.795  0.4924 -0.4759 -0.9702
  722TIP3   OH223800   0.766   0.774   8.262  0.5427 -0.2261 -0.3367
  722TIP3    H123801   0.811   0.691   8.278 -1.6637 -1.5560 -0.6309
  722TIP3    H223802   0.698   0.753   8.198 -0.6101  1.6187  0.1941
  723TIP3   OH223803   3.974   3.203   7.438 -0.1729 -0.3151  0.0150
  723TIP3    H123804   3.916   3.156   7.378 -0.3233 -0.3958  0.2222
  723TIP3    H223805   3.922   3.215   7.517  0.0314 -0.2240  0.1358
  724TIP3   OH223806   3.282   2.166   0.151  0.0249 -0.1132  0.0305
  724TIP3    H123807   3.261   2.073   0.162 -1.5783  0.0308 -1.4623
  724TIP3    H223808   3.219   2.211   0.208  1.5342  0.0688  1.6410
  725TIP3   OH223809   3.260   6.521   8.316 -0.3528  0.0760  0.0702
  725TIP3    H123810   3.294   6.548   8.230  2.4363  0.5716  1.2339
  725TIP3    H223811   3.239   6.603   8.360 -1.1186 -0.1528  0.1517
  726TIP3   OH223812   0.706   0.482   0.703  0.9463  0.0202 -0.1679
  726TIP3    H123813   0.768   0.529   0.757  1.8804  0.2551 -1.4119
  726TIP3    H223814   0.708   0.527   0.618  2.3880 -2.5796 -1.6374
  727TIP3   OH223815   2.836   1.310   0.698  0.4050 -0.4673  0.2937
  727TIP3    H123816   2.842   1.218   0.672 -2.0192 -0.4413 -0.5569
  727TIP3    H223817   2.903   1.354   0.645 -0.0849 -1.4038 -1.1755
  728TIP3   OH223818   1.650   1.354   7.285 -0.1292 -0.2311 -0.1619
  728TIP3    H123819   1.628   1.280   7.228 -1.3014 -0.0734  0.0781
  728TIP3    H223820   1.599   1.339   7.364 -0.1177  0.6627  0.0174
  729TIP3   OH223821   5.322   3.373   7.767  0.4058  0.8800 -0.1200
  729TIP3    H123822   5.370   3.339   7.692 -0.5749 -0.5111 -0.1519
  729TIP3    H223823   5.269   3.445   7.731  0.1742  0.4269 -0.6980
  730TIP3   OH223824   6.552   6.334   7.234 -0.0566 -0.1684  0.8284
  730TIP3    H123825   6.643   6.305   7.233 -0.5318 -1.7892  1.0324
  730TIP3    H223826   6.541   6.374   7.320  0.6318  0.6626  0.5406
  731TIP3   OH223827   5.102   5.989   1.762 -0.1263 -0.2887  0.1361
  731TIP3    H123828   5.157   6.051   1.714 -1.4817  1.4252  0.6680
  731TIP3    H223829   5.160   5.951   1.828  0.7592  0.4247 -0.2146
  732TIP3   OH223830   2.877   1.690   7.901  0.2405  0.1358 -0.4659
  732TIP3    H123831   2.922   1.774   7.902  0.2429  0.1434 -0.9562
  732TIP3    H223832   2.892   1.656   7.813  2.1296 -1.4002  0.3625
  733TIP3   OH223833   0.835   5.262   2.203 -0.2784 -0.4561 -0.5364
  733TIP3    H123834   0.868   5.187   2.253  0.5444  0.0287 -0.3374
  733TIP3    H223835   0.868   5.248   2.114 -0.0967 -0.3179 -0.4916
  734TIP3   OH223836   6.346   4.332   1.000  0.0149  0.1459  0.1255
  734TIP3    H123837   6.315   4.394   0.934  0.0952 -1.2042 -1.2280
  734TIP3    H223838   6.414   4.380   1.048 -0.9771  1.6003  0.1529
  735TIP3   OH223839   0.007   4.619   8.486 -0.0445 -0.0432  0.6374
  735TIP3    H123840  -0.066   4.681   8.493 -0.5301 -0.6431  0.9233
  735TIP3    H223841  -0.035   4.534   8.474  0.5923 -0.0566 -2.2953
  736TIP3   OH223842   0.047   6.001   0.313 -0.0020 -0.1567  0.5476
  736TIP3    H123843   0.033   6.012   0.407 -0.3948  0.8398  0.3854
  736TIP3    H223844  -0.036   5.965   0.281  0.3196 -1.0124  0.6560
  737TIP3   OH223845   1.971   6.490   8.384 -0.0225 -0.6868  0.3996
  737TIP3    H123846   1.995   6.522   8.298  0.8227 -1.1190  0.4618
  737TIP3    H223847   2.047   6.510   8.439  0.4467 -2.5454  0.4872
  738TIP3   OH223848   4.812   0.210   1.805  0.5250 -0.1359 -0.0471
  738TIP3    H123849   4.736   0.167   1.767  0.6698 -1.6686  1.2838
  738TIP3    H223850   4.775   0.274   1.866  0.2468 -1.5571  1.3323
  739TIP3   OH223851   3.042   0.871   8.815 -0.5090 -0.2659 -0.0415
  739TIP3    H123852   3.059   0.876   8.909 -0.0815  0.0881 -0.1347
  739TIP3    H223853   2.947   0.858   8.808 -1.0268  2.5668  0.3867
  740TIP3   OH223854   0.252   2.358   0.984  0.0405  0.0266 -0.0867
  740TIP3    H123855   0.265   2.450   1.006 -0.8957  0.1371  0.0512
  740TIP3    H223856   0.161   2.353   0.954 -0.7433 -1.2512  2.1834
  741TIP3   OH223857   3.304   6.693   8.693  0.4114  0.0458  0.3477
  741TIP3    H123858   3.349   6.627   8.746 -0.5405 -1.2895 -0.4172
  741TIP3    H223859   3.221   6.707   8.738 -0.5610 -1.3626 -0.8887
  742TIP3   OH223860   0.429   4.931   0.179  0.4757  0.0406 -0.0025
  742TIP3    H123861   0.445   4.989   0.254  0.1536 -0.5681  0.5482
  742TIP3    H223862   0.515   4.897   0.156  0.5547  0.1126  0.1867
  743TIP3   OH223863   1.135   1.834   7.015 -0.0245 -0.4544 -0.5871
  743TIP3    H123864   1.192   1.864   6.944 -1.3735  1.5067 -0.9163
  743TIP3    H223865   1.122   1.911   7.069 -2.3961 -0.7984 -0.5810
  744TIP3   OH223866   5.615   5.943   0.838  0.4182 -0.1152 -0.0022
  744TIP3    H123867   5.689   5.886   0.817  1.4930  0.6711  1.5233
  744TIP3    H223868   5.646   6.031   0.818  0.4809  0.3759  2.1166
  745TIP3   OH223869   2.611   0.687   0.285 -0.5135 -0.4152  0.4714
  745TIP3    H123870   2.605   0.781   0.273 -0.6322 -0.3879  0.7227
  745TIP3    H223871   2.544   0.650   0.228 -2.4245 -0.1792  2.4365
  746TIP3   OH223872   3.503   6.162   8.637  0.4143  1.3662 -0.0613
  746TIP3    H123873   3.598   6.163   8.652  0.5419 -0.9176 -0.3196
  746TIP3    H223874   3.488   6.231   8.572  1.7200  2.4990  0.7821
  747TIP3   OH223875   4.769   5.351   1.174  0.1726 -0.6065 -0.1495
  747TIP3    H123876   4.776   5.270   1.224 -0.0372  0.4134  1.6520
  747TIP3    H223877   4.830   5.411   1.218  1.2043 -0.1050 -2.1616
  748TIP3   OH223878   2.264   4.417   8.462  0.2051 -0.0388 -0.0162
  748TIP3    H123879   2.275   4.322   8.455 -0.1789 -0.0030 -1.2692
  748TIP3    H223880   2.245   4.446   8.373 -2.1098  0.9256  0.7214
  749TIP3   OH223881   2.892   1.226   1.072  0.1422 -0.0387 -0.0568
  749TIP3    H123882   2.914   1.196   1.160  2.4736  1.3038 -0.1146
  749TIP3    H223883   2.808   1.271   1.083 -1.1698 -2.4893  0.8330
  750TIP3   OH223884   5.914   2.097   2.740 -0.3849  0.1821  0.3587
  750TIP3    H123885   5.908   2.126   2.830  0.0579 -1.0632  0.8119
  750TIP3    H223886   5.883   2.171   2.688 -2.4161  0.2867  1.6141
  751TIP3   OH223887   1.550   6.329   2.779 -0.0616  0.1305 -0.2222
  751TIP3    H123888   1.507   6.282   2.707  0.1556 -1.3164  0.5430
  751TIP3    H223889   1.501   6.303   2.857  0.3540  0.8287  0.2836
  752TIP3   OH223890   4.972   6.697   1.475  0.5216  0.6217 -0.0308
  752TIP3    H123891   4.998   6.606   1.494 -1.1640 -0.1223 -1.0360
  752TIP3    H223892   5.001   6.746   1.552  0.0797 -1.0462  1.2815
  753TIP3   OH223893   6.641   0.659   0.154  0.5931  0.1292  0.1099
  753TIP3    H123894   6.575   0.677   0.221  1.6320  2.7050  0.5689
  753TIP3    H223895   6.608   0.701   0.075 -0.3108 -2.3365 -0.9392
  754TIP3   OH223896   5.128   3.216   7.373 -0.2401  0.0913 -0.0328
  754TIP3    H123897   5.128   3.138   7.427  0.0988  0.2013  0.1304
  754TIP3    H223898   5.200   3.203   7.312  0.2529  0.5660  0.4296
  755TIP3   OH223899   2.277   3.800   1.055  0.1835 -0.0738  0.4836
  755TIP3    H123900   2.326   3.767   1.130 -1.9156 -1.7418  1.2241
  755TIP3    H223901   2.324   3.768   0.978  1.7962  0.8083  1.0566
  756TIP3   OH223902   1.225   2.447   8.118  0.3170 -0.0703  0.0862
  756TIP3    H123903   1.209   2.354   8.136 -0.4876 -0.2299 -1.3391
  756TIP3    H223904   1.308   2.465   8.162  1.4117 -1.9402 -1.0770
  757TIP3   OH223905   5.723   5.143   1.158 -0.7089  0.0445 -0.1059
  757TIP3    H123906   5.726   5.064   1.212 -1.0882  1.0130  1.3937
  757TIP3    H223907   5.782   5.125   1.086 -0.1524 -1.2927  0.6433
  758TIP3   OH223908   5.351   5.132   1.000 -0.0456 -0.4160 -0.3495
  758TIP3    H123909   5.362   5.159   1.091 -1.0562 -2.3970  0.4339
  758TIP3    H223910   5.257   5.136   0.984  0.1200 -0.0670 -1.3254
  759TIP3   OH223911   4.668   3.790   6.932 -0.3063 -0.2375 -0.0889
  759TIP3    H123912   4.616   3.723   6.887  1.8114 -1.7535 -0.3993
  759TIP3    H223913   4.691   3.751   7.016  2.3637 -0.6846 -0.9417
  760TIP3   OH223914   2.295   5.840   8.190 -0.3047  0.0123 -0.5589
  760TIP3    H123915   2.263   5.893   8.262  0.7133  0.3958 -0.3662
  760TIP3    H223916   2.246   5.758   8.196  0.3692 -0.3072  1.1089
  761TIP3   OH223917   4.026   6.203   8.213  0.2061  0.1542  0.0641
  761TIP3    H123918   4.015   6.142   8.141  1.8426  1.3634 -1.2810
  761TIP3    H223919   4.048   6.148   8.288  1.3264 -0.9437 -1.0312
  762TIP3   OH223920   6.473   2.862   7.093 -0.1977  0.3747 -0.0431
  762TIP3    H123921   6.547   2.845   7.151 -0.1374 -0.2687 -0.2983
  762TIP3    H223922   6.449   2.776   7.059  0.4574  0.8394 -1.8062
  763TIP3   OH223923   5.485   3.267   6.483  0.5702  0.3242 -0.2055
  763TIP3    H123924   5.568   3.233   6.515  0.4636  1.5355  1.5340
  763TIP3    H223925   5.507   3.316   6.404  0.8302 -2.9101 -2.3013
  764TIP3   OH223926   6.813   3.335   7.784  0.2975  0.1263  0.1250
  764TIP3    H123927   6.835   3.263   7.844 -2.8764 -2.0566 -1.0202
  764TIP3    H223928   6.831   3.414   7.834  2.4029 -1.4557  2.1034
  765TIP3   OH223929   3.180   6.212   0.276 -0.2274  0.0357 -0.3025
  765TIP3    H123930   3.198   6.306   0.283 -0.2938  0.0645 -0.5107
  765TIP3    H223931   3.095   6.207   0.231  1.3710 -0.1748 -3.6114
  766TIP3   OH223932   5.289   1.117   0.068  0.1014  0.2292 -0.1819
  766TIP3    H123933   5.269   1.117   0.162 -0.9407  1.0886 -0.3925
  766TIP3    H223934   5.362   1.178   0.060 -0.0548  0.4444  0.0212
  767TIP3   OH223935   5.248   2.397   7.997 -0.2734 -0.4073 -0.4190
  767TIP3    H123936   5.340   2.423   7.993  0.0154 -1.1555  0.7721
  767TIP3    H223937   5.203   2.474   8.032  0.4725 -1.1244  2.4307
  768TIP3   OH223938   2.924   4.553   7.007  0.5856 -0.1412  0.4344
  768TIP3    H123939   2.942   4.509   7.091  2.8216 -0.5546 -0.1956
  768TIP3    H223940   2.915   4.482   6.944  0.7889  0.2040  0.0089
  769TIP3   OH223941   3.234   6.218   8.046  0.0794  0.4571 -0.1479
  769TIP3    H123942   3.221   6.298   7.996  2.1493  1.2388  0.4435
  769TIP3    H223943   3.326   6.195   8.030  0.2049 -0.4286  1.5999
  770TIP3   OH223944   4.753   3.553   1.175 -0.0574 -0.0580  0.2522
  770TIP3    H123945   4.742   3.644   1.148 -2.2090 -0.0640  0.9579
  770TIP3    H223946   4.702   3.502   1.112 -1.1561 -0.4931  1.4536
  771TIP3   OH223947   0.086   0.873   1.820 -0.1630  0.2075 -0.7046
  771TIP3    H123948   0.038   0.803   1.777  1.4250 -1.5051  0.1793
  771TIP3    H223949   0.038   0.953   1.798 -2.4898 -1.2272 -1.0568
  772TIP3   OH223950   4.419   1.226   8.343  0.7270  0.2790  0.0527
  772TIP3    H123951   4.455   1.226   8.254 -0.4117  0.7373 -0.4225
  772TIP3    H223952   4.447   1.142   8.380  1.7198  0.3392 -0.5161
  773TIP3   OH223953   1.256   0.001   0.671  0.6157 -0.3292 -0.6802
  773TIP3    H123954   1.345   0.016   0.706  0.4210  0.8464 -0.6517
  773TIP3    H223955   1.232  -0.086   0.704  0.5748  0.5721  1.8853
  774TIP3   OH223956   0.595   4.999   7.522  0.1597 -0.6312  0.3282
  774TIP3    H123957   0.678   4.991   7.569  0.5102  0.8766  0.0376
  774TIP3    H223958   0.612   4.958   7.437  0.1648 -1.5575  0.7736
  775TIP3   OH223959   6.543   5.774   7.229  0.2453 -0.2891 -0.1217
  775TIP3    H123960   6.530   5.805   7.140 -1.3408 -2.0523 -0.5544
  775TIP3    H223961   6.468   5.807   7.278 -0.5991 -1.9584 -0.2198
  776TIP3   OH223962   5.360   6.607   0.320 -0.3031  0.2629 -0.3411
  776TIP3    H123963   5.362   6.680   0.258  0.9795 -0.6025 -1.3543
  776TIP3    H223964   5.291   6.549   0.288 -0.7148  0.5741 -0.0385
  777TIP3   OH223965   3.694   5.176   1.492  0.1878  0.1337 -0.2380
  777TIP3    H123966   3.755   5.119   1.446  0.4887  0.2512  0.0154
  777TIP3    H223967   3.607   5.146   1.465  0.3546  1.4800 -2.4778
  778TIP3   OH223968   5.053   6.277   8.446  0.4191  0.2501  0.0513
  778TIP3    H123969   5.080   6.276   8.537  0.3308  1.3605  0.0969
  778TIP3    H223970   4.960   6.301   8.448 -0.4791 -2.6861 -0.1558
  779TIP3   OH223971   3.673   1.910   7.895  0.0033 -0.0773  0.0707
  779TIP3    H123972   3.723   1.894   7.815  2.5690  0.7228  1.3891
  779TIP3    H223973   3.737   1.944   7.957 -1.8559 -0.6891  2.5156
  780TIP3   OH223974   5.384   2.390   1.714  0.1399 -0.1428 -0.1296
  780TIP3    H123975   5.396   2.327   1.785  1.0538  0.1596 -0.0145
  780TIP3    H223976   5.363   2.473   1.758  1.2218  0.1651 -0.1863
  781TIP3   OH223977   0.985   2.502   7.648 -0.2538 -0.9394  0.4998
  781TIP3    H123978   0.994   2.421   7.597 -1.8532  0.4653 -2.2373
  781TIP3    H223979   1.065   2.551   7.630 -1.0223 -0.2371 -1.1741
  782TIP3   OH223980   2.932   3.779   0.408  0.1198  0.7615 -0.0764
  782TIP3    H123981   2.991   3.840   0.363 -0.6882  2.0388  0.5440
  782TIP3    H223982   2.871   3.750   0.340  0.6596  0.4360 -0.4297
  783TIP3   OH223983   5.010   0.517   1.702 -0.3143 -0.2129 -0.2156
  783TIP3    H123984   4.986   0.563   1.782 -2.9235 -0.8962 -0.5272
  783TIP3    H223985   5.059   0.441   1.733 -1.9315 -0.8809  0.8561
  784TIP3   OH223986   2.074   4.371   8.762  0.0229 -0.1977  0.1190
  784TIP3    H123987   2.022   4.372   8.842 -0.8046 -0.6702 -0.4028
  784TIP3    H223988   2.164   4.389   8.791 -0.6200  2.1972  0.8663
  785TIP3   OH223989   6.186   1.093   7.662  0.1179 -0.3223 -0.0576
  785TIP3    H123990   6.130   1.168   7.641 -0.1686 -0.9569 -1.7311
  785TIP3    H223991   6.125   1.021   7.674  0.5020 -0.7643 -0.7145
  786TIP3   OH223992   1.912   1.594   0.161  0.3508  0.1132  0.5387
  786TIP3    H123993   1.986   1.539   0.185  0.6412  0.8784  1.4636
  786TIP3    H223994   1.950   1.678   0.138 -0.1737  0.3019  0.3342
  787TIP3   OH223995   4.851   5.856   8.412  0.3053  0.1320 -0.0084
  787TIP3    H123996   4.942   5.839   8.388  0.2476  0.0147 -0.1493
  787TIP3    H223997   4.805   5.864   8.328  0.4618  1.7868  0.0430
  788TIP3   OH223998   5.048   2.693   7.837  0.6218  0.2069 -0.1991
  788TIP3    H123999   5.101   2.650   7.771  1.3578  0.6447  0.0867
  788TIP3    H224000   5.078   2.784   7.836  0.0293  0.4113  0.1224
  789TIP3   OH224001   2.850   2.690   1.878 -0.2989  0.0952  0.4005
  789TIP3    H124002   2.910   2.701   1.952 -0.4101 -1.8057  0.8200
  789TIP3    H224003   2.789   2.763   1.885  0.8850  1.0696  0.9900
  790TIP3   OH224004   5.559   6.716   8.213 -0.3118  0.7097 -0.7103
  790TIP3    H124005   5.600   6.671   8.139 -0.6128  0.7775 -0.9179
  790TIP3    H224006   5.630   6.768   8.251 -0.1592  0.6888 -0.9631
  791TIP3   OH224007   2.887   2.789   6.917 -0.7034  0.0683 -0.2053
  791TIP3    H124008   2.825   2.801   6.989 -0.6496  0.0686 -0.1593
  791TIP3    H224009   2.972   2.778   6.960 -1.1683 -4.5377  0.1192
  792TIP3   OH224010   2.015   4.917   7.999  0.4817  0.1880  0.0854
  792TIP3    H124011   1.989   4.941   7.910  0.7733  1.9174  0.4372
  792TIP3    H224012   1.959   4.970   8.056  0.9656 -0.1721  0.9278
  793TIP3   OH224013   0.493   6.235   6.934 -0.0858 -0.1965 -0.6104
  793TIP3    H124014   0.469   6.189   6.854 -0.0179  0.7443 -1.1847
  793TIP3    H224015   0.470   6.326   6.917  0.3053  0.0818  0.2894
  794TIP3   OH224016   2.231   1.163   0.128 -0.2203 -0.1963 -0.3988
  794TIP3    H124017   2.140   1.163   0.101 -1.0325  2.5323  1.7688
  794TIP3    H224018   2.281   1.150   0.048 -2.4610 -2.0938 -1.5957
  795TIP3   OH224019   3.425   5.847   0.349  0.1190  0.1996 -0.2586
  795TIP3    H124020   3.472   5.925   0.321  0.2790  0.1565 -0.1134
  795TIP3    H224021   3.347   5.844   0.294  0.5810 -0.0594 -0.9161
  796TIP3   OH224022   3.939   1.929   8.695 -0.8262  0.0941 -0.4990
  796TIP3    H124023   3.932   1.844   8.651  2.5675 -0.5605 -0.0458
  796TIP3    H224024   3.968   1.989   8.627  0.9748 -0.1209  0.0460
  797TIP3   OH224025   3.978   5.607   7.381  0.4668 -0.5628  0.6942
  797TIP3    H124026   4.034   5.564   7.446 -1.6087 -1.3042  2.0992
  797TIP3    H224027   4.008   5.572   7.297  2.7752 -0.1011  1.2700
  798TIP3   OH224028   6.223   2.069   8.555  0.1868 -0.2529  0.3553
  798TIP3    H124029   6.312   2.081   8.522  0.0187 -0.1508 -0.0699
  798TIP3    H224030   6.202   1.979   8.532 -0.2227  0.0604 -0.5439
  799TIP3   OH224031   5.697   2.617   2.073  0.2700  0.4217 -0.6150
  799TIP3    H124032   5.622   2.604   2.131  0.7287 -0.2176 -0.1555
  799TIP3    H224033   5.707   2.712   2.068 -0.5575  0.5176 -0.6730
  800TIP3   OH224034   3.100   3.174   0.836  0.4787  0.3542  0.1484
  800TIP3    H124035   3.168   3.119   0.875 -0.1296 -0.6178 -0.1317
  800TIP3    H224036   3.142   3.215   0.761  0.6656 -0.5471 -0.2592
  801TIP3   OH224037   2.189   1.346   1.337 -0.2568  0.3483  0.3200
  801TIP3    H124038   2.261   1.324   1.397 -0.0232  1.0308  0.2934
  801TIP3    H224039   2.116   1.370   1.395  0.1198  1.4872  0.3371
  802TIP3   OH224040   1.844   6.607   7.680 -0.0574  0.9604 -0.1472
  802TIP3    H124041   1.928   6.649   7.662  0.3752  0.6861  1.1194
  802TIP3    H224042   1.805   6.660   7.749  0.6898 -0.8399  1.8009
  803TIP3   OH224043   4.649   2.504   7.932  0.4223 -0.3202  0.6496
  803TIP3    H124044   4.649   2.593   7.898  0.3644  0.1443  1.7901
  803TIP3    H224045   4.741   2.487   7.954  0.2020  0.1609  2.0889
  804TIP3   OH224046   1.359   5.784   0.553  0.3092 -0.1118  0.6383
  804TIP3    H124047   1.321   5.845   0.489 -1.1306 -2.2881 -0.7524
  804TIP3    H224048   1.398   5.840   0.620 -0.8892  2.3007 -0.5441
  805TIP3   OH224049   1.361   1.443   8.223 -0.5202 -0.3770  0.9203
  805TIP3    H124050   1.365   1.537   8.241 -1.0889 -0.0996 -0.2978
  805TIP3    H224051   1.449   1.421   8.190 -0.8153  0.0554 -0.2028
  806TIP3   OH224052   3.091   3.464   7.472 -0.3676 -0.3956 -0.1205
  806TIP3    H124053   3.026   3.416   7.524  0.3824 -2.3924 -0.9002
  806TIP3    H224054   3.137   3.519   7.535 -0.3618 -1.7366  1.1008
  807TIP3   OH224055   5.345   6.546   8.364  0.6460 -0.4909 -0.3284
  807TIP3    H124056   5.406   6.587   8.303  1.6086  1.3223  1.7325
  807TIP3    H224057   5.279   6.613   8.382  0.3781 -0.9884  0.6156
  808TIP3   OH224058   3.575   3.041   7.424  0.2108  0.2896  0.0444
  808TIP3    H124059   3.487   3.075   7.402 -0.9742 -1.7797  1.3388
  808TIP3    H224060   3.579   3.045   7.519  1.1566 -0.5253  0.0477
  809TIP3   OH224061   2.948   2.474   1.685  0.2271  0.4415 -0.1172
  809TIP3    H124062   2.906   2.470   1.599  1.5804 -0.3061 -0.7810
  809TIP3    H224063   3.021   2.413   1.679  0.8697  1.0151  1.2902
  810TIP3   OH224064   5.978   3.159   8.640 -0.5962  0.0494  0.5218
  810TIP3    H124065   5.941   3.163   8.553 -0.1973  0.3747  0.3646
  810TIP3    H224066   5.911   3.197   8.697 -1.6766 -1.9075  0.6472
  811TIP3   OH224067   1.460   4.995   7.912 -0.1366 -0.5253  0.1259
  811TIP3    H124068   1.531   5.036   7.864 -0.1329 -1.2691 -0.5299
  811TIP3    H224069   1.397   5.065   7.929  0.5021  0.0211  0.2409
  812TIP3   OH224070   0.606   2.946   0.854 -0.1811  0.4067  0.1114
  812TIP3    H124071   0.616   2.923   0.762  1.1332 -1.1169  0.5908
  812TIP3    H224072   0.648   3.031   0.863  2.1341 -0.6183 -0.2309
  813TIP3   OH224073   3.223   2.131   0.804  0.2691 -0.0542 -0.2948
  813TIP3    H124074   3.229   2.046   0.848 -0.8514  0.3079  0.6084
  813TIP3    H224075   3.246   2.113   0.713  2.5924 -0.8457  0.3624
  814TIP3   OH224076   5.769   1.478   7.882  0.6630  0.0824  0.0403
  814TIP3    H124077   5.726   1.522   7.809 -0.5795 -0.6493  0.2938
  814TIP3    H224078   5.728   1.515   7.960  2.1594  1.0480  0.4195
  815TIP3   OH224079   4.896   5.321   6.894  0.4156  0.1824 -0.7239
  815TIP3    H124080   4.974   5.373   6.876 -1.1403  2.7722 -0.5653
  815TIP3    H224081   4.868   5.349   6.981  0.6733 -2.6190  0.3499
  816TIP3   OH224082   3.042   4.878   1.072  0.0024 -0.0139  0.5004
  816TIP3    H124083   2.960   4.895   1.118  0.0275  0.9506  0.2231
  816TIP3    H224084   3.098   4.951   1.097  0.7834 -0.6599  0.6785
  817TIP3   OH224085   3.084   1.174   0.868 -0.2978 -0.0483  0.1213
  817TIP3    H124086   3.010   1.196   0.925 -1.8374  0.5380 -1.9798
  817TIP3    H224087   3.147   1.245   0.882 -1.5678  1.2329 -0.3878
  818TIP3   OH224088   3.485   5.536   0.030  0.4595  0.2830  0.3986
  818TIP3    H124089   3.516   5.626   0.038 -0.2544  0.4021  2.2114
  818TIP3    H224090   3.447   5.516   0.115  1.2880 -2.0086  0.2968
  819TIP3   OH224091   0.697   0.587   0.451 -0.3580  0.0082  0.3596
  819TIP3    H124092   0.769   0.645   0.424 -0.0942 -0.2504  0.4996
  819TIP3    H224093   0.689   0.525   0.379 -0.5064  0.0947  0.3012
  820TIP3   OH224094   3.711   6.712   7.387 -0.0586 -0.8873 -0.5127
  820TIP3    H124095   3.694   6.684   7.477 -2.6156 -0.7222 -0.8639
  820TIP3    H224096   3.648   6.662   7.334  0.6865 -0.2371 -2.0941
  821TIP3   OH224097   0.890   5.991   2.689  0.2587  0.1960 -0.0139
  821TIP3    H124098   0.849   5.908   2.662 -0.9773  1.2223 -1.4331
  821TIP3    H224099   0.983   5.969   2.701  0.4005 -0.9368 -2.5705
  822TIP3   OH224100   6.502   0.221   1.353 -0.1986  0.2549  0.7021
  822TIP3    H124101   6.560   0.194   1.424  0.7442 -1.8426 -0.7786
  822TIP3    H224102   6.555   0.282   1.301 -0.1322  0.0935  0.5830
  823TIP3   OH224103   0.134   1.998   0.025  0.2049  0.2342 -0.6100
  823TIP3    H124104   0.054   2.050   0.029  0.7474  1.3403 -2.7267
  823TIP3    H224105   0.184   2.025   0.102 -0.4597  1.2722 -0.5203
  824TIP3   OH224106   3.576   6.150   7.276  0.4358 -0.0430 -0.1285
  824TIP3    H124107   3.482   6.133   7.272  0.5163 -0.6465  0.2862
  824TIP3    H224108   3.616   6.068   7.247  0.8355  0.0215  0.2341
  825TIP3   OH224109   0.840   0.345   7.411 -0.2778 -0.7710  0.0358
  825TIP3    H124110   0.928   0.379   7.397 -0.7148  0.4095  0.0749
  825TIP3    H224111   0.814   0.309   7.326  0.3527 -1.3981  0.1061
  826TIP3   OH224112   1.258   3.954   0.693 -0.0274  0.1125 -0.4064
  826TIP3    H124113   1.284   4.022   0.631  1.0153 -0.5182 -0.6984
  826TIP3    H224114   1.315   3.967   0.769 -1.8099  1.3435  0.7691
  827TIP3   OH224115   5.706   4.596   2.476  0.2278  0.2836 -0.1145
  827TIP3    H124116   5.701   4.689   2.457 -0.6115 -0.0037 -1.4436
  827TIP3    H224117   5.651   4.584   2.554 -0.7049  0.7321 -0.6863
  828TIP3   OH224118   6.340   4.581   0.211  0.1250 -0.2798 -0.3130
  828TIP3    H124119   6.313   4.532   0.133 -1.4889  2.1365 -1.3955
  828TIP3    H224120   6.392   4.653   0.178 -2.2417  1.9723  0.4880
  829TIP3   OH224121   4.279   1.435   8.013  0.4016  0.2572  0.6346
  829TIP3    H124122   4.373   1.420   8.023  0.5252  2.1096  3.3155
  829TIP3    H224123   4.268   1.464   7.923  2.2646 -0.7578  0.0355
  830TIP3   OH224124   1.745   1.260   8.255 -0.4680  0.3164 -0.0387
  830TIP3    H124125   1.718   1.328   8.193 -1.6463 -0.2214 -0.1608
  830TIP3    H224126   1.662   1.220   8.283  0.0864  0.1685  1.4561
  831TIP3   OH224127   5.081   6.083   6.877  0.5105 -0.1498  0.0265
  831TIP3    H124128   5.166   6.095   6.919 -0.1086 -0.5129  1.4645
  831TIP3    H224129   5.031   6.161   6.902  0.2128 -0.2526 -0.2442
  832TIP3   OH224130   3.940   2.111   8.471  0.4273  0.0989 -0.0440
  832TIP3    H124131   3.993   2.046   8.427 -1.6817 -2.0140  0.3352
  832TIP3    H224132   3.925   2.179   8.404  1.2257 -0.6521 -1.0145
  833TIP3   OH224133   2.085   6.743   7.584 -0.0040  0.2046 -0.3782
  833TIP3    H124134   2.170   6.704   7.563 -0.4960 -0.9468 -0.3054
  833TIP3    H224135   2.107   6.820   7.636  0.9704 -0.5914  0.4456
  834TIP3   OH224136   0.112   6.075   8.338  0.9013 -0.1710  0.6321
  834TIP3    H124137   0.132   6.122   8.257  0.8611  0.6332  1.0731
  834TIP3    H224138   0.026   6.109   8.364  0.3000 -1.4076  0.3143
  835TIP3   OH224139   0.311   1.794   8.056 -0.3130  0.1377  0.6887
  835TIP3    H124140   0.378   1.771   8.120  0.7545 -0.6959 -0.6802
  835TIP3    H224141   0.295   1.888   8.070 -1.0303 -0.2764  2.9756
  836TIP3   OH224142   0.681   3.519   7.859  0.1240 -0.1043  0.0499
  836TIP3    H124143   0.590   3.495   7.878  0.5487 -2.3213 -0.4203
  836TIP3    H224144   0.674   3.580   7.786 -1.0181  0.4617  0.5977
  837TIP3   OH224145   3.698   5.743   7.001  0.6136 -0.4167 -0.1274
  837TIP3    H124146   3.655   5.680   7.059  1.2711  0.9446  1.9562
  837TIP3    H224147   3.630   5.807   6.979 -0.0162 -1.6758 -2.1264
  838TIP3   OH224148   5.831   4.565   1.456  0.1538 -0.3013  0.0603
  838TIP3    H124149   5.892   4.639   1.461  0.1867 -0.3098 -0.1995
  838TIP3    H224150   5.775   4.575   1.533 -1.7587  1.6915 -1.4209
  839TIP3   OH224151   1.026   4.124   6.326 -0.1337 -0.4284  0.4276
  839TIP3    H124152   0.964   4.053   6.341 -0.5274 -0.4008 -0.9545
  839TIP3    H224153   1.047   4.118   6.233 -0.2144  1.2902  0.2748
  840TIP3   OH224154   5.208   0.735   7.862  0.3783  0.2303 -0.0823
  840TIP3    H124155   5.194   0.641   7.847  1.2752  0.3501 -1.9727
  840TIP3    H224156   5.184   0.748   7.954  0.5355 -1.9087  0.3226
  841TIP3   OH224157   4.465   6.507   8.132 -0.6055 -0.0699  0.8038
  841TIP3    H124158   4.397   6.565   8.097  1.6280  1.5491 -1.1349
  841TIP3    H224159   4.448   6.506   8.227 -1.6281  2.6223  0.7386
  842TIP3   OH224160   0.617   2.159   8.338 -0.4379 -0.3078 -0.2587
  842TIP3    H124161   0.645   2.168   8.247  0.6642  0.8618  0.1702
  842TIP3    H224162   0.657   2.233   8.384  1.5025 -2.4421  1.7695
  843TIP3   OH224163   3.880   1.046   8.757 -0.6649  0.6383 -0.3817
  843TIP3    H124164   3.905   0.960   8.792 -1.1765  0.2941 -0.8315
  843TIP3    H224165   3.807   1.074   8.812 -0.2299  0.9771  0.0244
  844TIP3   OH224166   1.750   0.198   7.694 -0.3171 -0.4682  0.3386
  844TIP3    H124167   1.765   0.221   7.603 -1.6930 -0.0348  0.1958
  844TIP3    H224168   1.727   0.105   7.692 -0.5322 -0.4122  0.2236
  845TIP3   OH224169   5.441   5.381   7.406  0.2047  0.0542  0.6066
  845TIP3    H124170   5.490   5.371   7.325 -0.7718 -0.3755  0.0452
  845TIP3    H224171   5.477   5.459   7.447 -0.8570  1.7264 -1.4220
  846TIP3   OH224172   4.982   3.206   2.144 -0.4369 -0.2716  0.0477
  846TIP3    H124173   4.904   3.165   2.107 -0.7257  0.0571  0.2774
  846TIP3    H224174   4.978   3.297   2.112 -0.2854 -0.1870  0.2681
  847TIP3   OH224175   2.569   4.331   5.954  0.0366  0.1105 -0.4071
  847TIP3    H124176   2.583   4.340   6.048  1.8063  1.1100 -0.7370
  847TIP3    H224177   2.563   4.236   5.940 -1.7938 -0.0375  0.8643
  848TIP3   OH224178   5.413   6.002   6.544 -0.2027  0.5049  0.5367
  848TIP3    H124179   5.459   6.076   6.582  0.4783 -0.0666  0.8493
  848TIP3    H224180   5.454   5.925   6.583 -0.6579 -0.0518 -0.0458
  849TIP3   OH224181   5.525   1.449   1.565 -0.2031 -0.0130  0.5876
  849TIP3    H124182   5.513   1.367   1.517 -0.3000  1.4201 -1.9695
  849TIP3    H224183   5.618   1.469   1.553 -0.8442  1.9456 -1.8574
  850TIP3   OH224184   0.951   4.581   8.468  0.0233 -0.6518  0.4517
  850TIP3    H124185   0.926   4.630   8.545  0.5356  0.2983  0.0329
  850TIP3    H224186   0.869   4.554   8.428 -0.3560  1.3846 -0.2600
  851TIP3   OH224187   2.207   6.516   0.952 -0.3561 -0.2534  0.0555
  851TIP3    H124188   2.208   6.591   1.012 -0.0682 -0.9398  0.9230
  851TIP3    H224189   2.225   6.554   0.866  0.8566  0.5472  0.6363
  852TIP3   OH224190   3.157   5.716   7.208  0.3368  0.4419  0.4123
  852TIP3    H124191   3.115   5.630   7.214 -0.4321  0.9123  2.3762
  852TIP3    H224192   3.105   5.763   7.143  0.5339 -0.4299 -0.4009
  853TIP3   OH224193   4.953   2.588   7.145 -0.4091 -0.5457 -0.2763
  853TIP3    H124194   4.862   2.618   7.136 -0.0103  1.3577  1.2314
  853TIP3    H224195   4.968   2.589   7.240  1.6183  0.6789 -0.5597
  854TIP3   OH224196   6.406   2.383   7.909 -0.4986 -0.4101 -0.4963
  854TIP3    H124197   6.477   2.341   7.861 -0.8860 -0.9956 -0.5637
  854TIP3    H224198   6.383   2.320   7.977 -1.3155 -0.4609 -0.8112
  855TIP3   OH224199   6.164   3.240   6.857  0.1527 -0.2365 -0.4549
  855TIP3    H124200   6.194   3.214   6.944  0.5673  0.5773 -0.3457
  855TIP3    H224201   6.080   3.196   6.847  0.1302 -0.3926  0.3303
  856TIP3   OH224202   5.309   4.271   1.694 -0.4485  0.1493 -0.4005
  856TIP3    H124203   5.358   4.287   1.613 -0.6897 -0.6904 -0.7211
  856TIP3    H224204   5.355   4.198   1.736 -0.7134  0.1478 -0.1117
  857TIP3   OH224205   6.541   1.256   8.047  0.1520 -0.0633  0.5939
  857TIP3    H124206   6.471   1.313   8.018  0.2588 -0.6410 -0.9026
  857TIP3    H224207   6.622   1.305   8.029  0.1922  0.7562  2.6512
  858TIP3   OH224208   2.504   5.357   0.280  0.1170 -0.2604  0.1288
  858TIP3    H124209   2.544   5.280   0.241 -0.2132 -0.5382  0.3332
  858TIP3    H224210   2.455   5.398   0.209 -2.0482 -1.7980  0.6478
  859TIP3   OH224211   5.171   0.814   0.665 -0.1279 -0.3208 -0.2306
  859TIP3    H124212   5.218   0.789   0.586  0.2048  2.1168 -0.8841
  859TIP3    H224213   5.141   0.904   0.648 -0.4317  0.1178  2.2283
  860TIP3   OH224214   4.090   0.877   0.547  0.1728  0.6448  0.6233
  860TIP3    H124215   4.034   0.821   0.493 -0.5700  0.9026  1.1190
  860TIP3    H224216   4.156   0.910   0.486 -1.4105  1.9781 -0.4729
  861TIP3   OH224217   4.406   3.099   6.769  0.2727  0.2729 -0.3691
  861TIP3    H124218   4.475   3.165   6.766  0.3034  0.2872  0.3983
  861TIP3    H224219   4.379   3.097   6.861 -0.9372  0.4573 -0.7049
  862TIP3   OH224220   6.372   6.256   8.301 -0.0746 -0.3496 -0.2651
  862TIP3    H124221   6.391   6.303   8.220  1.0254  0.2496  0.3096
  862TIP3    H224222   6.458   6.224   8.330 -0.4520 -0.5694  0.6469
  863TIP3   OH224223   2.769   1.854   7.525 -0.0641 -0.4208  0.0284
  863TIP3    H124224   2.843   1.823   7.473  0.9252 -0.4986  1.4156
  863TIP3    H224225   2.712   1.778   7.534  0.8001 -0.9980  0.7895
  864TIP3   OH224226   2.351   4.139   0.539  0.4443  0.7223  0.1619
  864TIP3    H124227   2.302   4.212   0.577  0.6547  1.5560 -1.0941
  864TIP3    H224228   2.349   4.071   0.606 -1.6795  1.0461  0.4808
  865TIP3   OH224229   1.510   0.183   8.062  0.0442 -0.3457 -0.0486
  865TIP3    H124230   1.473   0.244   7.999 -0.9657 -0.1551  0.6895
  865TIP3    H224231   1.479   0.097   8.034  1.0385 -0.4846 -0.7891
  866TIP3   OH224232   4.506   0.286   0.894 -0.6553  0.2938 -0.7667
  866TIP3    H124233   4.525   0.346   0.821 -2.4469  1.2515 -0.5137
  866TIP3    H224234   4.582   0.292   0.951 -1.1993  3.3079 -0.1631
  867TIP3   OH224235   4.775   2.175   1.930  0.3038 -0.6404  0.3718
  867TIP3    H124236   4.857   2.220   1.914 -0.0309 -0.0066  0.4063
  867TIP3    H224237   4.707   2.239   1.910 -0.2325 -1.6348 -1.2038
  868TIP3   OH224238   6.166   5.442   0.253 -0.1274  0.1387  0.2298
  868TIP3    H124239   6.173   5.347   0.260  0.6664  0.2883  1.8140
  868TIP3    H224240   6.185   5.461   0.161 -1.0935 -1.2779 -0.2947
  869TIP3   OH224241   1.176   6.040   1.295 -0.8299 -0.2085  0.0384
  869TIP3    H124242   1.155   5.947   1.303  0.6118 -0.5131  0.5855
  869TIP3    H224243   1.250   6.043   1.235 -1.4029  0.6813 -0.6468
  870TIP3   OH224244   0.682   3.806   8.300 -0.3022  0.2124  0.1991
  870TIP3    H124245   0.594   3.783   8.272 -0.7116  2.3037 -0.3631
  870TIP3    H224246   0.725   3.840   8.222  0.1533  1.5675  1.0072
  871TIP3   OH224247   4.746   3.478   7.020 -0.0072 -0.0966 -0.6860
  871TIP3    H124248   4.801   3.532   7.077 -0.1957  0.8453 -1.3815
  871TIP3    H224249   4.768   3.388   7.044 -0.1790  0.2629  0.9725
  872TIP3   OH224250   2.190   3.048   8.465 -0.1624  0.3792 -0.5275
  872TIP3    H124251   2.234   2.994   8.530  0.3080 -1.2997 -2.1503
  872TIP3    H224252   2.232   3.024   8.382 -0.9346  2.2155 -1.5114
  873TIP3   OH224253   5.095   1.576   1.414  0.0743 -0.2835  0.2716
  873TIP3    H124254   5.017   1.622   1.445  0.6407  0.3406  0.8005
  873TIP3    H224255   5.161   1.644   1.403  0.0327 -0.5318 -1.9376
  874TIP3   OH224256   4.151   1.253   1.059  0.1578 -0.3700 -0.1776
  874TIP3    H124257   4.102   1.171   1.064 -1.3660  0.5646  1.1465
  874TIP3    H224258   4.084   1.321   1.055  1.3824  0.8559 -0.9598
  875TIP3   OH224259   3.579   6.047   0.689 -0.7902 -0.1387 -0.2467
  875TIP3    H124260   3.488   6.074   0.676 -1.0565 -1.1005 -0.4616
  875TIP3    H224261   3.592   5.976   0.627  0.0628 -0.1139 -0.1035
  876TIP3   OH224262   3.114   2.813   0.926 -0.6589 -0.3882 -0.3189
  876TIP3    H124263   3.109   2.775   0.838  1.0802  0.1562 -0.6864
  876TIP3    H224264   3.094   2.739   0.984  1.1900 -1.5528 -1.0793
  877TIP3   OH224265   6.334   2.822   1.851 -0.1943  0.7821 -0.0834
  877TIP3    H124266   6.384   2.883   1.905 -1.0212 -0.0328  1.6843
  877TIP3    H224267   6.248   2.862   1.843 -0.9308 -0.3270  1.5830
  878TIP3   OH224268   1.119   3.136   1.228 -0.4233 -0.0401 -0.2048
  878TIP3    H124269   1.093   3.150   1.137 -1.7767  0.3685  0.2151
  878TIP3    H224270   1.208   3.102   1.223 -0.2292  0.6134 -1.6471
  879TIP3   OH224271   4.693   5.616   7.829  0.7884  0.7141  0.1526
  879TIP3    H124272   4.705   5.607   7.923  1.7758  0.1926 -0.0147
  879TIP3    H224273   4.771   5.576   7.790  0.1195  0.3806 -0.8995
  880TIP3   OH224274   5.639   3.150   8.469 -0.3689  0.0334 -0.3339
  880TIP3    H124275   5.602   3.183   8.387  1.6317  1.7503 -0.6259
  880TIP3    H224276   5.729   3.126   8.447  0.6956  1.9228  1.6169
  881TIP3   OH224277   2.082   5.223   7.710 -0.2459 -0.5883 -0.3339
  881TIP3    H124278   2.093   5.135   7.674 -1.6588 -0.2869 -1.5983
  881TIP3    H224279   2.117   5.280   7.642 -0.6361 -0.1016 -0.1253
  882TIP3   OH224280   5.615   0.193   1.263 -0.2768 -0.0997 -0.8741
  882TIP3    H124281   5.604   0.272   1.316 -1.3102 -0.4083 -0.6164
  882TIP3    H224282   5.632   0.225   1.175 -1.9002  0.4339 -1.0256
  883TIP3   OH224283   2.586   2.154   7.399 -0.2067  0.2244  0.2076
  883TIP3    H124284   2.568   2.100   7.323 -1.5268  1.3180 -0.3024
  883TIP3    H224285   2.501   2.193   7.422  0.4947  1.2728  1.1720
  884TIP3   OH224286   3.460   4.387   1.331  0.0528 -0.1217  0.4780
  884TIP3    H124287   3.541   4.379   1.281  0.2671 -0.4990  0.8733
  884TIP3    H224288   3.399   4.431   1.272  0.8902  1.2053  0.5706
  885TIP3   OH224289   2.739   3.562   0.876 -0.1616  0.5386  0.0061
  885TIP3    H124290   2.651   3.573   0.912  0.4989  1.7539  1.3256
  885TIP3    H224291   2.763   3.648   0.842  1.1897  0.7110  1.2894
  886TIP3   OH224292   6.473   0.435   2.642  0.0147  0.5160  0.4699
  886TIP3    H124293   6.481   0.347   2.679 -0.9850 -1.0154 -2.6124
  886TIP3    H224294   6.380   0.457   2.652 -0.4818 -0.3418 -1.8340
  887TIP3   OH224295   4.725   0.039   8.727 -0.6159 -0.5643 -0.1984
  887TIP3    H124296   4.743  -0.050   8.696  1.2557 -0.3095 -0.0008
  887TIP3    H224297   4.802   0.061   8.780 -0.9329  1.2521 -0.4256
  888TIP3   OH224298   1.779   1.655   1.719 -0.9758 -0.6411  0.0732
  888TIP3    H124299   1.720   1.721   1.683 -0.6626 -0.4465 -0.0838
  888TIP3    H224300   1.824   1.699   1.791 -1.2394 -0.8816  0.3903
  889TIP3   OH224301   6.537   1.492   1.710  0.0606 -0.2797  0.4512
  889TIP3    H124302   6.442   1.504   1.705 -0.1355 -1.8180 -0.0924
  889TIP3    H224303   6.549   1.439   1.790  0.3560 -0.8766  0.0179
  890TIP3   OH224304   6.359   5.969   0.835  0.1006 -0.1050  0.1590
  890TIP3    H124305   6.273   6.006   0.813  0.8383  1.4046 -0.3713
  890TIP3    H224306   6.395   6.030   0.899  0.8640 -0.6140  0.2168
  891TIP3   OH224307   6.071   2.076   0.946 -0.3359  0.0360 -0.0797
  891TIP3    H124308   6.068   2.114   1.034  0.3973  0.3321 -0.1787
  891TIP3    H224309   6.025   1.992   0.955 -2.0450  0.9614  0.1186
  892TIP3   OH224310   4.659   3.957   7.318 -0.1945 -0.3371 -0.2167
  892TIP3    H124311   4.643   3.886   7.256 -0.2595 -1.9931  1.5851
  892TIP3    H224312   4.687   3.913   7.398 -0.2446  1.6903  0.9946
  893TIP3   OH224313   0.785   1.220   7.518  0.2767 -0.7241 -0.2879
  893TIP3    H124314   0.743   1.217   7.604 -0.7549  0.4190 -0.7200
  893TIP3    H224315   0.717   1.189   7.457  0.0750  0.9929 -0.9813
  894TIP3   OH224316   1.424   6.404   0.552 -0.3330  0.0821  0.0389
  894TIP3    H124317   1.431   6.314   0.584 -0.2464  0.2401  0.4662
  894TIP3    H224318   1.332   6.413   0.525 -0.2264 -0.2854 -0.4694
  895TIP3   OH224319   5.555   1.076   6.874 -0.2184 -0.4163 -0.0815
  895TIP3    H124320   5.538   1.156   6.825  0.2676 -1.1856 -1.5727
  895TIP3    H224321   5.473   1.028   6.871 -1.0639  0.7100  2.2926
  896TIP3   OH224322   3.456   5.575   7.108  0.3464  0.0125 -0.4678
  896TIP3    H124323   3.423   5.539   7.190  1.4368  0.8299  0.3519
  896TIP3    H224324   3.379   5.579   7.051 -0.3275 -1.0128  0.3346
  897TIP3   OH224325   3.745   5.418   0.016 -0.2996 -0.5077  0.4408
  897TIP3    H124326   3.768   5.382  -0.070  0.5111 -1.6694  1.1096
  897TIP3    H224327   3.652   5.441   0.009 -0.3307 -0.9199 -0.6369
  898TIP3   OH224328   5.107   4.557   2.095  0.2505 -0.6150 -0.7499
  898TIP3    H124329   5.020   4.576   2.131  0.2918 -0.9305 -0.4781
  898TIP3    H224330   5.145   4.643   2.078 -0.1878 -0.4766 -1.0461
  899TIP3   OH224331   3.704   5.983   7.873  0.0294  0.1674  0.0392
  899TIP3    H124332   3.637   5.915   7.885 -0.3103  0.4813 -0.0818
  899TIP3    H224333   3.762   5.947   7.806 -0.3289  0.1263 -0.2548
  900TIP3   OH224334   1.350   6.632   8.297 -0.2711 -0.4653  0.1752
  900TIP3    H124335   1.312   6.554   8.256 -1.0513 -0.4766  0.8843
  900TIP3    H224336   1.274   6.678   8.333  0.2795  0.1527  0.5479
  901TIP3   OH224337   5.396   1.950   7.888 -0.1305 -0.3654  0.8018
  901TIP3    H124338   5.426   1.874   7.838  0.3139  0.4486 -0.1977
  901TIP3    H224339   5.301   1.942   7.888 -0.2581  0.4638 -1.6080
  902TIP3   OH224340   1.055   1.597   0.881  0.1295 -0.9183 -0.4007
  902TIP3    H124341   1.006   1.566   0.805  1.4479  3.3650 -3.3876
  902TIP3    H224342   1.004   1.672   0.913  1.4150 -0.4491  0.6255
  903TIP3   OH224343   4.398   3.510   1.139  0.3761  0.1511  0.1401
  903TIP3    H124344   4.333   3.454   1.097 -1.4509  2.5879 -0.5410
  903TIP3    H224345   4.465   3.450   1.172 -2.0232 -2.4668  0.5785
  904TIP3   OH224346   3.982   0.835   0.090 -0.3133 -0.2951 -0.4180
  904TIP3    H124347   4.020   0.833   0.178 -0.0525  2.6328 -0.3628
  904TIP3    H224348   3.935   0.752   0.082  1.9330 -1.8650  1.3953
  905TIP3   OH224349   4.705   0.816   6.889 -0.1333  0.2175 -0.1357
  905TIP3    H124350   4.795   0.812   6.922  0.5636 -2.1297 -2.0109
  905TIP3    H224351   4.674   0.725   6.894 -2.0728  0.8287 -0.4061
  906TIP3   OH224352   2.250   3.524   0.748 -0.5390  0.0958 -0.0721
  906TIP3    H124353   2.215   3.527   0.837  0.5000  0.0193  0.3546
  906TIP3    H224354   2.312   3.598   0.744  0.5464 -0.7950 -0.2317
  907TIP3   OH224355   3.526   3.567   6.969 -0.2213 -0.1248  1.0488
  907TIP3    H124356   3.513   3.539   7.060 -0.9152 -1.4139  0.5833
  907TIP3    H224357   3.615   3.601   6.967 -0.7651  1.5262  2.5817
  908TIP3   OH224358   0.438   5.082   0.513 -0.0915  0.5129 -0.7758
  908TIP3    H124359   0.359   5.028   0.509 -0.2731  0.7123 -0.0659
  908TIP3    H224360   0.416   5.152   0.575  0.8690  0.1811 -0.0304
  909TIP3   OH224361   6.202   3.644   1.537 -0.8287  0.4170 -0.4118
  909TIP3    H124362   6.107   3.653   1.539 -1.0203 -1.1629 -1.1064
  909TIP3    H224363   6.221   3.610   1.450  0.2508 -0.5283  0.1632
  910TIP3   OH224364   1.849   5.722   6.937  0.2137  0.2580  0.3722
  910TIP3    H124365   1.779   5.678   6.888 -0.4679 -1.7921  2.9485
  910TIP3    H224366   1.803   5.789   6.988  0.4804  0.4616  0.3445
  911TIP3   OH224367   0.580   3.312   1.713  0.2324  0.1032  0.1562
  911TIP3    H124368   0.582   3.336   1.805 -0.1329  0.2569  0.1241
  911TIP3    H224369   0.490   3.284   1.697 -0.0190  1.1861 -0.4270
  912TIP3   OH224370   6.153   6.385   7.979 -0.5660 -0.0217  0.3853
  912TIP3    H124371   6.096   6.352   7.909  0.3633 -0.2028 -0.3189
  912TIP3    H224372   6.124   6.474   7.995 -0.0919  0.4174 -1.0444
  913TIP3   OH224373   0.800   1.219   1.468 -0.1809 -0.5105  0.7726
  913TIP3    H124374   0.802   1.226   1.373  0.2255 -0.2469  0.7976
  913TIP3    H224375   0.777   1.307   1.498  1.2194 -0.1896  0.9641
  914TIP3   OH224376   2.809   5.069   8.255  0.0216 -0.0568  0.1410
  914TIP3    H124377   2.733   5.074   8.197  0.0782 -1.9067 -0.1663
  914TIP3    H224378   2.856   5.151   8.242 -1.5095  0.7911 -0.2347
  915TIP3   OH224379   2.823   6.530   1.403 -0.1461  0.3851  0.5955
  915TIP3    H124380   2.770   6.592   1.453 -0.3990 -0.1926  1.0577
  915TIP3    H224381   2.789   6.444   1.428 -1.4846  0.1030 -1.8653
  916TIP3   OH224382   4.302   3.982   0.114  0.2312  0.2827 -0.2061
  916TIP3    H124383   4.337   4.071   0.115  0.8184  0.0963  2.3241
  916TIP3    H224384   4.346   3.938   0.187 -2.1737 -1.2095  0.4575
  917TIP3   OH224385   5.715   4.512   6.946 -0.0536 -0.5119 -0.0493
  917TIP3    H124386   5.779   4.463   6.998 -0.5579 -1.0415  0.0882
  917TIP3    H224387   5.760   4.530   6.864 -0.1848 -2.1524 -0.5354
  918TIP3   OH224388   2.988   5.417   7.742 -0.1422  0.6152  0.6860
  918TIP3    H124389   3.051   5.470   7.694 -2.1235  3.4190  1.0014
  918TIP3    H224390   3.013   5.427   7.834 -0.5927  1.1260  0.7557
  919TIP3   OH224391   4.858   6.672   2.181  0.0232 -0.0515  0.1412
  919TIP3    H124392   4.883   6.738   2.246  1.0359 -0.5745  0.3128
  919TIP3    H224393   4.842   6.722   2.101 -1.0471  0.5780  0.7324
  920TIP3   OH224394   1.152   2.560   0.018  0.6732  0.0874  0.0011
  920TIP3    H124395   1.113   2.551   0.105 -2.2622  3.3024 -0.7598
  920TIP3    H224396   1.221   2.625   0.030  0.8829 -0.1536  0.0957
  921TIP3   OH224397   4.689   6.549   6.905 -0.1094 -0.4660 -0.0739
  921TIP3    H124398   4.691   6.596   6.822  0.7516  0.7046  0.5777
  921TIP3    H224399   4.637   6.605   6.963 -0.6823 -1.2559  0.1979
  922TIP3   OH224400   4.198   1.680   2.014 -0.0001 -0.0224  0.6326
  922TIP3    H124401   4.202   1.597   1.966  0.4765 -0.3494  1.2226
  922TIP3    H224402   4.150   1.659   2.094  2.1636 -0.3421  1.9371
  923TIP3   OH224403   5.644   4.139   8.813  0.4201  0.4124 -0.7076
  923TIP3    H124404   5.619   4.194   8.887  1.1825 -1.4493  1.0426
  923TIP3    H224405   5.562   4.123   8.766 -1.2894 -2.4981  2.7598
  924TIP3   OH224406   4.973   0.042   0.025  0.3805 -0.3307 -0.5966
  924TIP3    H124407   5.026  -0.028  -0.012  0.1235 -1.2060  0.6362
  924TIP3    H224408   4.987   0.035   0.120 -1.6004 -0.3198 -0.2740
  925TIP3   OH224409   3.797   4.601   0.047  0.6238 -0.4414 -0.6024
  925TIP3    H124410   3.702   4.610   0.039  0.5708 -1.1635 -0.8422
  925TIP3    H224411   3.820   4.655   0.122 -0.2603 -1.9001  0.7764
  926TIP3   OH224412   3.484   3.048   8.699 -0.5352 -0.3161  0.0311
  926TIP3    H124413   3.412   3.094   8.655  0.5467  0.9958 -0.4076
  926TIP3    H224414   3.454   2.957   8.702 -2.2892  0.2146  0.0201
  927TIP3   OH224415   4.466   2.105   1.456  0.1099 -0.3648 -0.0597
  927TIP3    H124416   4.371   2.113   1.450  0.1805  0.7798  0.1443
  927TIP3    H224417   4.481   2.072   1.545 -0.1433 -1.9676 -0.5735
  928TIP3   OH224418   4.510   0.632   8.491  0.1988 -0.1877  0.1254
  928TIP3    H124419   4.473   0.625   8.404 -1.4160  1.3366  0.6292
  928TIP3    H224420   4.457   0.574   8.545  0.2696 -0.0441  0.3522
  929TIP3   OH224421   0.935   1.475   0.671 -0.1094 -0.5460 -0.0890
  929TIP3    H124422   1.011   1.502   0.621  0.4136  0.5210  1.2215
  929TIP3    H224423   0.918   1.385   0.642  0.9032 -0.3840 -1.2573
  930TIP3   OH224424   5.701   1.262   8.061 -0.4631 -0.1461 -0.2674
  930TIP3    H124425   5.756   1.183   8.065  0.1644  0.2381 -1.0396
  930TIP3    H224426   5.754   1.330   8.104 -0.9875 -0.1254  0.3654
  931TIP3   OH224427   1.725   1.600   7.298 -0.1037  0.5837  0.0661
  931TIP3    H124428   1.733   1.629   7.207  0.1286 -1.4220 -0.6023
  931TIP3    H224429   1.684   1.514   7.292  3.3359 -1.3694  1.4765
  932TIP3   OH224430   6.537   4.205   1.900 -0.4376  0.0265 -0.4913
  932TIP3    H124431   6.485   4.166   1.970  0.1082  1.6623  0.9050
  932TIP3    H224432   6.472   4.247   1.843 -0.9755 -2.2782 -1.6793
  933TIP3   OH224433   5.187   5.217   2.077 -0.2223 -0.1289 -0.0756
  933TIP3    H124434   5.206   5.271   2.154  0.3960 -0.0202 -0.3056
  933TIP3    H224435   5.200   5.127   2.107 -0.7568 -0.1329  0.1631
  934TIP3   OH224436   0.119   2.688   7.588 -0.0305 -0.2116 -0.3940
  934TIP3    H124437   0.097   2.686   7.682  0.9819  0.9977 -0.1122
  934TIP3    H224438   0.036   2.707   7.545 -0.4181 -0.3049  0.2858
  935TIP3   OH224439   1.123   0.850   1.519 -0.2149  0.0035 -0.0796
  935TIP3    H124440   1.138   0.927   1.465  1.2633 -0.6947 -0.7314
  935TIP3    H224441   1.028   0.846   1.530 -0.4730  0.7750 -1.7432
  936TIP3   OH224442   2.121   5.465   7.889  0.4789 -0.0970  0.4618
  936TIP3    H124443   2.027   5.457   7.903  0.6937 -0.4464  1.7830
  936TIP3    H224444   2.131   5.463   7.794 -0.9240  0.8764  0.2585
  937TIP3   OH224445   4.101   2.758   7.026 -0.4933 -0.2344  0.3377
  937TIP3    H124446   4.030   2.736   7.087 -0.2517  1.3484  1.2462
  937TIP3    H224447   4.089   2.851   7.008  1.6014  0.1870  0.8796
  938TIP3   OH224448   5.209   4.262   6.049  0.4684 -0.3870 -0.1424
  938TIP3    H124449   5.113   4.257   6.049  0.2045  1.3038  3.1933
  938TIP3    H224450   5.238   4.173   6.070 -0.6800 -0.2771  2.3503
  939TIP3   OH224451   4.239   3.197   0.334  0.8943 -0.2135 -0.1304
  939TIP3    H124452   4.200   3.268   0.386  2.3178 -0.1796  0.9737
  939TIP3    H224453   4.206   3.117   0.374  0.9043 -0.1753 -0.0448
  940TIP3   OH224454   4.796   3.486   7.857 -0.4122 -0.1628 -0.3992
  940TIP3    H124455   4.859   3.477   7.785 -0.3578 -1.9799 -0.1692
  940TIP3    H224456   4.850   3.512   7.932  0.0099 -1.1152 -0.3479
  941TIP3   OH224457   0.816   5.180   8.268  0.4587  0.5335  0.0389
  941TIP3    H124458   0.786   5.178   8.359  0.8328  2.0827  0.2266
  941TIP3    H224459   0.909   5.156   8.272  0.4928  0.6725  0.0694
  942TIP3   OH224460   2.098   3.866   7.274  0.1081  0.1999 -0.2427
  942TIP3    H124461   2.086   3.961   7.280 -0.4892  0.1794 -0.9983
  942TIP3    H224462   2.032   3.830   7.333  1.0293  0.2676  0.8643
  943TIP3   OH224463   1.965   2.033   8.486  0.1289 -0.2545 -0.0855
  943TIP3    H124464   1.900   2.064   8.550  0.3837 -0.5614  0.3326
  943TIP3    H224465   2.044   2.084   8.507 -0.1612  0.6252 -1.0486
  944TIP3   OH224466   4.239   5.157   1.615 -0.2048  0.0789 -0.2318
  944TIP3    H124467   4.235   5.251   1.633  1.0826 -0.2187  1.8842
  944TIP3    H224468   4.197   5.116   1.690  2.2715 -1.1252  0.6060
  945TIP3   OH224469   5.176   1.097   0.321  0.6338  1.0265 -0.3123
  945TIP3    H124470   5.123   1.171   0.352  1.9348  1.0743  2.0037
  945TIP3    H224471   5.125   1.019   0.346  0.3853  1.0927 -0.5996
  946TIP3   OH224472   4.739   4.257   7.332  0.1196 -0.5225  0.6371
  946TIP3    H124473   4.803   4.281   7.400 -1.3193 -0.4716  2.0348
  946TIP3    H224474   4.719   4.165   7.350 -0.1383 -0.5646  0.1557
  947TIP3   OH224475   3.382   4.430   6.213 -0.1148  0.1229  0.4822
  947TIP3    H124476   3.308   4.461   6.266 -0.3072 -1.0873  0.9508
  947TIP3    H224477   3.405   4.345   6.251  1.6128  0.5340  0.4236
  948TIP3   OH224478   6.785   1.205   0.817  0.3939  0.7501 -0.8399
  948TIP3    H124479   6.768   1.257   0.895  1.9066 -1.9226  1.4679
  948TIP3    H224480   6.713   1.142   0.813 -0.3810  1.6904 -2.4396
  949TIP3   OH224481   6.027   5.423   8.516 -0.4253 -0.2396 -0.2579
  949TIP3    H124482   5.976   5.501   8.539 -1.2892 -0.8064 -0.1878
  949TIP3    H224483   6.025   5.421   8.420  0.5241  0.4080 -0.3054
  950TIP3   OH224484   6.736   3.154   8.339  0.0131  0.4632  0.2630
  950TIP3    H124485   6.710   3.223   8.278  1.0216  1.1522  0.5819
  950TIP3    H224486   6.659   3.097   8.345 -0.1627  0.4741 -1.4949
  951TIP3   OH224487   1.273   6.652   1.633 -0.3110 -0.3485 -0.1165
  951TIP3    H124488   1.329   6.673   1.708 -3.4658  1.1696  2.0317
  951TIP3    H224489   1.275   6.730   1.578 -0.6482 -0.1038  0.2124
  952TIP3   OH224490   4.467   2.996   0.948  0.0608 -0.4791 -0.0030
  952TIP3    H124491   4.489   2.903   0.954 -1.0020 -0.7870 -0.6252
  952TIP3    H224492   4.531   3.032   0.886  0.6308 -0.7377  0.4270
  953TIP3   OH224493   4.426   5.007   1.252  0.5373 -0.1332  0.3123
  953TIP3    H124494   4.489   5.079   1.256 -0.2605  0.5558  3.1539
  953TIP3    H224495   4.376   5.023   1.172 -0.0165  2.9567  1.1318
  954TIP3   OH224496   5.351   5.206   7.163 -0.4692 -0.5557 -0.5315
  954TIP3    H124497   5.341   5.200   7.258  0.8316  3.1555 -0.0041
  954TIP3    H224498   5.445   5.200   7.148 -0.6206 -0.5515 -1.5686
  955TIP3   OH224499   1.371   1.765   7.964 -0.9618 -0.5740  0.0476
  955TIP3    H124500   1.290   1.732   8.003 -2.0540  2.1092  0.2686
  955TIP3    H224501   1.348   1.853   7.932  1.2359 -0.6781 -2.1113
  956TIP3   OH224502   3.000   4.192   8.760  0.1908 -0.3133 -0.3356
  956TIP3    H124503   2.939   4.262   8.781 -0.9581 -1.4981  0.4595
  956TIP3    H224504   2.955   4.140   8.693  1.1281 -0.1749 -1.0993
  957TIP3   OH224505   2.704   4.677   0.165 -0.2136  0.4035 -0.2065
  957TIP3    H124506   2.664   4.591   0.160  0.0144  0.3121 -0.4612
  957TIP3    H224507   2.793   4.660   0.195  0.0360  0.4897 -0.8832
  958TIP3   OH224508   2.011   2.931   7.654 -0.2904 -0.3156  0.2151
  958TIP3    H124509   2.094   2.979   7.660 -0.7890  0.5610  0.2723
  958TIP3    H224510   1.984   2.920   7.745 -0.3704 -0.3550  0.1864
  959TIP3   OH224511   5.722   3.069   1.722 -0.0665  0.0764 -0.4679
  959TIP3    H124512   5.720   2.987   1.673  0.0697 -0.8846  1.0648
  959TIP3    H224513   5.630   3.092   1.733 -0.1590 -0.4388 -0.0556
  960TIP3   OH224514   0.379   0.762   0.028 -0.2461  0.3579  0.5985
  960TIP3    H124515   0.338   0.809   0.101 -1.4965 -0.2018  0.2847
  960TIP3    H224516   0.312   0.700  -0.001 -0.0902  1.1171 -1.5344
  961TIP3   OH224517   2.327   1.535   1.769  0.0154  0.4646  0.1335
  961TIP3    H124518   2.340   1.531   1.863  0.0885  1.9727  0.2105
  961TIP3    H224519   2.401   1.487   1.732  0.9930  1.4020  0.8051
  962TIP3   OH224520   3.173   0.193   1.539  0.1618 -0.5470 -0.3959
  962TIP3    H124521   3.249   0.219   1.591 -1.2125  0.3527  1.2967
  962TIP3    H224522   3.157   0.102   1.565  0.6771 -0.7450 -0.7740
  963TIP3   OH224523   6.855   1.963   1.724 -0.4699 -0.5668 -0.3934
  963TIP3    H124524   6.884   1.951   1.814  1.3717  1.1962 -0.6580
  963TIP3    H224525   6.923   1.920   1.671 -2.4044 -3.1236 -1.0094
  964TIP3   OH224526   2.038   4.188   1.364  0.1887 -0.1750  0.3026
  964TIP3    H124527   2.053   4.179   1.458  0.4932  1.8379  0.5093
  964TIP3    H224528   1.991   4.272   1.356  1.4205  0.3991 -1.4168
  965TIP3   OH224529   5.022   5.248   7.343 -0.0498 -0.3184 -0.2037
  965TIP3    H124530   4.960   5.267   7.273  0.5023  0.0442 -0.5998
  965TIP3    H224531   5.009   5.318   7.406  0.0473 -0.1740 -0.3447
  966TIP3   OH224532   1.993   2.854   1.518 -0.0925 -0.5653  0.2707
  966TIP3    H124533   2.026   2.884   1.603  0.7159 -0.5091 -0.0541
  966TIP3    H224534   1.963   2.764   1.535 -1.5961  0.0446  1.0130
  967TIP3   OH224535   0.765   5.727   6.492  0.4770 -0.5483  0.0839
  967TIP3    H124536   0.734   5.729   6.401  0.9590  0.4022 -0.0696
  967TIP3    H224537   0.836   5.664   6.492 -0.6990 -1.9352  0.2097
  968TIP3   OH224538   3.003   1.512   0.588  0.3632  0.0812 -0.0215
  968TIP3    H124539   3.054   1.540   0.512  1.0044 -0.4067  0.2174
  968TIP3    H224540   2.966   1.593   0.624 -0.4478  0.2613 -1.1893
  969TIP3   OH224541   3.997   4.696   1.747 -0.1179 -0.0252  0.6610
  969TIP3    H124542   3.920   4.639   1.749  0.2090 -0.4373  1.8044
  969TIP3    H224543   3.966   4.779   1.782 -0.8981  0.9532 -2.0736
  970TIP3   OH224544   0.498   0.453   6.799 -0.0936 -0.1321 -0.3427
  970TIP3    H124545   0.555   0.404   6.858  1.2908  0.7604 -0.8831
  970TIP3    H224546   0.415   0.405   6.800  0.1557 -0.6169  1.6459
  971TIP3   OH224547   5.439   1.676   1.370 -0.0152 -0.1377  0.1871
  971TIP3    H124548   5.455   1.604   1.431  1.5645 -0.6342 -0.7659
  971TIP3    H224549   5.441   1.635   1.284 -0.1322  0.8856 -0.3141
  972TIP3   OH224550   0.415   6.852   7.660 -0.0336 -0.4185 -0.8388
  972TIP3    H124551   0.490   6.831   7.605  1.0563 -1.4447  0.9518
  972TIP3    H224552   0.446   6.924   7.716 -0.3835 -0.8082 -0.1324
  973TIP3   OH224553   0.757   4.840   8.348  0.5024  0.3669  0.7273
  973TIP3    H124554   0.729   4.869   8.435  1.0635  0.9563  0.7115
  973TIP3    H224555   0.706   4.893   8.287 -0.6208 -0.7221  0.6668
  974TIP3   OH224556   0.639   6.644   0.526 -0.0545 -0.6229 -0.4604
  974TIP3    H124557   0.596   6.726   0.551 -2.2940 -1.7725 -0.2836
  974TIP3    H224558   0.724   6.647   0.569  0.5025  2.1734 -1.5450
  975TIP3   OH224559   6.621   4.064   7.482  0.0471 -0.1467  0.0688
  975TIP3    H124560   6.604   4.104   7.397 -1.9677 -1.1772 -0.0870
  975TIP3    H224561   6.707   4.023   7.472 -0.1008 -0.1713 -1.4548
  976TIP3   OH224562   2.265   0.248   2.480  0.6255  0.1567 -0.6410
  976TIP3    H124563   2.326   0.181   2.510  2.0944  0.1507 -3.3905
  976TIP3    H224564   2.290   0.327   2.529  1.9225 -0.1885 -0.7121
  977TIP3   OH224565   5.268   4.734   7.306  0.1341 -0.4213 -0.4847
  977TIP3    H124566   5.275   4.766   7.396 -0.3884  0.9845 -0.9044
  977TIP3    H224567   5.359   4.733   7.274  0.1676  0.7947 -0.4788
  978TIP3   OH224568   2.371   4.829   6.965 -0.2529 -0.2196 -0.2479
  978TIP3    H124569   2.397   4.743   6.999 -0.6342  0.0106  0.6524
  978TIP3    H224570   2.375   4.887   7.041 -0.2833  0.5007 -0.7902
  979TIP3   OH224571   0.614   4.327   0.869  0.3092  0.1294 -0.3329
  979TIP3    H124572   0.670   4.263   0.825 -0.5991  0.1293 -1.5534
  979TIP3    H224573   0.596   4.392   0.801 -0.7187  0.4118  0.1975
  980TIP3   OH224574   5.774   3.324   8.799  0.3007 -0.4758  0.0165
  980TIP3    H124575   5.763   3.361   8.886  0.4168 -1.6697  0.5442
  980TIP3    H224576   5.718   3.378   8.743  1.8221  1.6640  0.4175
  981TIP3   OH224577   6.735   1.073   2.737  0.1831  0.5586  0.0500
  981TIP3    H124578   6.826   1.097   2.721  0.6587 -1.4226 -0.5283
  981TIP3    H224579   6.726   0.987   2.696 -2.1829  1.0584 -0.5824
  982TIP3   OH224580   3.378   3.113   7.147 -0.0970 -0.0523 -0.1768
  982TIP3    H124581   3.291   3.146   7.171 -0.8261 -0.3031 -2.2958
  982TIP3    H224582   3.382   3.026   7.188 -0.3381  0.4284  0.9145
  983TIP3   OH224583   0.279   4.767   1.437  0.2715 -0.1601 -0.1033
  983TIP3    H124584   0.230   4.831   1.387  0.7838 -0.1677 -0.6299
  983TIP3    H224585   0.302   4.699   1.374 -0.2501 -0.8588  0.4410
  984TIP3   OH224586   3.245   4.405   7.954 -0.2757  0.1310 -1.0628
  984TIP3    H124587   3.321   4.384   8.008 -0.7220  1.9757  0.3796
  984TIP3    H224588   3.269   4.485   7.907 -0.9857  0.2037 -1.3235
  985TIP3   OH224589   5.610   4.555   1.280 -0.1731  0.2427 -0.1559
  985TIP3    H124590   5.594   4.462   1.262 -0.4601  0.4464 -1.0251
  985TIP3    H224591   5.694   4.557   1.326  0.1308 -0.3982 -0.6694
  986TIP3   OH224592   1.542   3.166   1.645 -0.6941  0.6847 -0.0443
  986TIP3    H124593   1.485   3.103   1.601 -0.0454  1.0886 -1.5424
  986TIP3    H224594   1.485   3.213   1.705 -1.4624 -0.4180  0.1143
  987TIP3   OH224595   2.247   1.709   1.019 -0.1932  0.6564  0.0060
  987TIP3    H124596   2.325   1.658   0.999 -0.9441 -0.8036  0.6341
  987TIP3    H224597   2.211   1.733   0.934 -0.1789 -0.4503 -0.3315
  988TIP3   OH224598   5.769   1.775   1.718 -0.2219  1.0893  0.0639
  988TIP3    H124599   5.860   1.773   1.689 -0.2358 -0.0317  0.0792
  988TIP3    H224600   5.727   1.841   1.662  0.4748  1.2471 -0.2786
  989TIP3   OH224601   3.634   2.815   7.958  0.0428  0.4642 -0.0799
  989TIP3    H124602   3.636   2.720   7.951  2.4167  0.3665  0.9082
  989TIP3    H224603   3.606   2.832   8.048  2.5949  0.5276  0.7763
  990TIP3   OH224604   3.066   1.541   0.006  0.3342 -0.0663 -0.2298
  990TIP3    H124605   3.126   1.473  -0.024  0.1578 -0.5003  0.3810
  990TIP3    H224606   3.059   1.602  -0.068  1.2127 -0.2168 -0.4468
  991TIP3   OH224607   2.558   5.097   8.142  0.2434 -0.0281 -0.0133
  991TIP3    H124608   2.487   5.125   8.199  1.5909  0.2111  1.6165
  991TIP3    H224609   2.515   5.068   8.062 -1.6256  0.7490  0.6680
  992TIP3   OH224610   3.766   0.979   1.437 -1.2471 -0.0032 -0.0045
  992TIP3    H124611   3.840   0.993   1.497 -0.1352 -1.2918 -1.0128
  992TIP3    H224612   3.736   1.068   1.415  1.4984  0.7048 -1.3516
  993TIP3   OH224613   5.402   2.959   7.343  0.1933  0.3491 -0.0158
  993TIP3    H124614   5.425   3.004   7.262 -0.8756 -0.1736 -0.6316
  993TIP3    H224615   5.310   2.980   7.357  0.3786  0.4673  1.0915
  994TIP3   OH224616   4.731   3.206   1.386  0.0762  0.4011  0.0132
  994TIP3    H124617   4.739   3.114   1.360  0.7763  0.2464  0.7209
  994TIP3    H224618   4.710   3.252   1.305  0.5951 -0.2725 -0.5196
  995TIP3   OH224619   1.575   1.913   8.323  0.1047 -0.2175  0.1958
  995TIP3    H124620   1.556   2.001   8.290  1.8176 -0.5912 -2.0959
  995TIP3    H224621   1.557   1.918   8.417  0.2264  2.6132  0.1665
  996TIP3   OH224622   1.152   0.158   7.411 -0.4117  0.2358  0.5514
  996TIP3    H124623   1.063   0.139   7.383 -0.7060  1.7986  0.2971
  996TIP3    H224624   1.207   0.122   7.341 -0.9119  0.2214  0.1570
  997TIP3   OH224625   6.393   3.460   1.090  0.0626  0.3325  0.2427
  997TIP3    H124626   6.370   3.480   0.999  0.8481  0.5389  0.0783
  997TIP3    H224627   6.477   3.415   1.083 -0.2101 -0.2743  0.8251
  998TIP3   OH224628   1.540   1.048   2.342  0.2736  0.2822 -0.4288
  998TIP3    H124629   1.473   0.981   2.358 -0.4820  0.6266 -1.9922
  998TIP3    H224630   1.589   1.052   2.424 -0.3362 -1.4190  0.0729
  999TIP3   OH224631   1.941   0.041   1.816 -0.4081  0.0902  0.2143
  999TIP3    H124632   1.881   0.073   1.884 -0.0294 -0.7161  0.9494
  999TIP3    H224633   1.916   0.089   1.738 -2.9679 -1.1692  0.1318
 1000TIP3   OH224634   0.363   4.505   1.331  0.1329  0.2609 -0.1631
 1000TIP3    H124635   0.405   4.422   1.309 -1.1272 -0.8387  1.3114
 1000TIP3    H224636   0.387   4.520   1.423 -1.3327  0.4230  0.2212
 1001TIP3   OH224637   4.475   0.646   7.344 -0.0095  0.3090  0.3479
 1001TIP3    H124638   4.520   0.669   7.263  0.5827 -1.4895  0.1131
 1001TIP3    H224639   4.382   0.650   7.322  0.0856  1.5728  0.1125
 1002TIP3   OH224640   1.913   0.774   1.861 -0.5770  0.2595 -0.3910
 1002TIP3    H124641   1.836   0.820   1.895 -0.3039  1.8624 -1.7701
 1002TIP3    H224642   1.877   0.709   1.801 -0.9516 -1.1615  1.2799
 1003TIP3   OH224643   2.074   1.296   8.570 -1.3072 -0.2868 -0.3474
 1003TIP3    H124644   2.128   1.370   8.543  2.0002 -1.9971  1.0467
 1003TIP3    H224645   2.076   1.236   8.496  0.5877 -1.2603  0.4400
 1004TIP3   OH224646   0.182   5.701   8.517 -0.3786 -0.0121  0.0645
 1004TIP3    H124647   0.167   5.694   8.423  1.4693 -0.8018 -0.2073
 1004TIP3    H224648   0.122   5.637   8.555 -2.2274  1.3574 -0.4043
 1005TIP3   OH224649   3.251   5.450   6.152 -0.2669 -0.2546 -0.3187
 1005TIP3    H124650   3.220   5.515   6.089  0.6718 -1.1821 -1.8032
 1005TIP3    H224651   3.178   5.389   6.161 -0.4931  0.0138 -0.3350
 1006TIP3   OH224652   3.310   5.565   1.292  0.1236  0.3143 -0.4109
 1006TIP3    H124653   3.400   5.545   1.265  0.8092  2.5862 -0.0040
 1006TIP3    H224654   3.275   5.620   1.221 -0.9380 -0.4407 -0.5051
 1007TIP3   OH224655   0.511   5.873   8.758  0.0077  0.6445  0.4173
 1007TIP3    H124656   0.557   5.878   8.674  0.0994 -0.0811  0.4150
 1007TIP3    H224657   0.451   5.800   8.748 -0.2341  0.7805  0.8675
 1008TIP3   OH224658   3.516   0.177   8.481 -0.4568  0.2338  0.2443
 1008TIP3    H124659   3.501   0.110   8.414  0.4641 -1.5195  1.6687
 1008TIP3    H224660   3.434   0.226   8.486 -1.3714 -1.1483 -0.5104
 1009TIP3   OH224661   3.717   3.881   0.879  0.1363 -0.1248  0.0898
 1009TIP3    H124662   3.721   3.865   0.785  0.3873  2.8465 -0.4983
 1009TIP3    H224663   3.694   3.796   0.917 -1.2667 -1.1180 -2.7306
 1010TIP3   OH224664   2.131   0.510   2.234 -0.2281 -0.1087  0.2758
 1010TIP3    H124665   2.168   0.531   2.149  0.4378  1.0367  0.8251
 1010TIP3    H224666   2.055   0.568   2.242 -2.3214 -2.4825 -0.8727
 1011TIP3   OH224667   3.953   5.597   7.916  0.5942 -0.1028 -0.0843
 1011TIP3    H124668   4.029   5.541   7.905 -1.5756 -3.0577 -1.3356
 1011TIP3    H224669   3.959   5.661   7.845  1.9574 -0.1345 -0.0197
 1012TIP3   OH224670   2.078   6.211   8.406 -0.2317 -0.2406 -0.1783
 1012TIP3    H124671   2.037   6.282   8.456  0.6900 -0.5030  0.9941
 1012TIP3    H224672   2.021   6.135   8.419 -0.1724 -0.2213  0.1856
 1013TIP3   OH224673   4.957   4.650   1.137  0.0983 -0.3849 -0.2048
 1013TIP3    H124674   5.052   4.640   1.135  0.1692  0.0950  0.6926
 1013TIP3    H224675   4.936   4.669   1.228 -0.7764  0.3656 -0.5453
 1014TIP3   OH224676   1.618   1.606   2.198 -0.0684  0.8433  0.3212
 1014TIP3    H124677   1.586   1.690   2.231 -1.0567  0.2375  0.9808
 1014TIP3    H224678   1.662   1.566   2.273 -0.5840  0.3023  0.3448
 1015TIP3   OH224679   0.144   5.442   1.719 -0.3732  0.3827  0.0210
 1015TIP3    H124680   0.159   5.442   1.624  0.5940  1.9149  0.1255
 1015TIP3    H224681   0.224   5.482   1.755 -0.3934 -0.8669  1.5567
 1016TIP3   OH224682   5.945   6.647   1.734 -0.0434  0.7977 -0.1937
 1016TIP3    H124683   5.956   6.554   1.752  0.1443  0.9421  0.4665
 1016TIP3    H224684   5.853   6.665   1.752 -0.4691  0.4239 -1.8417
 1017TIP3   OH224685   1.606   5.922   7.208  0.0918  0.5064 -0.2410
 1017TIP3    H124686   1.573   5.917   7.118  1.0948  0.3553 -0.6089
 1017TIP3    H224687   1.615   5.831   7.236  0.0508  0.5478 -0.0929
 1018TIP3   OH224688   6.174   0.366   0.960 -0.3103 -0.2746  0.0354
 1018TIP3    H124689   6.234   0.426   0.915 -0.3674  0.8438  1.3594
 1018TIP3    H224690   6.215   0.351   1.046 -0.0216 -2.6251 -0.4489
 1019TIP3   OH224691   1.339   6.178   8.604  0.2430  0.3672 -0.1267
 1019TIP3    H124692   1.284   6.127   8.545  0.9544  3.1145 -3.4705
 1019TIP3    H224693   1.426   6.138   8.597 -0.1111 -0.5813  0.7564
 1020TIP3   OH224694   3.068   2.607   7.836  0.4974 -0.1599 -0.1165
 1020TIP3    H124695   2.985   2.561   7.850 -0.6121  1.7250 -0.1372
 1020TIP3    H224696   3.101   2.624   7.925 -0.6999  1.6683  0.0467
 1021TIP3   OH224697   3.483   5.434   8.529  0.0183  0.3698  0.1483
 1021TIP3    H124698   3.438   5.501   8.478 -2.4526  0.0644  1.7378
 1021TIP3    H224699   3.501   5.476   8.613  1.2306 -0.0685  0.1315
 1022TIP3   OH224700   6.260   6.829   7.888  0.3138 -0.6102  0.0335
 1022TIP3    H124701   6.200   6.903   7.883  0.0404 -0.6873  1.5387
 1022TIP3    H224702   6.207   6.757   7.923  0.5612 -1.5517 -1.4582
 1023TIP3   OH224703   5.263   2.590   8.248  0.4404  0.0867  0.2145
 1023TIP3    H124704   5.333   2.651   8.223  0.6285  1.0069  2.7249
 1023TIP3    H224705   5.308   2.522   8.298 -0.2658 -0.0473  0.6843
 1024TIP3   OH224706   6.438   6.591   0.929  0.0573 -0.3842 -0.5653
 1024TIP3    H124707   6.393   6.518   0.887  1.7539 -0.4855 -2.3688
 1024TIP3    H224708   6.370   6.636   0.980 -0.6695 -4.4062  2.5037
 1025TIP3   OH224709   6.029   1.195   0.354 -0.2136  0.2462  0.1213
 1025TIP3    H124710   6.005   1.209   0.263  1.4115  0.8751 -0.2464
 1025TIP3    H224711   5.978   1.260   0.403 -2.0473 -0.9085 -0.1398
 1026TIP3   OH224712   2.711   2.174   6.435 -0.6312  0.3150  0.1574
 1026TIP3    H124713   2.623   2.136   6.430  0.8558 -3.4111 -1.2240
 1026TIP3    H224714   2.743   2.148   6.521  0.0242 -0.7906 -0.3931
 1027TIP3   OH224715   6.605   3.128   1.492  0.7313 -0.3455 -0.2533
 1027TIP3    H124716   6.570   3.214   1.513  0.8465 -0.4455  0.3904
 1027TIP3    H224717   6.595   3.120   1.397 -1.0831 -0.4089 -0.0976
 1028TIP3   OH224718   4.274   3.035   1.752  0.2596  0.8443 -0.0850
 1028TIP3    H124719   4.313   3.005   1.834 -0.9060 -0.7660 -0.0788
 1028TIP3    H224720   4.348   3.046   1.693  0.8062 -2.8425 -0.3058
 1029TIP3   OH224721   1.935   6.334   8.716  0.1615  0.0220 -0.1105
 1029TIP3    H124722   1.841   6.318   8.724 -0.0342  0.6418 -1.0704
 1029TIP3    H224723   1.946   6.426   8.740  0.7260 -0.3937  1.3398
 1030TIP3   OH224724   5.236   4.056   7.048  0.9402  0.6694  0.3503
 1030TIP3    H124725   5.156   4.046   7.099 -1.1063 -0.0773 -2.7008
 1030TIP3    H224726   5.261   4.148   7.060  0.1188  0.7213  1.9673
 1031TIP3   OH224727   3.090   6.654   0.096 -0.0827 -0.1760 -0.4910
 1031TIP3    H124728   3.027   6.607   0.151  0.4866  0.5797  0.8486
 1031TIP3    H224729   3.053   6.742   0.087 -0.6406 -0.5416 -2.1458
 1032TIP3   OH224730   3.630   4.035   8.752  0.3967  0.0509 -0.1096
 1032TIP3    H124731   3.608   4.115   8.801 -2.4383 -0.3652 -0.5235
 1032TIP3    H224732   3.595   3.964   8.806  0.9204 -0.7322 -0.7916
 1033TIP3   OH224733   2.462   0.952   1.831  0.0399 -0.0899 -0.5157
 1033TIP3    H124734   2.534   0.960   1.768 -0.8846 -2.7957 -2.0865
 1033TIP3    H224735   2.503   0.918   1.910  0.9107  1.4759 -0.2425
 1034TIP3   OH224736   4.000   3.782   8.342  0.0938  0.3800  0.0207
 1034TIP3    H124737   4.037   3.845   8.404  0.3108  0.0486  0.2309
 1034TIP3    H224738   3.969   3.710   8.397 -0.7825  0.6069 -0.1592
 1035TIP3   OH224739   0.371   5.358   0.139  0.2619 -0.1146  0.0977
 1035TIP3    H124740   0.303   5.291   0.148 -0.5098  0.6941  0.4722
 1035TIP3    H224741   0.397   5.354   0.047  1.4321 -2.0503  0.4746
 1036TIP3   OH224742   6.055   5.035   7.689 -0.2279  0.0374 -0.5718
 1036TIP3    H124743   6.064   4.970   7.619 -0.6019  1.0003 -1.5472
 1036TIP3    H224744   6.132   5.090   7.681 -0.2739  0.1516 -0.2245
 1037TIP3   OH224745   6.654   5.249   1.705  0.2753 -0.9892  0.1977
 1037TIP3    H124746   6.640   5.221   1.795  2.4717 -1.5390  0.4360
 1037TIP3    H224747   6.568   5.241   1.663 -0.3754 -2.6875  1.7245
 1038TIP3   OH224748   6.780   4.900   7.093  0.4189  0.1975 -0.2082
 1038TIP3    H124749   6.870   4.867   7.087 -0.1543 -1.2523 -1.4382
 1038TIP3    H224750   6.770   4.926   7.184  2.0834  0.3883 -0.0499
 1039TIP3   OH224751   5.091   2.532   8.596 -0.1696  0.8051  0.2999
 1039TIP3    H124752   5.018   2.492   8.644  1.5125 -2.1117  0.6807
 1039TIP3    H224753   5.065   2.526   8.504  0.3350 -2.1537  0.2596
 1040TIP3   OH224754   4.995   4.976   0.131  0.3415 -0.4771  0.5447
 1040TIP3    H124755   4.955   5.060   0.154  0.6335  0.1397 -1.0996
 1040TIP3    H224756   5.088   4.988   0.149  0.2836 -0.7318  1.0463
 1041TIP3   OH224757   0.488   5.317   8.153 -0.5261 -0.3237 -0.4231
 1041TIP3    H124758   0.407   5.266   8.149 -0.9992  0.4697 -1.7006
 1041TIP3    H224759   0.556   5.257   8.122 -1.0743 -0.2444 -1.8879
 1042TIP3   OH224760   2.380   1.920   7.972 -0.1456  0.0939  0.8037
 1042TIP3    H124761   2.474   1.912   7.956  0.2203  2.8893  1.0420
 1042TIP3    H224762   2.372   1.920   8.067 -0.0948  1.7708  0.8416
 1043TIP3   OH224763   6.677   5.369   8.376  0.0404 -0.3052 -0.1642
 1043TIP3    H124764   6.756   5.315   8.380 -0.1217 -0.5532 -0.2630
 1043TIP3    H224765   6.657   5.375   8.283  0.5810  0.7002 -0.2250
 1044TIP3   OH224766   4.797   4.574   0.906 -0.7224 -0.1874  0.3848
 1044TIP3    H124767   4.854   4.612   0.973 -0.0299 -0.1983 -0.1843
 1044TIP3    H224768   4.733   4.523   0.955  2.0811 -3.4967  0.9600
 1045TIP3   OH224769   6.773   2.322   0.495 -0.2255 -0.6486  0.6591
 1045TIP3    H124770   6.766   2.261   0.569 -1.2175 -0.2091  0.9417
 1045TIP3    H224771   6.793   2.266   0.420  0.3242 -1.1543  1.1758
 1046TIP3   OH224772   3.951   0.708   0.336  0.3737  0.2966 -0.4061
 1046TIP3    H124773   3.983   0.638   0.393 -0.1218  0.7980  0.5001
 1046TIP3    H224774   3.884   0.752   0.387  0.1361  0.9566 -1.2672
 1047TIP3   OH224775   3.543   5.848   1.168  0.0874  0.0059  0.3230
 1047TIP3    H124776   3.631   5.885   1.162  0.9403 -1.8058  1.1582
 1047TIP3    H224777   3.543   5.798   1.249 -1.0177 -1.7790 -0.7167
 1048TIP3   OH224778   1.334   4.223   0.387  0.4306  0.6082  0.1006
 1048TIP3    H124779   1.329   4.128   0.391 -1.6771  0.7302  2.7309
 1048TIP3    H224780   1.279   4.247   0.313  1.0748 -0.1826 -0.6581
 1049TIP3   OH224781   3.234   1.357   8.156  0.3075 -0.1040 -0.0899
 1049TIP3    H124782   3.231   1.376   8.250 -0.0876 -0.6624  0.0145
 1049TIP3    H224783   3.164   1.409   8.118  0.9997  0.7688 -0.2004
 1050TIP3   OH224784   2.983   4.268   1.216 -0.3042 -0.2224 -0.6065
 1050TIP3    H124785   3.043   4.260   1.142  0.9422 -0.9713  0.4496
 1050TIP3    H224786   3.011   4.200   1.277  0.1316  1.7236  1.5106
 1051TIP3   OH224787   0.762   6.548   2.573  0.2386  0.3908  0.0551
 1051TIP3    H124788   0.727   6.576   2.489  1.6095  0.6330 -0.4665
 1051TIP3    H224789   0.686   6.542   2.631 -0.8683 -0.7423 -1.4408
 1052TIP3   OH224790   5.087   1.928   7.821 -0.1666  0.0589  0.1107
 1052TIP3    H124791   5.001   1.953   7.855 -0.3504 -0.2470 -0.1233
 1052TIP3    H224792   5.087   1.833   7.822 -0.4033  0.0221 -1.2746
 1053TIP3   OH224793   0.809   3.870   7.937 -0.3732 -0.5945  0.3609
 1053TIP3    H124794   0.871   3.931   7.897 -1.5403  0.2630 -0.2045
 1053TIP3    H224795   0.763   3.831   7.862 -3.1334  1.6025  0.7583
 1054TIP3   OH224796   5.861   3.340   7.093  0.5651 -0.0375 -0.3412
 1054TIP3    H124797   5.777   3.299   7.116 -0.6634  2.2675 -0.3710
 1054TIP3    H224798   5.844   3.384   7.009  1.9543  0.0906 -0.5804
 1055TIP3   OH224799   5.272   5.060   0.106 -0.0339 -0.0254  0.2304
 1055TIP3    H124800   5.320   4.982   0.135 -0.2061  0.5372  2.1855
 1055TIP3    H224801   5.260   5.111   0.186 -1.8859  0.9501 -0.6254
 1056TIP3   OH224802   1.986   5.852   1.812  0.7273 -0.2587 -0.4039
 1056TIP3    H124803   2.062   5.851   1.871  0.2015  0.8498  0.3177
 1056TIP3    H224804   1.917   5.806   1.860  0.3175  0.5875 -0.1604
 1057TIP3   OH224805   1.575   6.503   6.898  0.1386 -0.0360  0.5480
 1057TIP3    H124806   1.564   6.526   6.806 -2.1516 -1.9362  0.2615
 1057TIP3    H224807   1.669   6.487   6.907  0.6067  1.4056 -1.1060
 1058TIP3   OH224808   6.295   1.011   1.451 -0.8235 -0.2211  0.1956
 1058TIP3    H124809   6.251   0.957   1.517  0.2638 -0.8098  0.4740
 1058TIP3    H224810   6.275   1.101   1.476  0.1935 -0.3967  1.8256
 1059TIP3   OH224811   4.582   2.418   0.041  0.3537 -0.3170  0.1272
 1059TIP3    H124812   4.520   2.491   0.037  0.2567 -0.3839  0.3776
 1059TIP3    H224813   4.608   2.413   0.133 -0.2005 -1.0599  0.2526
 1060TIP3   OH224814   6.540   3.795   0.780  0.2779  0.5363  0.1967
 1060TIP3    H124815   6.496   3.869   0.739 -1.3970 -0.6161 -0.2032
 1060TIP3    H224816   6.475   3.758   0.840  1.1967 -0.3734  0.6646
 1061TIP3   OH224817   3.066   0.192   0.292  0.5941 -0.2114  0.2026
 1061TIP3    H124818   3.046   0.120   0.352  1.1422 -0.1765  0.4313
 1061TIP3    H224819   2.981   0.231   0.273  0.3428 -0.6423  0.4303
 1062TIP3   OH224820   0.858   3.035   0.688  0.5288 -0.2112 -0.0001
 1062TIP3    H124821   0.787   2.994   0.639  0.6902 -2.4575  1.4839
 1062TIP3    H224822   0.904   3.088   0.624 -1.0963 -0.5481 -1.5240
 1063TIP3   OH224823   5.631   4.456   0.741  0.0892  0.0661 -0.1842
 1063TIP3    H124824   5.539   4.433   0.732  0.0226  0.9272 -2.2585
 1063TIP3    H224825   5.678   4.374   0.725 -0.2884 -0.4210  1.0908
 1064TIP3   OH224826   6.006   5.415   8.801 -0.1704  0.2428 -0.3821
 1064TIP3    H124827   6.087   5.465   8.805 -0.1970  0.3505 -1.0860
 1064TIP3    H224828   5.993   5.396   8.708  0.5619 -2.2902 -0.0564
 1065TIP3   OH224829   1.052   1.523   7.942  0.0512 -0.1179 -0.2278
 1065TIP3    H124830   1.100   1.569   8.011  0.2664 -1.4875  0.5621
 1065TIP3    H224831   1.095   1.438   7.935 -0.6709 -0.4191 -1.2878
 1066TIP3   OH224832   0.175   0.382   0.148  0.0165 -0.6580  0.6176
 1066TIP3    H124833   0.081   0.383   0.164 -0.0354  1.2832  0.3860
 1066TIP3    H224834   0.214   0.401   0.233  0.1785 -0.9409  0.6063
 1067TIP3   OH224835   6.204   0.952   1.186 -0.2515  0.4397 -0.3813
 1067TIP3    H124836   6.270   1.007   1.229 -2.4349  2.2890  0.7841
 1067TIP3    H224837   6.179   0.887   1.252 -0.0442  0.0974 -0.6304
 1068TIP3   OH224838   6.246   2.510   1.192  0.3099 -0.2846  0.2398
 1068TIP3    H124839   6.300   2.437   1.160 -1.3486 -0.5261 -2.2444
 1068TIP3    H224840   6.301   2.587   1.179  0.9164 -0.7466 -0.0319
 1069TIP3   OH224841   3.940   6.313   7.663  0.1615  0.1777  0.1621
 1069TIP3    H124842   3.974   6.399   7.636  0.5827  0.0808  0.3841
 1069TIP3    H224843   3.914   6.271   7.581 -0.7113  0.7913  0.1055
 1070TIP3   OH224844   5.549   6.402   0.932 -0.2775 -0.2847  0.1914
 1070TIP3    H124845   5.596   6.346   0.993  0.5161 -0.1512 -0.2783
 1070TIP3    H224846   5.580   6.490   0.952  0.6065 -0.3229 -0.9220
 1071TIP3   OH224847   1.769   0.975   7.970 -0.6100 -0.2567 -0.5608
 1071TIP3    H124848   1.844   1.012   8.016 -1.1382  1.7648 -1.2500
 1071TIP3    H224849   1.741   0.902   8.025  2.2258 -1.5285 -0.6119
 1072TIP3   OH224850   1.457   1.525   0.480  0.0829 -0.7843 -0.3797
 1072TIP3    H124851   1.401   1.602   0.483 -0.3399 -1.0639  2.8281
 1072TIP3    H224852   1.437   1.483   0.397 -3.2098  0.0773 -0.1599
 1073TIP3   OH224853   1.397   2.164   1.833 -0.3142 -0.0929  0.1975
 1073TIP3    H124854   1.390   2.073   1.863  0.4957 -0.0314  0.5941
 1073TIP3    H224855   1.426   2.213   1.910 -0.2125  0.4114 -0.1580
 1074TIP3   OH224856   3.391   6.536   0.549 -0.8459 -0.2674  0.0582
 1074TIP3    H124857   3.330   6.531   0.623  0.0235 -3.2871  0.6797
 1074TIP3    H224858   3.336   6.565   0.476 -2.6819 -1.2760  0.9516
 1075TIP3   OH224859   6.338   5.407   7.751  0.1254  0.1776  0.1403
 1075TIP3    H124860   6.286   5.408   7.671 -0.0569 -1.1456  0.2267
 1075TIP3    H224861   6.274   5.411   7.822  0.1772 -0.6511  0.2385
 1076TIP3   OH224862   4.942   3.288   0.260  0.0603  0.5426  0.2660
 1076TIP3    H124863   4.969   3.215   0.204  0.2668  0.1323  0.8905
 1076TIP3    H224864   4.861   3.320   0.220 -1.1338 -1.2860  1.0635
 1077TIP3   OH224865   1.065   4.135   1.353 -0.2241 -1.3979 -0.0526
 1077TIP3    H124866   0.986   4.144   1.405 -0.2945 -0.9332 -0.2313
 1077TIP3    H224867   1.135   4.125   1.417 -0.1810  0.1405  0.1770
 1078TIP3   OH224868   1.672   4.427   1.319 -0.0361  0.4456 -0.5331
 1078TIP3    H124869   1.757   4.451   1.357 -0.6678  1.9333  0.0453
 1078TIP3    H224870   1.611   4.431   1.393 -1.2757  3.2187 -1.5412
 1079TIP3   OH224871   2.250   0.461   0.747 -0.0448 -0.5218  0.1703
 1079TIP3    H124872   2.342   0.446   0.724  0.2754 -0.9559  1.6200
 1079TIP3    H224873   2.246   0.554   0.770  0.3733 -0.8092  1.4815
 1080TIP3   OH224874   4.862   0.693   2.523 -0.3531 -0.0688  0.6412
 1080TIP3    H124875   4.841   0.768   2.580  0.8509  0.5787  0.2792
 1080TIP3    H224876   4.779   0.671   2.481 -0.8924  0.5749  1.3288
 1081TIP3   OH224877   3.388   3.746   0.886 -0.4357 -0.2444  0.0260
 1081TIP3    H124878   3.319   3.760   0.951  0.6710 -0.6769  1.3416
 1081TIP3    H224879   3.341   3.730   0.804 -1.8551  1.3972  0.4688
 1082TIP3   OH224880   2.686   3.836   0.960 -0.4995 -0.0015 -0.6665
 1082TIP3    H124881   2.652   3.923   0.939  2.4114  1.4860  0.1326
 1082TIP3    H224882   2.721   3.845   1.049  1.5712 -1.3527 -1.2596
 1083TIP3   OH224883   2.792   1.804   8.315 -0.6120  0.1509 -0.0282
 1083TIP3    H124884   2.886   1.819   8.305 -0.5918 -0.0618 -0.1673
 1083TIP3    H224885   2.761   1.879   8.365 -0.7647  1.3942 -1.8922
 1084TIP3   OH224886   6.829   0.790   8.589 -0.1220  0.0751 -0.1281
 1084TIP3    H124887   6.745   0.753   8.564  0.2409 -0.3062 -0.8299
 1084TIP3    H224888   6.807   0.873   8.632 -0.8200  0.4612 -1.1807
 1085TIP3   OH224889   5.465   6.444   1.509  0.1720 -0.3076  0.4240
 1085TIP3    H124890   5.509   6.418   1.590  0.4518  1.8733  1.0625
 1085TIP3    H224891   5.531   6.431   1.441  0.6283 -0.3091  0.8551
 1086TIP3   OH224892   6.516   1.540   0.548  0.7063 -0.1150  0.2971
 1086TIP3    H124893   6.523   1.491   0.466 -0.0647  0.5479 -0.1882
 1086TIP3    H224894   6.596   1.591   0.553  0.9805 -0.5322  0.2080
 1087TIP3   OH224895   3.367   4.214   7.498  0.5318 -0.8403 -0.0634
 1087TIP3    H124896   3.408   4.251   7.421 -1.4708  0.7678 -0.4329
 1087TIP3    H224897   3.274   4.205   7.475  0.1018 -1.5284  1.7121
 1088TIP3   OH224898   4.792   2.420   0.724 -0.4280  0.2213 -0.4863
 1088TIP3    H124899   4.871   2.369   0.742 -0.5336  0.2466  0.0796
 1088TIP3    H224900   4.824   2.507   0.703 -0.2400 -0.1024 -1.5784
 1089TIP3   OH224901   1.859   3.824   7.056  0.2964  0.2613 -0.0303
 1089TIP3    H124902   1.906   3.884   7.113 -1.8384  0.4941  1.5940
 1089TIP3    H224903   1.810   3.881   6.996  2.1431  0.0214 -1.8928
 1090TIP3   OH224904   6.583   3.380   0.717  0.1321 -0.4086  0.3121
 1090TIP3    H124905   6.507   3.383   0.776  0.3784 -0.1144  0.6164
 1090TIP3    H224906   6.637   3.454   0.744 -0.4034  0.5545 -1.1839
 1091TIP3   OH224907   4.166   0.947   1.051 -0.0615 -0.4120 -0.8576
 1091TIP3    H124908   4.078   0.955   1.087  0.5070  0.2481  0.4515
 1091TIP3    H224909   4.155   0.962   0.957 -1.2457  0.3994 -0.6101
 1092TIP3   OH224910   5.099   4.978   2.221 -0.1270  0.1678  0.2187
 1092TIP3    H124911   5.150   5.031   2.283 -0.7083  1.7485 -0.5847
 1092TIP3    H224912   5.042   4.925   2.275 -1.1123  2.0208  1.0753
 1093TIP3   OH224913   3.759   1.038   7.978 -0.2147  0.7187  0.1236
 1093TIP3    H124914   3.792   1.127   7.964  1.7597 -0.1090 -0.8294
 1093TIP3    H224915   3.777   1.021   8.071 -1.0897  1.4606  0.4529
 1094TIP3   OH224916   0.105   0.791   7.719  0.8082 -0.0345  0.0821
 1094TIP3    H124917   0.119   0.880   7.686 -1.2035  0.5709  0.7134
 1094TIP3    H224918   0.149   0.735   7.655  1.4392  1.3570 -0.7645
 1095TIP3   OH224919   3.860   0.955   8.506  0.1198  0.0809 -0.3346
 1095TIP3    H124920   3.808   0.889   8.552 -1.3263  0.7732 -0.9064
 1095TIP3    H224921   3.892   1.012   8.576  0.9289 -0.8828  0.1089
 1096TIP3   OH224922   4.390   4.019   2.330 -0.0503 -0.3984  0.7875
 1096TIP3    H124923   4.337   4.084   2.377  1.0534  1.3419 -0.2646
 1096TIP3    H224924   4.342   4.002   2.249  1.1322  1.5844 -0.4180
 1097TIP3   OH224925   4.655   6.550   7.739 -0.7077  0.0491  0.6176
 1097TIP3    H124926   4.667   6.567   7.832 -1.3820 -1.2730  0.9702
 1097TIP3    H224927   4.569   6.508   7.732 -0.3113 -0.6483 -0.4814
 1098TIP3   OH224928   5.907   3.703   7.228  0.0728 -0.2646  0.1299
 1098TIP3    H124929   5.885   3.647   7.303  0.8380 -0.6841  0.0450
 1098TIP3    H224930   5.974   3.655   7.180  1.9529  1.3895  0.9333
 1099TIP3   OH224931   5.914   2.838   0.544 -0.7357 -0.8253  0.0462
 1099TIP3    H124932   5.891   2.777   0.474  0.0482 -0.6229 -0.3971
 1099TIP3    H224933   5.836   2.840   0.600 -0.9090 -1.9287 -0.1401
 1100TIP3   OH224934   1.265   2.776   6.962 -0.0873 -0.1402  0.1364
 1100TIP3    H124935   1.278   2.686   6.991  0.0738 -0.3825 -0.6462
 1100TIP3    H224936   1.353   2.815   6.963 -0.0276 -0.2560 -0.3460
 1101TIP3   OH224937   4.276   3.067   8.496  0.8805 -0.0722  0.1835
 1101TIP3    H124938   4.308   3.055   8.586  1.1360 -0.6337  0.0261
 1101TIP3    H224939   4.206   3.132   8.504  0.8231 -0.2008  0.8058
 1102TIP3   OH224940   1.535   1.299   0.612 -0.2975  0.0581  0.1685
 1102TIP3    H124941   1.494   1.373   0.567  0.8529  0.8808  0.4297
 1102TIP3    H224942   1.529   1.226   0.550 -2.7217 -0.0625  0.4519
 1103TIP3   OH224943   0.386   6.345   2.511 -0.1261 -0.5099  0.4379
 1103TIP3    H124944   0.392   6.332   2.416 -1.4207  0.8692  0.1090
 1103TIP3    H224945   0.357   6.436   2.520 -0.7108 -0.8327  2.1343
 1104TIP3   OH224946   4.704   3.947   8.722  0.6325 -0.3149  0.0519
 1104TIP3    H124947   4.618   3.968   8.687  1.2496 -0.8346 -1.8989
 1104TIP3    H224948   4.701   3.853   8.740  0.2256 -0.0072  1.8071
 1105TIP3   OH224949   2.755   4.609   0.598  0.2798  0.4109 -0.0324
 1105TIP3    H124950   2.723   4.597   0.509 -1.8197  0.6312  0.6244
 1105TIP3    H224951   2.720   4.694   0.625 -2.5211 -1.2421  2.2379
 1106TIP3   OH224952   6.482   0.935   1.264 -0.3306 -0.0629  0.0104
 1106TIP3    H124953   6.443   0.970   1.343 -0.4884 -0.9646  0.3408
 1106TIP3    H224954   6.462   0.841   1.266  1.4083 -0.4774 -0.0461
 1107TIP3   OH224955   0.905   6.494   6.758  0.0687  0.4097  0.3378
 1107TIP3    H124956   0.829   6.520   6.705  0.4034 -1.1199 -0.9495
 1107TIP3    H224957   0.872   6.426   6.815  0.1463  0.7716  0.8201
 1108TIP3   OH224958   1.702   4.260   0.895  0.2125  0.5989 -0.5516
 1108TIP3    H124959   1.755   4.335   0.923  0.4413  0.6732 -1.1567
 1108TIP3    H224960   1.761   4.211   0.836 -0.2642  0.4798 -0.9335
 1109TIP3   OH224961   5.856   3.579   1.614  0.1727  0.2822  0.8566
 1109TIP3    H124962   5.785   3.532   1.658 -0.8260 -1.8723 -2.6249
 1109TIP3    H224963   5.929   3.518   1.615 -0.1819 -0.2434 -1.1425
 1110TIP3   OH224964   6.000   0.438   1.374  0.2653  0.3034 -0.2098
 1110TIP3    H124965   5.951   0.366   1.413  2.1529 -0.5519  0.7156
 1110TIP3    H224966   5.972   0.440   1.283  0.3842 -1.8365 -0.3397
 1111TIP3   OH224967   0.239   6.671   7.764  0.1049 -0.4896 -0.4184
 1111TIP3    H124968   0.186   6.743   7.797 -0.1822 -0.2332 -1.4017
 1111TIP3    H224969   0.310   6.713   7.715  0.6628 -0.8514  0.0722
 1112TIP3   OH224970   6.167   6.206   6.881 -0.1459 -0.0910 -0.4407
 1112TIP3    H124971   6.152   6.296   6.851 -0.5267 -0.0313 -0.0859
 1112TIP3    H224972   6.102   6.154   6.835 -0.9603  0.0507  0.5124
 1113TIP3   OH224973   4.703   5.897   7.233 -0.1205  0.1554 -0.3718
 1113TIP3    H124974   4.739   5.975   7.275  1.5516 -0.6721 -0.1725
 1113TIP3    H224975   4.696   5.920   7.141 -0.7529  0.9131 -0.1467
 1114TIP3   OH224976   6.454   5.093   1.135  0.4236 -0.4692 -0.0909
 1114TIP3    H124977   6.494   5.009   1.110  0.0134 -0.6490 -0.1397
 1114TIP3    H224978   6.363   5.085   1.108  0.4497  0.1050 -0.3467
 1115TIP3   OH224979   1.670   5.809   2.785 -0.0030  0.1688  0.3637
 1115TIP3    H124980   1.752   5.769   2.754  0.0284 -2.1130  2.9282
 1115TIP3    H224981   1.630   5.846   2.707  1.3103 -2.6890 -1.8556
 1116TIP3   OH224982   3.229   6.392   7.832 -0.1640  0.3268  0.3613
 1116TIP3    H124983   3.307   6.402   7.778 -0.4133 -0.3129 -0.1230
 1116TIP3    H224984   3.163   6.355   7.774 -0.9390  1.1539  0.6704
 1117TIP3   OH224985   0.896   1.860   7.359  0.0462  0.3717 -0.0596
 1117TIP3    H124986   0.828   1.799   7.330 -0.6585  0.5676  1.1219
 1117TIP3    H224987   0.864   1.946   7.332 -0.4575  0.5212  0.9629
 1118TIP3   OH224988   4.243   4.430   7.703 -0.3132 -0.4270 -0.5388
 1118TIP3    H124989   4.160   4.415   7.658  0.5637 -1.0920 -2.0085
 1118TIP3    H224990   4.246   4.525   7.718 -2.2437 -0.6183  1.4247
 1119TIP3   OH224991   1.493   5.887   6.962  0.1361  0.4785  0.2332
 1119TIP3    H124992   1.522   5.877   6.871 -0.1573  1.1122  0.0617
 1119TIP3    H224993   1.416   5.831   6.969  0.8664 -0.5242  0.4426
 1120TIP3   OH224994   4.572   3.310   1.138 -0.2226 -0.1125  0.0978
 1120TIP3    H124995   4.511   3.237   1.148  0.3273 -0.4946  0.7611
 1120TIP3    H224996   4.652   3.270   1.103 -0.0570  0.2395  0.0678
 1121TIP3   OH224997   0.608   3.855   0.192 -0.2292 -0.4970 -0.2878
 1121TIP3    H124998   0.691   3.810   0.177  0.4372  0.2354  1.0859
 1121TIP3    H224999   0.545   3.784   0.207  0.7067 -1.0232  1.4066
 1122TIP3   OH225000   0.788   2.104   0.302  0.3106  0.4037 -0.0855
 1122TIP3    H125001   0.846   2.154   0.360  1.2282 -1.3623  0.6053
 1122TIP3    H225002   0.829   2.111   0.216  1.7572 -0.9799  0.4268
 1123TIP3   OH225003   6.856   1.613   7.201  0.3318 -0.1675  0.0022
 1123TIP3    H125004   6.938   1.565   7.213 -0.1323 -1.2952 -1.1124
 1123TIP3    H225005   6.874   1.700   7.237  2.3072 -0.1074 -0.9859
 1124TIP3   OH225006   4.750   3.800   0.828 -1.0034  0.1894 -0.0577
 1124TIP3    H125007   4.794   3.815   0.744 -0.1097 -1.5173  0.0806
 1124TIP3    H225008   4.659   3.784   0.805 -0.6419 -0.8944 -0.7780
 1125TIP3   OH225009   4.159   6.634   1.616 -0.3134 -0.4123  0.4778
 1125TIP3    H125010   4.191   6.631   1.706  0.1798  1.2553  0.4016
 1125TIP3    H225011   4.073   6.676   1.623 -0.2299 -0.1871  0.1603
 1126TIP3   OH225012   0.518   4.536   7.475  0.4708  0.8582 -0.3242
 1126TIP3    H125013   0.556   4.622   7.490  1.3945  0.3912  0.0772
 1126TIP3    H225014   0.478   4.542   7.389  0.0277  1.8577 -0.0569
 1127TIP3   OH225015   2.494   6.811   8.593 -0.2080  0.0515 -0.6774
 1127TIP3    H125016   2.553   6.878   8.558  0.1349 -0.5671 -1.2967
 1127TIP3    H225017   2.452   6.773   8.516  0.5143 -1.2924 -0.4295
 1128TIP3   OH225018   0.469   6.169   1.527 -0.3593 -0.5498 -0.1126
 1128TIP3    H125019   0.411   6.096   1.545  0.9871 -1.6908 -0.2010
 1128TIP3    H225020   0.556   6.138   1.553  0.0202  1.6599  1.5022
 1129TIP3   OH225021   3.313   2.639   1.092  0.0209  0.1366  0.1098
 1129TIP3    H125022   3.388   2.662   1.146 -0.7602 -0.2967  1.4345
 1129TIP3    H225023   3.349   2.585   1.022  0.7798 -1.4039  1.6042
 1130TIP3   OH225024   6.179   4.721   2.132 -0.4117  0.5378  0.1417
 1130TIP3    H125025   6.221   4.807   2.137  1.8769 -0.5607  1.0589
 1130TIP3    H225026   6.219   4.671   2.203 -1.2792 -1.4634 -0.7337
 1131TIP3   OH225027   0.809   1.125   1.205 -0.5718  0.3458 -0.4734
 1131TIP3    H125028   0.763   1.041   1.206 -2.0656  1.0915 -1.9336
 1131TIP3    H225029   0.839   1.135   1.114  1.8410  0.2782  0.2380
 1132TIP3   OH225030   3.323   3.802   6.069  0.0092  0.3463 -0.0562
 1132TIP3    H125031   3.416   3.801   6.047 -0.2443  0.4489 -1.1826
 1132TIP3    H225032   3.291   3.886   6.035 -0.4779  0.3510  0.4014
 1133TIP3   OH225033   6.795   1.074   8.100 -0.0412 -0.1990 -0.2377
 1133TIP3    H125034   6.826   1.147   8.047 -0.1968 -0.4776 -0.7194
 1133TIP3    H225035   6.792   1.108   8.189  0.6029  0.1514 -0.3503
 1134TIP3   OH225036   2.168   0.954   8.441 -0.2438 -0.3260  0.5950
 1134TIP3    H125037   2.153   0.955   8.536 -1.6682  0.2797  0.3815
 1134TIP3    H225038   2.118   0.878   8.410  0.7338 -0.9041  0.3851
 1135TIP3   OH225039   5.222   0.839   8.435 -0.2798  0.2085 -0.2954
 1135TIP3    H125040   5.179   0.755   8.447 -2.1282  0.8693 -1.8918
 1135TIP3    H225041   5.151   0.903   8.427  1.0376  1.7358 -0.5439
 1136TIP3   OH225042   1.527   6.783   6.814  0.0905 -0.0018 -0.4509
 1136TIP3    H125043   1.501   6.730   6.738 -0.2770  0.4933 -0.6836
 1136TIP3    H225044   1.454   6.775   6.875 -0.6497  1.3668 -1.0910
 1137TIP3   OH225045   4.301   2.862   0.217  0.3638  0.2304  0.0563
 1137TIP3    H125046   4.369   2.930   0.222 -0.2401  1.0426 -1.7692
 1137TIP3    H225047   4.249   2.874   0.297  2.2532 -0.3409  1.4295
 1138TIP3   OH225048   2.576   0.757   1.989 -0.1584 -0.0984 -0.0287
 1138TIP3    H125049   2.662   0.748   1.948  0.3109  1.7138  0.4515
 1138TIP3    H225050   2.528   0.679   1.963  2.4565 -2.4763  1.7217
 1139TIP3   OH225051   4.651   0.533   6.930  0.0079 -1.1904 -0.7387
 1139TIP3    H125052   4.589   0.473   6.971  0.9772 -1.8197 -0.1468
 1139TIP3    H225053   4.680   0.488   6.851  0.6013 -1.4263 -0.3885
 1140TIP3   OH225054   1.512   3.612   8.660 -0.5535 -0.7575 -0.7129
 1140TIP3    H125055   1.426   3.570   8.660 -0.9281 -0.3478  3.0822
 1140TIP3    H225056   1.495   3.699   8.622 -1.2090 -1.5274 -2.2948
 1141TIP3   OH225057   4.861   3.428   8.329  0.4178 -0.7259 -0.3282
 1141TIP3    H125058   4.773   3.458   8.353  0.4684 -0.3556 -0.5841
 1141TIP3    H225059   4.913   3.444   8.407  1.0070  2.2362 -1.1802
 1142TIP3   OH225060   0.636   3.038   1.368  0.0194 -0.2150  0.4386
 1142TIP3    H125061   0.662   2.947   1.354  1.9705  0.2465  0.6305
 1142TIP3    H225062   0.580   3.036   1.446 -1.3106 -1.4096 -0.5049
 1143TIP3   OH225063   3.547   3.536   7.259  0.0834  0.2234 -0.2997
 1143TIP3    H125064   3.498   3.610   7.294 -0.9883  0.3494 -1.9611
 1143TIP3    H225065   3.552   3.474   7.332 -1.0778  0.9395  0.4209
 1144TIP3   OH225066   2.604   4.268   8.508  0.1509 -0.0894  0.6297
 1144TIP3    H125067   2.612   4.271   8.412 -0.5825 -1.9324  0.4584
 1144TIP3    H225068   2.663   4.336   8.539  2.0358 -0.8323 -1.0828
 1145TIP3   OH225069   1.600   6.516   0.742 -0.2359 -0.2423 -0.1468
 1145TIP3    H125070   1.540   6.499   0.670  0.8901 -0.3545 -1.0918
 1145TIP3    H225071   1.684   6.537   0.700  0.7792 -1.5166  1.1181
 1146TIP3   OH225072   3.806   2.565   0.005 -0.5193 -0.8162 -0.1917
 1146TIP3    H125073   3.790   2.475  -0.024  2.0693 -0.9487 -1.5377
 1146TIP3    H225074   3.856   2.604  -0.066 -2.5787  2.1368 -0.1808
 1147TIP3   OH225075   1.217   1.233   0.544 -0.1806  0.2038  0.2778
 1147TIP3    H125076   1.252   1.162   0.490 -2.0963 -1.4388  1.0757
 1147TIP3    H225077   1.254   1.219   0.631 -1.4599 -0.5605  0.7221
 1148TIP3   OH225078   6.126   0.925   7.902  0.8761  0.4856  0.2678
 1148TIP3    H125079   6.104   0.832   7.913  2.3184 -0.1313 -1.5580
 1148TIP3    H225080   6.212   0.935   7.942  2.1345  0.2488 -2.2046
 1149TIP3   OH225081   3.777   4.356   1.304 -0.4504  0.0773 -0.3941
 1149TIP3    H125082   3.795   4.410   1.228  0.5671 -0.8368 -0.8253
 1149TIP3    H225083   3.775   4.267   1.271  0.6755 -0.4012  0.7316
 1150TIP3   OH225084   1.090   0.792   1.843 -0.1908 -0.6140 -0.4632
 1150TIP3    H125085   1.168   0.777   1.789  0.0781 -1.7713  0.1976
 1150TIP3    H225086   1.088   0.886   1.858  0.8966 -0.5325 -0.7767
 1151TIP3   OH225087   5.162   2.200   0.293 -0.2816 -0.1680 -0.1623
 1151TIP3    H125088   5.172   2.232   0.203 -0.4831  1.6896  0.4322
 1151TIP3    H225089   5.075   2.230   0.319 -0.3656 -1.0033  0.5364
 1152TIP3   OH225090   2.929   3.845   7.043 -0.5189 -0.3612  0.0163
 1152TIP3    H125091   2.993   3.804   7.100  1.3785  0.4257 -1.4168
 1152TIP3    H225092   2.907   3.778   6.979 -2.2238 -1.0653  1.2775
 1153TIP3   OH225093   2.684   1.703   8.770 -0.4447  0.4211  0.2160
 1153TIP3    H125094   2.697   1.661   8.685  1.4711  0.6926  0.3164
 1153TIP3    H225095   2.737   1.650   8.830 -1.4968  0.4384  1.1832
 1154TIP3   OH225096   2.136   5.308   0.383 -0.2786 -0.0511 -0.1805
 1154TIP3    H125097   2.121   5.255   0.305 -1.3529 -0.3095  0.1893
 1154TIP3    H225098   2.201   5.373   0.356  0.8493 -1.3495 -0.7359
 1155TIP3   OH225099   4.676   2.763   0.427 -0.3757  0.2394  0.1636
 1155TIP3    H125100   4.640   2.732   0.510  2.0976 -1.7552  0.5944
 1155TIP3    H225101   4.729   2.839   0.451 -2.0904  1.6043 -0.1231
 1156TIP3   OH225102   1.420   0.009   8.532  0.6652 -0.5513  0.3150
 1156TIP3    H125103   1.489   0.075   8.529 -0.0875  0.2342 -0.8425
 1156TIP3    H225104   1.457  -0.063   8.583  1.8187  0.4116  0.8868
 1157TIP3   OH225105   4.439   0.278   0.432  0.1785  0.4662 -0.2242
 1157TIP3    H125106   4.473   0.257   0.519  2.6631  1.4784 -0.8735
 1157TIP3    H225107   4.490   0.223   0.372 -1.3312 -0.0482 -1.0994
 1158TIP3   OH225108   1.066   0.041   1.889  0.0199  0.0773  0.5173
 1158TIP3    H125109   1.037   0.099   1.819  0.1782  0.7601  1.0092
 1158TIP3    H225110   1.124  -0.021   1.846 -0.7647 -0.2126 -0.1568
 1159TIP3   OH225111   6.345   6.645   2.493  0.0414  0.0802 -0.0076
 1159TIP3    H125112   6.280   6.710   2.519 -1.7546 -0.9273 -1.6544
 1159TIP3    H225113   6.423   6.696   2.473 -1.0432  1.6603 -0.4631
 1160TIP3   OH225114   2.259   5.307   6.860 -0.1642 -0.6283 -0.7398
 1160TIP3    H125115   2.263   5.212   6.846 -1.2916 -0.7479 -0.3070
 1160TIP3    H225116   2.222   5.317   6.947 -0.8964  0.2219 -1.1350
 1161TIP3   OH225117   6.037   0.794   1.845 -0.2806 -0.0305 -0.5145
 1161TIP3    H125118   6.105   0.800   1.912 -0.1111  2.7958 -0.8254
 1161TIP3    H225119   5.959   0.830   1.886 -1.0528 -1.2610 -0.8510
 1162TIP3   OH225120   1.804   6.190   2.785 -0.4176 -0.3566  0.2007
 1162TIP3    H125121   1.714   6.219   2.803 -0.5307 -0.4339 -0.2333
 1162TIP3    H225122   1.817   6.115   2.842 -1.3364 -1.6131 -1.1586
 1163TIP3   OH225123   2.634   1.177   7.969 -0.1417  0.1438 -0.0658
 1163TIP3    H125124   2.724   1.209   7.963 -0.2797  0.4363 -0.5802
 1163TIP3    H225125   2.637   1.112   8.039  0.5439 -0.1143 -0.3261
 1164TIP3   OH225126   0.992   3.021   7.974 -0.1804  0.2562 -0.2390
 1164TIP3    H125127   0.944   2.952   8.020  1.6539 -0.8102  0.1723
 1164TIP3    H225128   1.012   2.983   7.888  2.9204 -0.7989  0.8125
 1165TIP3   OH225129   1.034   1.298   7.482 -0.0326  0.6651  0.2385
 1165TIP3    H125130   1.057   1.209   7.507  0.9002  1.1049  1.0548
 1165TIP3    H225131   0.943   1.293   7.453  0.6028 -0.9202 -1.7338
 1166TIP3   OH225132   2.174   1.417   7.074 -0.5642  0.3212 -0.6106
 1166TIP3    H125133   2.186   1.323   7.065  0.0992 -0.0001  2.5297
 1166TIP3    H225134   2.172   1.450   6.984  0.1569 -2.5498 -1.7751
 1167TIP3   OH225135   3.225   1.723   6.663  0.1983  0.6852 -0.4669
 1167TIP3    H125136   3.198   1.808   6.627 -0.1961  0.6351 -0.2944
 1167TIP3    H225137   3.234   1.667   6.586  2.0848  1.3104 -0.7469
 1168TIP3   OH225138   2.730   0.413   0.825 -0.1063  0.3817 -0.0005
 1168TIP3    H125139   2.762   0.408   0.915  0.6086  0.1283 -0.2591
 1168TIP3    H225140   2.802   0.453   0.776 -0.8838  1.4890 -0.2813
 1169TIP3   OH225141   5.357   6.822   0.106  0.0741  0.1342  0.5448
 1169TIP3    H125142   5.448   6.846   0.086 -0.2165  1.9549  1.1704
 1169TIP3    H225143   5.307   6.848   0.029 -0.1675  1.0851  1.0007
 1170TIP3   OH225144   0.295   2.569   6.214  0.1457  0.2728 -0.0685
 1170TIP3    H125145   0.379   2.551   6.256 -0.4980  0.1740  1.2396
 1170TIP3    H225146   0.273   2.488   6.167  0.1547 -0.1860  0.7064
 1171TIP3   OH225147   4.711   3.509   0.911  0.6669 -0.1396 -0.2725
 1171TIP3    H125148   4.768   3.584   0.925 -0.1471  0.7218 -1.3929
 1171TIP3    H225149   4.746   3.466   0.833 -0.9537  1.1843 -1.7980
 1172TIP3   OH225150   4.382   0.754   8.780  0.4409  0.2601  0.1478
 1172TIP3    H125151   4.475   0.763   8.760  0.3947  0.5765  0.0679
 1172TIP3    H225152   4.370   0.660   8.794  0.8813  0.2803  0.6966
 1173TIP3   OH225153   1.608   5.165   7.755  0.2489 -0.0825 -0.2419
 1173TIP3    H125154   1.564   5.250   7.758 -2.2123 -1.2819  0.7260
 1173TIP3    H225155   1.669   5.171   7.682 -0.3927  2.2462 -0.6542
 1174TIP3   OH225156   4.327   2.342   7.282 -0.0758  0.1266 -0.2773
 1174TIP3    H125157   4.300   2.349   7.373  1.1159 -0.5396  0.1432
 1174TIP3    H225158   4.418   2.371   7.281 -0.0050 -0.0892 -1.2143
 1175TIP3   OH225159   4.667   3.402   1.564 -0.4001  0.0387 -1.0174
 1175TIP3    H125160   4.573   3.395   1.547 -0.7420 -0.2560  0.7798
 1175TIP3    H225161   4.707   3.334   1.510 -1.3297 -0.5644 -0.9498
 1176TIP3   OH225162   3.929   3.779   7.332  0.6202 -0.6119 -0.2471
 1176TIP3    H125163   3.901   3.766   7.423 -0.2252 -0.8023 -0.5300
 1176TIP3    H225164   3.914   3.695   7.289  1.1162 -0.5554 -0.5483
 1177TIP3   OH225165   3.839   3.882   8.133  0.9086 -0.6561  0.7126
 1177TIP3    H125166   3.881   3.944   8.073 -1.1414  0.2095  0.0940
 1177TIP3    H225167   3.910   3.851   8.188  2.9145 -1.4625 -2.0853
 1178TIP3   OH225168   2.459   5.481   2.002  0.0061 -0.2471  0.5512
 1178TIP3    H125169   2.471   5.507   2.094 -1.8494  2.1623  0.2151
 1178TIP3    H225170   2.504   5.549   1.952 -0.7853 -0.3735 -0.3542
 1179TIP3   OH225171   2.437   5.093   1.170  0.3755 -0.4545 -0.2829
 1179TIP3    H125172   2.349   5.056   1.160  0.2657 -1.2649  2.8460
 1179TIP3    H225173   2.426   5.163   1.235  2.0562 -0.6416  0.2322
 1180TIP3   OH225174   1.782   1.911   1.906 -0.1954  0.2399 -0.2314
 1180TIP3    H125175   1.764   2.002   1.928 -1.4379 -0.1052  0.2365
 1180TIP3    H225176   1.878   1.907   1.899 -0.1501  1.6782 -0.7604
 1181TIP3   OH225177   0.294   0.819   1.378  0.2721  0.3211 -0.3546
 1181TIP3    H125178   0.309   0.892   1.318 -1.4506 -0.7231 -2.1763
 1181TIP3    H225179   0.201   0.797   1.367  0.3100 -1.0182  1.4617
 1182TIP3   OH225180   3.791   3.198   1.275 -0.0759 -0.8475  0.2702
 1182TIP3    H125181   3.847   3.121   1.282 -1.4175 -1.7607  1.7316
 1182TIP3    H225182   3.728   3.175   1.207 -0.4874 -1.0598  0.7192
 1183TIP3   OH225183   3.075   4.350   0.508  0.1374 -0.5982 -0.3374
 1183TIP3    H125184   3.098   4.274   0.454 -1.5824 -1.4508  0.0458
 1183TIP3    H225185   3.145   4.413   0.491  2.5219 -2.8200  0.5304
 1184TIP3   OH225186   3.791   1.064   0.618 -0.0304  0.2009  0.3084
 1184TIP3    H125187   3.751   1.060   0.705  0.3820  1.5095  0.5837
 1184TIP3    H225188   3.809   1.157   0.605  2.5214 -0.2828  0.0116
 1185TIP3   OH225189   0.308   2.618   1.019 -0.1449  0.3831  0.2669
 1185TIP3    H125190   0.294   2.710   1.038  2.4858  1.4601 -2.2849
 1185TIP3    H225191   0.366   2.587   1.088 -2.0393  0.1898  1.8580
 1186TIP3   OH225192   5.532   0.848   8.012  0.3255  0.0161  0.0678
 1186TIP3    H125193   5.535   0.940   7.984  0.2804 -0.1809 -0.6161
 1186TIP3    H225194   5.492   0.851   8.099  0.0925  0.6270 -0.0498
 1187TIP3   OH225195   0.491   2.785   2.015 -0.2750 -0.2901  0.0641
 1187TIP3    H125196   0.525   2.778   2.104 -1.4625  0.2078  0.5885
 1187TIP3    H225197   0.517   2.873   1.986 -2.1680  0.6352  0.9766
 1188TIP3   OH225198   4.883   5.013   7.404  0.1853  0.2605 -0.5393
 1188TIP3    H125199   4.944   5.083   7.380  0.0329  0.4396 -0.4032
 1188TIP3    H225200   4.937   4.950   7.453  0.5648 -0.2483 -1.5631
 1189TIP3   OH225201   3.910   3.942   6.443 -0.3368  0.2275 -0.2784
 1189TIP3    H125202   3.869   3.885   6.377  0.1503 -0.0970 -0.3080
 1189TIP3    H225203   3.993   3.898   6.465 -0.3608  0.4767  0.3436
 1190TIP3   OH225204   4.291   1.748   0.227  0.4260  0.4490 -0.2504
 1190TIP3    H125205   4.210   1.698   0.214  0.1946  0.7788 -0.0951
 1190TIP3    H225206   4.361   1.684   0.213  0.1398  0.1664 -0.4135
 1191TIP3   OH225207   5.784   0.097   7.410  0.6018  0.0567 -0.1345
 1191TIP3    H125208   5.713   0.046   7.448 -0.9133  0.2946 -2.4060
 1191TIP3    H225209   5.781   0.181   7.455 -0.7534  0.1518 -0.3631
 1192TIP3   OH225210   5.453   3.764   7.424  0.5602  0.2268 -0.3333
 1192TIP3    H125211   5.498   3.776   7.507  0.1298 -0.4862  0.0056
 1192TIP3    H225212   5.403   3.845   7.412 -1.1813 -0.5355  1.2303
 1193TIP3   OH225213   3.121   0.081   7.664  0.4604 -0.3069 -0.2591
 1193TIP3    H125214   3.155   0.131   7.739  0.2604 -0.7962  0.1620
 1193TIP3    H225215   3.031   0.061   7.687  0.9300 -2.0202  0.1922
 1194TIP3   OH225216   5.034   1.971   0.632 -0.0765  0.3583 -0.1084
 1194TIP3    H125217   4.956   2.023   0.612  1.0413  1.8262 -0.8182
 1194TIP3    H225218   5.070   1.947   0.547  0.7016  0.4118  0.1945
 1195TIP3   OH225219   5.251   0.456   0.017 -0.1978  0.1003  0.2739
 1195TIP3    H125220   5.204   0.525   0.064 -1.5850 -0.4064 -0.3041
 1195TIP3    H225221   5.183   0.395  -0.009  0.6677 -0.2011 -1.4186
 1196TIP3   OH225222   6.709   6.785   8.309 -0.1835  0.1785  0.1526
 1196TIP3    H125223   6.732   6.701   8.350 -0.7778 -0.3144 -0.5036
 1196TIP3    H225224   6.622   6.771   8.271 -0.2765  1.0833  0.0074
 1197TIP3   OH225225   2.926   1.188   8.013  0.1706  1.1225 -0.8055
 1197TIP3    H125226   3.006   1.160   8.057 -0.2569  0.8289 -0.1990
 1197TIP3    H225227   2.933   1.152   7.925 -0.4065 -1.0200 -0.0333
 1198TIP3   OH225228   1.202   5.340   1.471  0.1174  0.4402 -0.5185
 1198TIP3    H125229   1.155   5.277   1.416 -1.7377  0.7242  0.6324
 1198TIP3    H225230   1.287   5.300   1.486 -0.2792 -0.8341 -1.4865
 1199TIP3   OH225231   1.050   2.201   7.644  0.3241  0.2261  0.0050
 1199TIP3    H125232   1.069   2.207   7.551  1.7257  0.4486  0.2869
 1199TIP3    H225233   1.018   2.111   7.656  3.8671 -1.2395 -0.1251
 1200TIP3   OH225234   2.190   2.177   0.047 -0.2752 -0.1422  0.0785
 1200TIP3    H125235   2.132   2.163  -0.027 -0.9909  1.0890  0.3918
 1200TIP3    H225236   2.266   2.221   0.011  0.6287 -1.9988 -0.3804
 1201TIP3   OH225237   3.240   1.449   7.604  0.0507  0.0586  0.2332
 1201TIP3    H125238   3.233   1.361   7.566 -0.4673  1.2596 -2.7382
 1201TIP3    H225239   3.334   1.465   7.610  0.1415 -0.4559  0.2405
 1202TIP3   OH225240   5.439   5.174   6.330  0.2601 -0.2401  0.1055
 1202TIP3    H125241   5.375   5.242   6.351  0.8433  0.8338 -1.4211
 1202TIP3    H225242   5.390   5.092   6.336 -1.0830  0.4959 -0.3222
 1203TIP3   OH225243   1.636   2.638   8.450  0.1677 -0.1196  0.0848
 1203TIP3    H125244   1.625   2.731   8.467  0.9518  0.5630 -2.6552
 1203TIP3    H225245   1.567   2.596   8.502 -0.0867  1.9269  1.5207
 1204TIP3   OH225246   0.896   0.779   7.420 -0.2081 -0.0597  0.2337
 1204TIP3    H125247   0.907   0.686   7.441  0.8589 -0.2235 -0.9006
 1204TIP3    H225248   0.801   0.792   7.417 -0.3683 -1.0841  0.5376
 1205TIP3   OH225249   1.762   3.021   8.558 -0.0691 -0.0347 -0.1214
 1205TIP3    H125250   1.695   3.053   8.619 -0.4039 -0.4251 -0.2802
 1205TIP3    H225251   1.796   3.099   8.516  0.3889  0.2714  0.7965
 1206TIP3   OH225252   2.063   5.370   2.272  0.1496  0.5650 -0.2631
 1206TIP3    H125253   2.120   5.325   2.334 -1.6290 -1.0183  0.3389
 1206TIP3    H225254   2.052   5.458   2.308  0.0187  0.0171  1.1065
 1207TIP3   OH225255   5.932   5.551   8.050 -0.1763 -0.2343 -0.3600
 1207TIP3    H125256   5.905   5.643   8.061 -1.2362 -0.6696  0.8689
 1207TIP3    H225257   5.894   5.526   7.965 -1.1959  0.0346 -0.0065
 1208TIP3   OH225258   5.291   2.321   0.041  0.1267 -0.5977  0.0983
 1208TIP3    H125259   5.362   2.386   0.045 -0.3955 -0.0359  0.5039
 1208TIP3    H225260   5.266   2.320  -0.051 -0.1588  0.1207  0.1591
 1209TIP3   OH225261   0.413   4.379   1.057  0.1186  0.4800 -0.3911
 1209TIP3    H125262   0.394   4.286   1.064 -0.1020  0.5822  0.6430
 1209TIP3    H225263   0.490   4.385   1.002  1.4799 -0.4897  1.3244
 1210TIP3   OH225264   2.708   1.165   7.572 -0.0770 -0.5719  0.0799
 1210TIP3    H125265   2.617   1.158   7.601  0.1669 -0.2893  0.9487
 1210TIP3    H225266   2.746   1.233   7.628  0.3527  0.1960 -1.0925
 1211TIP3   OH225267   6.068   3.303   0.162 -0.2068 -0.0702  0.2627
 1211TIP3    H125268   6.067   3.345   0.076  0.3866 -2.9234 -1.2645
 1211TIP3    H225269   6.158   3.313   0.193  0.6660 -2.2080 -1.2832
 1212TIP3   OH225270   6.443   0.803   2.429 -0.0459  0.1669  0.0991
 1212TIP3    H125271   6.413   0.770   2.345  0.6494 -1.5003  0.4737
 1212TIP3    H225272   6.429   0.898   2.424  0.2107  0.1314 -1.9583
 1213TIP3   OH225273   0.394   0.108   0.216 -0.3205  0.1899  0.0131
 1213TIP3    H125274   0.370   0.172   0.149  0.4270 -0.2126 -0.6613
 1213TIP3    H225275   0.442   0.159   0.282 -2.3879  0.8754  1.0602
 1214TIP3   OH225276   1.258   4.638   6.660 -0.6954 -0.3278  0.0919
 1214TIP3    H125277   1.329   4.603   6.606 -0.5462  1.5870 -1.0134
 1214TIP3    H225278   1.217   4.560   6.698  0.0517 -1.6635 -1.6866
 1215TIP3   OH225279   6.037   4.232   8.709  0.5586 -0.1981  0.5071
 1215TIP3    H125280   5.960   4.222   8.653  0.0982  0.1736  1.0520
 1215TIP3    H225281   6.003   4.220   8.798  0.7815  1.6240  0.8823
 1216TIP3   OH225282   5.653   0.930   1.515  0.3686  0.2456  0.0645
 1216TIP3    H125283   5.595   0.983   1.570  1.2377  2.4797 -1.0318
 1216TIP3    H225284   5.597   0.896   1.446 -0.2739 -0.5609  0.9694
 1217TIP3   OH225285   1.719   5.689   2.494  0.3483 -0.1493  0.2027
 1217TIP3    H125286   1.709   5.784   2.501  0.7737  0.0616 -1.6044
 1217TIP3    H225287   1.795   5.669   2.549  1.4022  0.8449 -0.8165
 1218TIP3   OH225288   2.794   4.917   7.841 -0.6734 -0.6584  0.1456
 1218TIP3    H125289   2.855   4.915   7.768 -0.6862  1.5232  0.0052
 1218TIP3    H225290   2.797   4.829   7.877  2.1595 -0.7986 -0.1865
 1219TIP3   OH225291   4.937   2.142   1.489 -0.2263 -0.6080 -0.1723
 1219TIP3    H125292   4.857   2.089   1.489 -1.1015  0.6743  0.1922
 1219TIP3    H225293   4.978   2.123   1.573 -0.5662 -0.6532 -0.0155
 1220TIP3   OH225294   1.144   1.335   8.364  0.4765  0.2773  0.5348
 1220TIP3    H125295   1.216   1.388   8.330 -0.6967  1.8705  0.4182
 1220TIP3    H225296   1.072   1.350   8.303 -0.2664 -0.5241  1.1801
 1221TIP3   OH225297   3.488   1.661   6.744 -0.3154 -0.4855 -0.0859
 1221TIP3    H125298   3.517   1.694   6.829 -0.4466  0.0335 -0.2421
 1221TIP3    H225299   3.424   1.725   6.713  1.6282  0.8153 -1.7754
 1222TIP3   OH225300   6.627   4.016   8.431  0.5641  0.5498  0.0820
 1222TIP3    H125301   6.583   4.090   8.389 -0.3451  0.0018  0.0379
 1222TIP3    H225302   6.588   3.939   8.389  0.5526  0.0244  1.0437
 1223TIP3   OH225303   4.578   1.691   7.401 -0.3836  0.2849  0.3202
 1223TIP3    H125304   4.585   1.719   7.310  0.5042 -0.3178  0.1844
 1223TIP3    H225305   4.573   1.595   7.397  1.7964  0.0755  0.9403
 1224TIP3   OH225306   2.405   6.003   8.540 -0.0389  0.0746  0.2447
 1224TIP3    H125307   2.486   5.986   8.492 -0.5057 -1.9637  0.1067
 1224TIP3    H225308   2.432   6.009   8.632  0.4754  1.2394  0.0445
 1225TIP3   OH225309   3.554   2.722   1.502 -0.3754 -0.8648 -0.1474
 1225TIP3    H125310   3.469   2.766   1.515  0.3821  0.7315 -0.2873
 1225TIP3    H225311   3.575   2.684   1.587 -0.6606 -0.1919  0.2315
 1226TIP3   OH225312   1.030   5.537   0.917  0.9389  0.3706 -0.0617
 1226TIP3    H125313   1.078   5.619   0.906 -2.8518  2.8340 -0.0752
 1226TIP3    H225314   0.988   5.522   0.833  0.5771 -0.9553  0.3203
 1227TIP3   OH225315   3.828   6.034   1.934 -0.9828 -0.0156  0.3172
 1227TIP3    H125316   3.793   6.088   1.863 -0.0912 -1.9901 -1.7414
 1227TIP3    H225317   3.923   6.036   1.921 -0.9217 -2.1823  0.0209
 1228TIP3   OH225318   3.410   0.654   1.350  0.5055  0.1071 -0.3886
 1228TIP3    H125319   3.389   0.680   1.439  3.6202 -0.0205  0.4927
 1228TIP3    H225320   3.356   0.711   1.295 -0.2685  1.3400  1.5596
 1229TIP3   OH225321   5.777   5.009   8.620  0.1955  0.0424  0.2337
 1229TIP3    H125322   5.714   5.013   8.548 -0.4075  4.4339  0.7493
 1229TIP3    H225323   5.729   4.966   8.691 -1.0454  0.3249 -0.4006
 1230TIP3   OH225324   0.479   2.025   1.657  0.0097  0.1532  0.4760
 1230TIP3    H125325   0.428   1.967   1.712 -0.3347 -0.0372 -0.0428
 1230TIP3    H225326   0.497   2.101   1.713 -1.4266  0.5403  0.4485
 1231TIP3   OH225327   5.859   6.344   1.699 -0.2723  0.8017 -0.1704
 1231TIP3    H125328   5.930   6.280   1.692 -2.8352 -2.5839  1.5819
 1231TIP3    H225329   5.858   6.369   1.791 -1.9485 -0.1568  0.1268
 1232TIP3   OH225330   5.558   2.828   2.274 -0.0843  0.3608 -0.6079
 1232TIP3    H125331   5.634   2.847   2.329  1.3185 -1.5068 -1.7662
 1232TIP3    H225332   5.509   2.761   2.322 -0.1287  0.4111 -0.5828
 1233TIP3   OH225333   4.861   4.164   8.693 -0.4918 -0.7422 -0.9409
 1233TIP3    H125334   4.800   4.204   8.631  0.5935 -1.0791 -2.2904
 1233TIP3    H225335   4.813   4.089   8.729 -1.9363  0.7442  0.3671
 1234TIP3   OH225336   3.663   2.221   2.080  0.0310 -0.3758 -0.4766
 1234TIP3    H125337   3.674   2.227   2.175 -0.0105  0.2692 -0.5077
 1234TIP3    H225338   3.583   2.271   2.062 -0.3479 -1.0796 -0.7750
 1235TIP3   OH225339   6.695   1.744   0.666 -0.0498 -0.1151 -0.0478
 1235TIP3    H125340   6.743   1.736   0.584 -0.1503 -1.5769  0.0064
 1235TIP3    H225341   6.691   1.838   0.682  1.7782  0.1137 -0.6474
 1236TIP3   OH225342   5.641   0.939   8.536 -0.2691 -0.3662 -0.2474
 1236TIP3    H125343   5.619   0.846   8.526  0.8528 -0.8048  1.0565
 1236TIP3    H225344   5.678   0.945   8.624  0.2880  1.2066 -0.5630
 1237TIP3   OH225345   4.178   5.858   8.145  0.1556 -0.1632 -0.3146
 1237TIP3    H125346   4.174   5.947   8.181 -0.8275 -0.4390  0.3136
 1237TIP3    H225347   4.229   5.867   8.064 -0.3931  1.0804 -0.5520
 1238TIP3   OH225348   2.155   5.538   6.484 -0.1129 -0.2553  0.0194
 1238TIP3    H125349   2.168   5.467   6.422  1.1502 -2.0514  2.1911
 1238TIP3    H225350   2.084   5.590   6.447 -1.4618 -2.9277 -1.4275
 1239TIP3   OH225351   3.456   4.991   8.210  0.3622  0.0224 -0.2279
 1239TIP3    H125352   3.546   4.965   8.190  0.3573 -0.2862  0.1291
 1239TIP3    H225353   3.460   5.086   8.220  0.6234  0.0248 -0.3407
 1240TIP3   OH225354   4.767   1.491   7.160  0.0225  0.6126 -0.2076
 1240TIP3    H125355   4.751   1.464   7.251  2.1052 -0.7055 -0.1758
 1240TIP3    H225356   4.825   1.567   7.168  2.7845 -1.3442 -0.3751
 1241TIP3   OH225357   5.712   5.949   6.988 -0.2551  0.1027  0.0528
 1241TIP3    H125358   5.789   5.915   6.941  0.0172  1.1268 -0.2638
 1241TIP3    H225359   5.642   5.888   6.965  0.4947 -0.9995  0.5357
 1242TIP3   OH225360   1.132   3.355   0.345  0.0689 -0.2257  0.3070
 1242TIP3    H125361   1.177   3.423   0.296  2.9733 -2.1441  0.0064
 1242TIP3    H225362   1.082   3.306   0.279 -0.7890  0.6645  0.2819
 1243TIP3   OH225363   5.951   4.434   8.437  0.0726 -0.2414 -0.8742
 1243TIP3    H125364   5.867   4.435   8.484  0.2615  1.2068 -0.5148
 1243TIP3    H225365   6.015   4.466   8.501  0.6839 -0.1542 -1.5111
 1244TIP3   OH225366   5.835   5.439   1.512  0.1255 -0.0298 -0.0588
 1244TIP3    H125367   5.847   5.356   1.557 -1.3066 -0.3898 -0.3090
 1244TIP3    H225368   5.867   5.423   1.423  0.5414 -0.0760  0.0937
 1245TIP3   OH225369   4.333   6.333   1.393  0.1232  0.2401  0.7848
 1245TIP3    H125370   4.285   6.403   1.349 -1.1898 -0.1245  1.5640
 1245TIP3    H225371   4.424   6.345   1.365 -0.4800  0.6031 -1.2317
 1246TIP3   OH225372   2.713   1.137   2.088 -0.3242 -0.1171  0.0476
 1246TIP3    H125373   2.771   1.089   2.029 -1.0510  0.0940 -0.8663
 1246TIP3    H225374   2.714   1.086   2.169  0.4351 -0.5969 -0.2502
 1247TIP3   OH225375   4.214   0.553   8.399 -0.1311 -0.2511 -0.6929
 1247TIP3    H125376   4.136   0.520   8.354  0.2413 -0.8524 -0.9140
 1247TIP3    H225377   4.286   0.529   8.340  0.2653 -0.1498 -0.2475
 1248TIP3   OH225378   2.521   1.527   6.892 -0.3874  0.4561  0.2182
 1248TIP3    H125379   2.572   1.535   6.972  0.6055 -0.0114 -0.3468
 1248TIP3    H225380   2.531   1.611   6.848 -0.0841  0.3557  0.0960
 1249TIP3   OH225381   3.426   1.524   7.176 -0.3916 -0.3156  0.0391
 1249TIP3    H125382   3.449   1.436   7.146 -2.6815 -1.2820  0.8730
 1249TIP3    H225383   3.381   1.510   7.259 -0.6989  1.6734  0.2628
 1250TIP3   OH225384   4.876   5.872   6.878  0.1247  0.1780 -1.0734
 1250TIP3    H125385   4.789   5.908   6.865 -0.2588 -0.4225 -0.2523
 1250TIP3    H225386   4.930   5.946   6.903 -0.3442  0.4134 -0.7530
 1251TIP3   OH225387   2.165   3.615   1.527  0.0736  0.3147  0.3025
 1251TIP3    H125388   2.095   3.658   1.477  1.0081  1.0696 -0.4028
 1251TIP3    H225389   2.158   3.651   1.615  0.7488  1.8719 -0.2396
 1252TIP3   OH225390   2.044   4.020   0.130  0.5681 -0.0292  0.2568
 1252TIP3    H125391   1.953   4.050   0.130  0.5436 -0.1059 -0.1042
 1252TIP3    H225392   2.083   4.065   0.205  0.9758  2.2352 -1.2306
 1253TIP3   OH225393   4.499   1.251   8.083  0.0826  0.1826 -0.2916
 1253TIP3    H125394   4.588   1.251   8.047  0.3952 -0.3194  0.4530
 1253TIP3    H225395   4.466   1.163   8.066 -0.1935  0.2968 -0.3629
 1254TIP3   OH225396   2.568   6.517   6.409  0.2922  0.1310  0.5591
 1254TIP3    H125397   2.561   6.610   6.385  0.1478  0.4355  1.7163
 1254TIP3    H225398   2.500   6.474   6.357 -0.4135  0.8638  0.8385
 1255TIP3   OH225399   4.710   0.429   1.943 -0.0489 -0.3341 -0.1446
 1255TIP3    H125400   4.688   0.470   1.859 -0.1524 -0.8152 -0.3586
 1255TIP3    H225401   4.708   0.500   2.006 -1.6790 -0.2522 -0.2510
 1256TIP3   OH225402   3.969   0.413   8.326 -0.1826  0.1323 -0.3580
 1256TIP3    H125403   3.945   0.375   8.241  0.7040 -2.3953  0.4384
 1256TIP3    H225404   3.900   0.383   8.385  0.2312  0.2495  0.1895
 1257TIP3   OH225405   5.730   3.486   0.919  0.0415  0.3097  0.0857
 1257TIP3    H125406   5.654   3.532   0.881  0.4838  0.4983 -0.5872
 1257TIP3    H225407   5.757   3.424   0.852  0.1029 -0.2005  0.5747
 1258TIP3   OH225408   4.393   0.611   1.747  0.7323  0.5606 -0.0488
 1258TIP3    H125409   4.328   0.613   1.676 -0.3317 -0.5496  0.8412
 1258TIP3    H225410   4.378   0.692   1.796 -0.2833  0.1389  0.3713
 1259TIP3   OH225411   1.231   4.682   8.100  0.0821 -0.3080 -0.0509
 1259TIP3    H125412   1.141   4.661   8.076  0.3612 -1.0899 -0.4482
 1259TIP3    H225413   1.224   4.729   8.183 -0.6353 -1.0476  0.3152
 1260TIP3   OH225414   1.354   3.898   2.199  0.2622  0.2052 -0.1961
 1260TIP3    H125415   1.291   3.845   2.248 -0.0001 -0.2042 -0.9423
 1260TIP3    H225416   1.416   3.929   2.264 -0.3628  0.0957  0.4595
 1261TIP3   OH225417   6.075   3.112   0.827 -0.0606 -0.1240 -0.4875
 1261TIP3    H125418   6.077   3.125   0.732 -1.5776 -0.0299 -0.5300
 1261TIP3    H225419   6.038   3.193   0.862  1.2470  0.1672  0.2717
 1262TIP3   OH225420   4.509   4.962   6.959  0.0094  0.1624 -0.1264
 1262TIP3    H125421   4.553   5.030   6.909 -0.9885  1.7425  1.0680
 1262TIP3    H225422   4.441   4.930   6.900  0.3556  0.3159 -0.6232
 1263TIP3   OH225423   5.471   0.703   7.326 -0.9247 -0.6440 -0.2667
 1263TIP3    H125424   5.396   0.761   7.313 -1.5328 -0.9810  1.5164
 1263TIP3    H225425   5.543   0.761   7.349 -0.9243 -0.4252 -0.7990
 1264TIP3   OH225426   3.980   6.141   1.423 -0.2249 -0.1706 -0.4587
 1264TIP3    H125427   4.015   6.115   1.509 -1.7573  0.3107  0.3497
 1264TIP3    H225428   4.050   6.121   1.362  1.0937 -0.1084  0.9666
 1265TIP3   OH225429   2.912   3.738   0.700  0.1027  0.4831 -0.2212
 1265TIP3    H125430   2.906   3.739   0.605 -1.0308  2.6545 -0.1981
 1265TIP3    H225431   3.004   3.722   0.719  0.2809 -0.2934 -1.6664
 1266TIP3   OH225432   6.851   0.203   7.497 -0.3707 -0.0730 -0.1556
 1266TIP3    H125433   6.899   0.226   7.418 -0.8772 -1.3855 -0.8622
 1266TIP3    H225434   6.762   0.235   7.481 -0.3472  0.1397  0.1206
 1267TIP3   OH225435   6.410   6.405   0.636 -0.4545 -0.6973 -0.2825
 1267TIP3    H125436   6.387   6.349   0.561 -1.0675 -1.3569  0.3819
 1267TIP3    H225437   6.355   6.482   0.625 -0.1068 -0.5186 -0.8334
 1268TIP3   OH225438   0.947   0.905   0.840  0.0456 -0.3435 -0.1273
 1268TIP3    H125439   1.006   0.979   0.855 -0.4834  0.1154 -0.2725
 1268TIP3    H225440   0.869   0.944   0.802  0.5613 -1.2298 -2.2527
 1269TIP3   OH225441   1.813   6.151   1.782  0.3621  0.2164 -0.1486
 1269TIP3    H125442   1.879   6.082   1.790  1.0602  1.1495  3.3269
 1269TIP3    H225443   1.863   6.232   1.777 -0.3430  1.0475  3.7045
 1270TIP3   OH225444   5.740   1.324   7.064  0.0630 -0.1593 -0.0309
 1270TIP3    H125445   5.788   1.277   6.996  0.0046 -0.3859  0.0839
 1270TIP3    H225446   5.734   1.414   7.031  1.1207  0.0213  0.2399
 1271TIP3   OH225447   5.706   1.979   6.785 -0.1193 -0.7684 -0.0616
 1271TIP3    H125448   5.678   1.897   6.744 -1.8599 -0.9770  1.3947
 1271TIP3    H225449   5.624   2.022   6.810  0.5752  2.6086 -2.8593
 1272TIP3   OH225450   6.583   6.141   0.334 -0.1717  0.3271 -0.2688
 1272TIP3    H125451   6.654   6.190   0.294 -3.0659  1.6388 -4.3654
 1272TIP3    H225452   6.617   6.051   0.340  2.2098  1.1131 -0.8646
 1273TIP3   OH225453   3.226   4.761   7.466  0.7456  0.2378  0.1935
 1273TIP3    H125454   3.299   4.815   7.499  0.8576  0.0408  0.2663
 1273TIP3    H225455   3.171   4.823   7.418  1.6171  0.1708 -0.9481
 1274TIP3   OH225456   3.428   3.678   6.716 -0.4183  0.1831  0.0373
 1274TIP3    H125457   3.492   3.650   6.782 -0.9376  0.0924  0.5140
 1274TIP3    H225458   3.436   3.613   6.646 -0.9689 -0.6499  0.7292
 1275TIP3   OH225459   3.215   2.673   8.727  0.8197  0.4070 -0.4093
 1275TIP3    H125460   3.301   2.683   8.768  1.5154  0.3639 -1.7993
 1275TIP3    H225461   3.167   2.753   8.749  1.5828  0.8768 -0.4444
 1276TIP3   OH225462   2.707   0.697   8.331  0.0817 -0.5534  0.1141
 1276TIP3    H125463   2.755   0.641   8.270  0.8815 -0.3932  0.5843
 1276TIP3    H225464   2.651   0.636   8.380 -1.5157 -0.5488 -1.5969
 1277TIP3   OH225465   0.970   4.625   8.086  1.4318  0.3719  0.2482
 1277TIP3    H125466   0.883   4.644   8.119  0.7922  0.7664 -1.5374
 1277TIP3    H225467   0.970   4.530   8.074  0.7532  0.4920 -0.9250
 1278TIP3   OH225468   1.739   4.811   2.277 -0.0901  0.2137 -0.1415
 1278TIP3    H125469   1.661   4.774   2.319  0.4616 -1.5303 -0.5765
 1278TIP3    H225470   1.761   4.887   2.332 -0.6938 -0.6725  1.4130
 1279TIP3   OH225471   4.231   2.345   1.507 -0.6118 -0.6878 -0.0357
 1279TIP3    H125472   4.156   2.340   1.447 -0.8269 -1.3598  0.2778
 1279TIP3    H225473   4.195   2.320   1.592 -1.0984  3.3262  1.1686
 1280TIP3   OH225474   0.410   5.013   2.130  0.4068  0.2633 -0.4246
 1280TIP3    H125475   0.464   4.979   2.059 -0.1377  0.9644 -1.1964
 1280TIP3    H225476   0.454   5.092   2.159  1.1304 -0.5090  0.6840
 1281TIP3   OH225477   3.200   4.463   7.008  0.7702 -0.1377  0.2408
 1281TIP3    H125478   3.132   4.412   6.965  0.8630 -0.5087  0.5331
 1281TIP3    H225479   3.275   4.458   6.949  0.0938  1.5395 -0.8434
 1282TIP3   OH225480   1.781   4.450   6.968 -0.1762  0.4179 -0.4793
 1282TIP3    H125481   1.806   4.385   6.902 -1.6531  1.1725 -1.8361
 1282TIP3    H225482   1.687   4.461   6.956 -0.4754  0.6601  1.7182
 1283TIP3   OH225483   4.383   5.474   7.171 -0.3179  0.1538  0.0562
 1283TIP3    H125484   4.416   5.538   7.108 -1.3999  0.2998 -0.3869
 1283TIP3    H225485   4.458   5.454   7.228  1.1725 -1.2112 -2.2447
 1284TIP3   OH225486   0.647   5.180   0.801  0.2312 -0.0048 -0.6723
 1284TIP3    H125487   0.606   5.110   0.852 -1.1897 -0.8915 -2.9116
 1284TIP3    H225488   0.741   5.168   0.817 -0.0895 -1.0564  0.6650
 1285TIP3   OH225489   4.395   6.528   8.404 -0.2613 -0.4090 -0.1771
 1285TIP3    H125490   4.322   6.559   8.458 -0.3569 -1.8744  0.5938
 1285TIP3    H225491   4.471   6.576   8.436 -0.6956  0.3752 -0.2869
 1286TIP3   OH225492   1.456   6.294   8.171  0.4447 -0.2504  0.8843
 1286TIP3    H125493   1.375   6.336   8.143  0.2663 -2.4275 -2.5468
 1286TIP3    H225494   1.517   6.310   8.099  1.8860 -1.7171  1.7156
 1287TIP3   OH225495   2.823   5.683   1.137  0.2724  0.0560 -1.3945
 1287TIP3    H125496   2.755   5.692   1.070  1.3677  1.2572 -2.4194
 1287TIP3    H225497   2.877   5.761   1.126  0.5968  0.2091  0.8174
 1288TIP3   OH225498   3.457   4.284   1.006  0.0306  0.4344 -0.6266
 1288TIP3    H125499   3.456   4.365   1.057 -0.4087  0.8129 -1.2253
 1288TIP3    H225500   3.457   4.313   0.915 -3.3021 -0.1833 -0.9562
 1289TIP3   OH225501   2.094   6.848   7.220  0.4800  0.1770  0.2277
 1289TIP3    H125502   2.159   6.917   7.230  0.1941  0.5910 -0.6652
 1289TIP3    H225503   2.093   6.830   7.126 -2.0979  1.5801 -0.0999
 1290TIP3   OH225504   2.113   3.579   0.995  0.3418  0.0885  0.0616
 1290TIP3    H125505   2.159   3.638   1.055 -0.1721  1.3006 -0.7123
 1290TIP3    H225506   2.042   3.632   0.958  0.0442 -0.9272 -0.8668
 1291TIP3   OH225507   1.687   3.098   0.232  0.3825  0.4659  0.3331
 1291TIP3    H125508   1.727   3.128   0.313  0.9130  2.0391 -0.4769
 1291TIP3    H225509   1.757   3.103   0.167 -0.6104  1.4527 -0.7084
 1292TIP3   OH225510   4.755   6.627   8.376  0.2628 -0.0294 -0.1918
 1292TIP3    H125511   4.803   6.589   8.302 -0.1325 -0.2168 -0.3552
 1292TIP3    H225512   4.815   6.692   8.413  1.4260 -1.6055  0.8144
 1293TIP3   OH225513   1.362   3.746   7.388  0.0259  0.0424  0.3908
 1293TIP3    H125514   1.400   3.776   7.471 -0.0674 -1.1428  0.8790
 1293TIP3    H225515   1.312   3.668   7.412 -1.7726  0.8858 -0.4278
 1294TIP3   OH225516   0.963   4.801   8.649 -0.2917 -0.2973 -0.1753
 1294TIP3    H125517   1.039   4.783   8.704 -1.1383 -1.3427  0.6873
 1294TIP3    H225518   0.967   4.896   8.633 -0.3764  0.1782  2.2479
 1295TIP3   OH225519   5.716   3.060   1.023 -0.2720 -0.1431 -0.0005
 1295TIP3    H125520   5.708   3.112   0.943 -0.0109  2.1216  1.3841
 1295TIP3    H225521   5.626   3.046   1.052 -0.2998  0.7323  0.3485
 1296TIP3   OH225522   1.589   1.944   8.600 -0.2393  0.0090 -0.4267
 1296TIP3    H125523   1.668   1.997   8.605 -0.5962  0.6956 -1.6051
 1296TIP3    H225524   1.594   1.886   8.676  1.2847  0.1765 -0.3704
 1297TIP3   OH225525   2.164   2.116   1.570  0.0535  0.1431  0.2842
 1297TIP3    H125526   2.158   2.205   1.603 -0.1363 -0.5541  2.2300
 1297TIP3    H225527   2.253   2.109   1.534 -0.4422  1.5446 -1.3596
 1298TIP3   OH225528   4.046   4.504   8.440  0.4495 -1.0614  0.4117
 1298TIP3    H125529   4.024   4.520   8.532  1.3891 -1.3774  0.7087
 1298TIP3    H225530   3.969   4.461   8.404 -0.2676 -0.1426  0.8156
 1299TIP3   OH225531   2.334   4.328   0.027  0.3986 -0.3665  0.0173
 1299TIP3    H125532   2.360   4.417   0.052  1.4895 -1.0471  1.4037
 1299TIP3    H225533   2.355   4.274   0.103 -0.0290 -1.8682 -0.8876
 1300TIP3   OH225534   6.439   6.112   7.385 -0.3770  0.1639 -0.7829
 1300TIP3    H125535   6.386   6.192   7.377 -0.6802  0.1902  1.0586
 1300TIP3    H225536   6.378   6.041   7.367 -0.8828  0.2316  0.5541
 1301TIP3   OH225537   4.540   0.429   0.673  0.0800  0.1067  0.2260
 1301TIP3    H125538   4.498   0.514   0.664 -0.0874 -0.0124 -0.1025
 1301TIP3    H225539   4.613   0.431   0.610 -1.3632 -0.8908 -1.5676
 1302TIP3   OH225540   4.253   0.945   2.115  0.4380  0.4465 -0.1776
 1302TIP3    H125541   4.235   0.870   2.172 -2.4335  0.4792 -0.8568
 1302TIP3    H225542   4.260   1.020   2.174 -0.4765  0.1747  0.3044
 1303TIP3   OH225543   5.729   3.630   8.379 -0.0248 -0.0717  0.8113
 1303TIP3    H125544   5.813   3.599   8.346 -0.6459 -2.1849  1.0867
 1303TIP3    H225545   5.669   3.557   8.365 -1.0490  0.1173  3.6343
 1304TIP3   OH225546   0.273   3.086   1.325  0.2667  0.2256 -0.4999
 1304TIP3    H125547   0.362   3.089   1.289  0.6261 -2.5580 -0.0791
 1304TIP3    H225548   0.245   2.996   1.311 -2.9071  1.2400 -1.4324
 1305TIP3   OH225549   2.325   6.465   1.854  0.1556  0.0129 -0.8076
 1305TIP3    H125550   2.277   6.385   1.832 -0.4233  0.1190  0.0274
 1305TIP3    H225551   2.264   6.516   1.907  0.8083  0.6518 -0.6548
 1306TIP3   OH225552   3.791   0.870   7.322 -0.0969  0.0025  0.2817
 1306TIP3    H125553   3.873   0.850   7.277  0.2187  1.2823  0.2586
 1306TIP3    H225554   3.761   0.952   7.283  0.1333  1.1085  2.3035
 1307TIP3   OH225555   2.449   2.076   8.535 -0.9051  0.3540  0.0364
 1307TIP3    H125556   2.396   2.057   8.458  0.1396 -0.5251 -0.4831
 1307TIP3    H225557   2.403   2.030   8.607 -1.3701  0.4084 -0.2204
 1308TIP3   OH225558   1.816   1.661   2.004  0.2425  0.4005  0.4134
 1308TIP3    H125559   1.787   1.751   1.992  0.3302  0.3866  0.0999
 1308TIP3    H225560   1.755   1.625   2.069 -0.9904  0.1198 -0.8575
 1309TIP3   OH225561   4.061   4.553   6.850 -0.0411 -0.0916  0.8900
 1309TIP3    H125562   4.150   4.521   6.839  0.7670  1.7593  1.6236
 1309TIP3    H225563   4.071   4.647   6.863 -2.0045 -0.0310  2.3485
 1310TIP3   OH225564   3.542   2.539   8.557 -0.6882 -0.1634  0.0731
 1310TIP3    H125565   3.566   2.450   8.529 -0.3834  0.2347 -0.9885
 1310TIP3    H225566   3.529   2.532   8.651  0.6508 -1.0590  0.2161
 1311TIP3   OH225567   1.187   2.718   7.670 -0.0694 -0.1057 -0.8103
 1311TIP3    H125568   1.239   2.720   7.751  0.4399 -0.3730 -1.1198
 1311TIP3    H225569   1.228   2.784   7.614  1.4510 -1.8727 -1.9312
 1312TIP3   OH225570   2.280   1.821   1.924  0.1575 -0.5364  0.0221
 1312TIP3    H125571   2.359   1.859   1.886  0.0382  1.6181  1.7394
 1312TIP3    H225572   2.313   1.752   1.981  0.5126 -1.8895 -1.7349
 1313TIP3   OH225573   5.657   1.208   0.372 -0.3195 -0.6780 -0.8593
 1313TIP3    H125574   5.705   1.272   0.320  2.7921 -0.4175  1.9917
 1313TIP3    H225575   5.638   1.253   0.455 -2.4623 -1.9493 -0.5858
 1314TIP3   OH225576   5.674   1.806   1.259 -0.3169 -0.2373 -0.9377
 1314TIP3    H125577   5.597   1.777   1.308  0.5002  2.3000  2.1657
 1314TIP3    H225578   5.639   1.830   1.173 -3.4429  2.2891  0.8036
 1315TIP3   OH225579   0.140   0.044   6.845 -0.3087  0.3400 -0.2478
 1315TIP3    H125580   0.130   0.062   6.939  0.1709  1.1071 -0.3330
 1315TIP3    H225581   0.208  -0.023   6.840 -1.4702 -0.9140  0.0273
 1316TIP3   OH225582   2.516   6.253   7.134  0.1317  0.4259  0.0968
 1316TIP3    H125583   2.501   6.334   7.085 -1.8194 -0.2824 -0.5629
 1316TIP3    H225584   2.491   6.275   7.224 -0.4010  0.5893 -0.0833
 1317TIP3   OH225585   2.072   1.091   1.595  0.2053  0.6078  0.3848
 1317TIP3    H125586   2.026   1.032   1.535  1.7198 -1.3946  1.0857
 1317TIP3    H225587   2.008   1.159   1.615 -1.0608  0.1548 -1.7706
 1318TIP3   OH225588   5.319   3.060   6.225 -0.8646  0.2123  0.1702
 1318TIP3    H125589   5.322   2.964   6.224 -0.4141  0.1537 -2.9823
 1318TIP3    H225590   5.307   3.082   6.317  0.6433 -2.8050  1.2449
 1319TIP3   OH225591   4.020   4.599   8.714 -0.0080  0.1435 -0.1871
 1319TIP3    H125592   3.946   4.571   8.767 -0.2435 -0.4192 -0.8053
 1319TIP3    H225593   3.988   4.677   8.668 -0.2243 -0.1218 -0.4828
 1320TIP3   OH225594   3.083   5.147   7.143 -0.0903 -0.0688 -0.6422
 1320TIP3    H125595   3.065   5.199   7.065  2.0435 -0.2857 -1.3249
 1320TIP3    H225596   3.167   5.179   7.175  0.6822 -2.2137 -0.3531
 1321TIP3   OH225597   2.846   3.240   6.910  0.4132 -0.1299  0.1820
 1321TIP3    H125598   2.925   3.220   6.960  1.6530 -0.7112 -1.8657
 1321TIP3    H225599   2.879   3.288   6.833 -0.6965 -3.2605 -2.4569
 1322TIP3   OH225600   3.259   5.799   1.135  0.1196  0.1276  0.1541
 1322TIP3    H125601   3.351   5.813   1.157  0.1075  0.5434 -0.0532
 1322TIP3    H225602   3.260   5.761   1.047  0.2179 -2.4732  1.1884
 1323TIP3   OH225603   5.606   3.729   2.730 -0.3615 -0.3543  0.2552
 1323TIP3    H125604   5.522   3.707   2.690 -0.1279 -2.6487  0.9323
 1323TIP3    H225605   5.602   3.690   2.817  1.9108 -1.7295 -0.1936
 1324TIP3   OH225606   1.730   3.596   7.130  0.4616  0.0941 -0.5722
 1324TIP3    H125607   1.753   3.673   7.077  0.5606 -0.9815 -2.1604
 1324TIP3    H225608   1.661   3.553   7.080  0.3149 -0.7849  0.3649
 1325TIP3   OH225609   1.414   2.686   1.371  0.5171 -0.3742  0.5138
 1325TIP3    H125610   1.445   2.710   1.458 -1.2691 -0.6018  1.2550
 1325TIP3    H225611   1.356   2.757   1.346  2.5338  0.7092 -1.4215
 1326TIP3   OH225612   2.005   0.201   0.624  0.1649  0.1517  0.7914
 1326TIP3    H125613   2.051   0.269   0.674  0.4645 -0.0225  0.7561
 1326TIP3    H225614   2.009   0.232   0.533  1.0146 -0.3064  0.6665
 1327TIP3   OH225615   3.607   6.379   7.396  0.2035 -0.2832 -0.7513
 1327TIP3    H125616   3.525   6.426   7.379 -1.3679 -1.7916  1.9456
 1327TIP3    H225617   3.587   6.288   7.376  0.8010 -0.8487  1.0426
 1328TIP3   OH225618   0.856   6.739   6.895  0.0010  0.3386  0.5980
 1328TIP3    H125619   0.894   6.702   6.816  1.9460 -2.4351  2.6559
 1328TIP3    H225620   0.792   6.674   6.924 -1.9268  2.0843  0.5368
 1329TIP3   OH225621   4.348   2.228   0.241 -0.2518  0.1734 -0.2793
 1329TIP3    H125622   4.325   2.154   0.298  1.2742  0.8279  1.2743
 1329TIP3    H225623   4.356   2.189   0.154  0.2681 -1.4692  0.4593
 1330TIP3   OH225624   0.043   2.488   7.120 -0.7195  0.0481 -0.2739
 1330TIP3    H125625   0.026   2.395   7.127  1.3033 -0.3097  0.5766
 1330TIP3    H225626   0.065   2.501   7.027  1.0752 -0.7589  0.0036
 1331TIP3   OH225627   1.258   1.005   0.402  0.2531 -0.5418 -0.1112
 1331TIP3    H125628   1.214   0.991   0.318  1.1278  2.9752 -1.3357
 1331TIP3    H225629   1.352   1.006   0.380  0.5847 -0.9641  1.1841
 1332TIP3   OH225630   6.020   1.974   8.039  0.1155 -0.3031  0.9084
 1332TIP3    H125631   6.082   2.037   8.003  1.3673 -2.0095 -0.0763
 1332TIP3    H225632   5.935   2.002   8.004  0.6969  0.5970  0.1632
 1333TIP3   OH225633   5.769   5.893   1.648  0.7738 -0.0037  0.3943
 1333TIP3    H125634   5.737   5.982   1.634 -0.0461  0.1487  2.8053
 1333TIP3    H225635   5.822   5.874   1.571  0.7338  2.4618 -0.3162
 1334TIP3   OH225636   3.855   5.056   0.716 -0.1166  0.0651 -0.4017
 1334TIP3    H125637   3.912   5.050   0.639 -1.3649  0.3576 -1.3911
 1334TIP3    H225638   3.794   4.983   0.706 -2.2451  1.8668 -1.4090
 1335TIP3   OH225639   4.779   0.461   7.618 -0.0712 -0.5290 -0.2007
 1335TIP3    H125640   4.859   0.428   7.660  0.8302 -0.2892 -1.6535
 1335TIP3    H225641   4.804   0.547   7.584 -1.5006  0.3695  0.8745
 1336TIP3   OH225642   0.364   6.395   1.589 -0.5371 -0.0895 -0.1298
 1336TIP3    H125643   0.411   6.316   1.560  0.1173 -0.6040  2.1267
 1336TIP3    H225644   0.340   6.440   1.508 -0.1327 -2.1424 -1.4680
 1337TIP3   OH225645   3.495   0.157   0.712 -0.4044  0.3390  0.1158
 1337TIP3    H125646   3.475   0.246   0.683 -1.6126 -0.0502 -0.3036
 1337TIP3    H225647   3.581   0.164   0.753 -0.8015  1.8468  0.7636
 1338TIP3   OH225648   4.637   2.481   8.460  0.5204  0.1454  0.0865
 1338TIP3    H125649   4.672   2.569   8.448 -0.3898  0.4070 -0.8871
 1338TIP3    H225650   4.544   2.495   8.476  0.6733 -0.5677  1.7652
 1339TIP3   OH225651   5.958   1.652   0.048  0.3064 -0.2582  0.0091
 1339TIP3    H125652   5.901   1.585   0.087 -0.9374  1.6397  1.6873
 1339TIP3    H225653   5.907   1.732   0.054  2.1004  1.0272 -1.0769
 1340TIP3   OH225654   5.773   5.864   2.023 -0.9661 -0.1181 -0.1345
 1340TIP3    H125655   5.731   5.803   2.083  0.0011 -1.0409 -0.3809
 1340TIP3    H225656   5.802   5.936   2.080 -1.9045  0.0269  0.1877
 1341TIP3   OH225657   6.020   5.005   2.431 -0.4733 -0.2301  0.3957
 1341TIP3    H125658   6.081   5.015   2.504 -0.5674 -0.2856  0.4819
 1341TIP3    H225659   6.026   5.088   2.383 -1.3043  0.2833  1.1562
 1342TIP3   OH225660   1.320   5.164   7.436 -0.0971 -0.4910 -0.4481
 1342TIP3    H125661   1.284   5.231   7.377 -3.6264 -1.2013  0.6787
 1342TIP3    H225662   1.374   5.213   7.498 -0.9698  1.0455 -0.8485
 1343TIP3   OH225663   3.289   2.711   0.262  0.2140  0.4476 -0.5927
 1343TIP3    H125664   3.354   2.777   0.238  0.2010  0.7674  0.2108
 1343TIP3    H225665   3.240   2.695   0.182  0.1306  1.5124 -0.7676
 1344TIP3   OH225666   0.276   3.837   0.698  0.1350  0.6686 -0.0240
 1344TIP3    H125667   0.292   3.927   0.671  1.4151  0.0925 -1.3033
 1344TIP3    H225668   0.351   3.814   0.752 -0.1420  0.3366  0.2237
 1345TIP3   OH225669   3.463   6.226   0.151 -0.0480  0.1712 -0.0943
 1345TIP3    H125670   3.444   6.227   0.057 -0.5053 -3.2570 -0.1712
 1345TIP3    H225671   3.379   6.239   0.193  0.0468  1.0062 -0.1511
 1346TIP3   OH225672   2.016   0.720   8.419  0.6324  0.3688 -0.5265
 1346TIP3    H125673   2.018   0.627   8.396 -1.0587 -0.3959  2.0310
 1346TIP3    H225674   1.924   0.738   8.437  1.1767  2.0860  0.7799
 1347TIP3   OH225675   0.808   5.772   8.078  0.2087  0.3233  0.7785
 1347TIP3    H125676   0.872   5.742   8.143 -0.1370  0.9941  1.4422
 1347TIP3    H225677   0.853   5.842   8.031  0.1402  0.4530  0.9062
 1348TIP3   OH225678   4.611   3.263   6.718 -0.1265  0.2892  0.5498
 1348TIP3    H125679   4.569   3.347   6.735 -0.5564  0.1153  0.3598
 1348TIP3    H225680   4.628   3.263   6.624  0.8012  0.5868  0.7128
 1349TIP3   OH225681   5.350   5.396   2.660 -0.2270  0.0471 -0.0148
 1349TIP3    H125682   5.282   5.396   2.593  0.1111 -0.9165 -0.3747
 1349TIP3    H225683   5.307   5.429   2.738 -1.3142 -1.1832 -0.0581
 1350TIP3   OH225684   6.744   0.250   0.655  0.2726  0.3489 -0.6854
 1350TIP3    H125685   6.734   0.156   0.639 -0.1407  0.2136  0.3056
 1350TIP3    H225686   6.754   0.257   0.750 -2.3491  1.4959 -0.4245
 1351TIP3   OH225687   5.110   0.707   0.055  0.1056  0.0206  0.8892
 1351TIP3    H125688   5.085   0.739  -0.032  0.0951 -0.0503  0.8663
 1351TIP3    H225689   5.071   0.770   0.115  0.0906  0.0558  0.8430
 1352TIP3   OH225690   6.132   4.022   1.615 -0.4417  0.2507  0.1669
 1352TIP3    H125691   6.225   4.006   1.606  0.0151  1.8002  1.5511
 1352TIP3    H225692   6.109   4.075   1.538  0.0574  0.7042  0.3245
 1353TIP3   OH225693   6.408   1.652   8.698 -0.4481 -0.3935 -0.1929
 1353TIP3    H125694   6.463   1.578   8.724 -0.9615 -0.3246  1.2229
 1353TIP3    H225695   6.325   1.636   8.742 -1.3369 -0.1389 -1.7373
 1354TIP3   OH225696   3.741   1.993   7.429  0.2093  0.5455  0.7056
 1354TIP3    H125697   3.701   1.965   7.347  1.9879  0.2504 -0.1073
 1354TIP3    H225698   3.687   2.065   7.459 -0.8144  0.2721 -0.4163
 1355TIP3   OH225699   0.692   5.172   1.222  0.1512 -0.0054 -0.7679
 1355TIP3    H125700   0.766   5.143   1.275  0.4967  4.8327  1.9725
 1355TIP3    H225701   0.731   5.229   1.155 -0.9238  0.2762 -1.1756
 1356TIP3   OH225702   5.384   0.303   8.403 -0.0170 -0.0286  0.0170
 1356TIP3    H125703   5.339   0.376   8.446  1.9562  2.2749 -1.5817
 1356TIP3    H225704   5.320   0.269   8.340 -0.7914  0.6241  0.4291
 1357TIP3   OH225705   0.092   1.576   8.631  0.5665 -0.3085 -0.0171
 1357TIP3    H125706   0.113   1.636   8.702 -0.4222  0.8111 -0.6224
 1357TIP3    H225707   0.159   1.594   8.564  1.1066 -0.8931  0.3635
 1358TIP3   OH225708   3.570   6.711   8.347  0.0612  0.2869 -0.0609
 1358TIP3    H125709   3.623   6.636   8.322 -0.2727  0.0875 -0.1809
 1358TIP3    H225710   3.630   6.769   8.394  0.2862 -0.1234  0.1645
 1359TIP3   OH225711   5.276   1.707   8.624 -0.2732 -0.1356 -0.0139
 1359TIP3    H125712   5.328   1.728   8.701 -1.3097 -1.1632  1.0010
 1359TIP3    H225713   5.246   1.617   8.639  0.9978 -1.0681 -2.4644
 1360TIP3   OH225714   6.489   5.819   1.663 -0.1113  0.4434  0.3583
 1360TIP3    H125715   6.510   5.733   1.625 -0.5246  1.2801 -1.9740
 1360TIP3    H225716   6.573   5.863   1.670 -0.1455  0.8466 -1.2348
 1361TIP3   OH225717   0.600   5.694   2.298 -0.2357 -0.8530 -0.7628
 1361TIP3    H125718   0.551   5.751   2.358 -1.3530 -1.7793 -0.7771
 1361TIP3    H225719   0.674   5.663   2.350  1.1515  1.5482 -1.1067
 1362TIP3   OH225720   6.208   5.752   7.577  0.0439  0.4825  0.2363
 1362TIP3    H125721   6.218   5.694   7.653 -0.7435  1.3155  0.9879
 1362TIP3    H225722   6.138   5.711   7.526  0.0899  0.3008  0.3154
 1363TIP3   OH225723   5.616   2.319   7.746 -0.0065  0.2805 -0.0572
 1363TIP3    H125724   5.656   2.300   7.661  0.3900  1.2845 -0.1136
 1363TIP3    H225725   5.556   2.246   7.761  0.7825 -0.5066 -0.6476
 1364TIP3   OH225726   6.679   2.231   6.552  0.6478  0.3775 -0.1622
 1364TIP3    H125727   6.710   2.204   6.466 -0.1608  0.9830 -0.6682
 1364TIP3    H225728   6.706   2.323   6.559 -1.9088  1.3271 -1.1386
 1365TIP3   OH225729   0.334   2.059   0.755 -0.3249 -0.1774  0.4352
 1365TIP3    H125730   0.381   1.976   0.757  1.1122  0.6148  1.8052
 1365TIP3    H225731   0.398   2.124   0.784 -1.5314  1.3569 -0.1635
 1366TIP3   OH225732   6.312   1.042   8.067  0.1105  0.0736 -0.0607
 1366TIP3    H125733   6.374   0.982   8.109 -0.1602 -0.5336 -0.5318
 1366TIP3    H225734   6.233   1.037   8.122  0.2297  0.3210  0.1377
 1367TIP3   OH225735   3.936   5.819   0.606  0.1737  0.3170  0.0906
 1367TIP3    H125736   3.905   5.738   0.645  0.1231  1.2136  2.0413
 1367TIP3    H225737   3.863   5.848   0.551 -0.2292 -0.4200  0.2214
 1368TIP3   OH225738   3.009   3.532   7.114  0.0372  0.4290  0.4382
 1368TIP3    H125739   3.066   3.487   7.052  1.0296 -0.7296  2.1112
 1368TIP3    H225740   3.068   3.582   7.170 -0.7196  0.4680  1.2322
 1369TIP3   OH225741   4.322   3.188   7.676  0.6751 -0.2756  0.7897
 1369TIP3    H125742   4.319   3.120   7.609 -2.0604  0.0423  0.4597
 1369TIP3    H225743   4.399   3.241   7.653  0.2774 -0.6422 -1.6552
 1370TIP3   OH225744   5.490   0.300   0.523 -0.2583  0.1338 -0.6671
 1370TIP3    H125745   5.582   0.301   0.549 -0.6873 -0.0275  0.9108
 1370TIP3    H225746   5.472   0.209   0.500 -0.8195 -0.5685  2.1608
 1371TIP3   OH225747   0.321   6.200   6.343  0.1018 -0.0960 -0.4001
 1371TIP3    H125748   0.252   6.217   6.279 -1.1343 -2.6363  0.1532
 1371TIP3    H225749   0.382   6.273   6.332 -0.7907  0.3357 -3.4624
 1372TIP3   OH225750   5.697   2.877   0.713 -0.1761  0.4385 -0.1846
 1372TIP3    H125751   5.775   2.895   0.765 -0.5867  2.1358 -0.0847
 1372TIP3    H225752   5.629   2.933   0.751 -0.8679  0.6202 -1.6140
 1373TIP3   OH225753   5.421   0.807   6.567 -0.4156 -0.1423  0.0181
 1373TIP3    H125754   5.507   0.799   6.609 -0.0264  0.4583 -0.6578
 1373TIP3    H225755   5.408   0.901   6.555 -1.2296 -0.2199  0.2341
 1374TIP3   OH225756   2.772   4.160   6.542 -1.5110 -0.0209 -0.4164
 1374TIP3    H125757   2.739   4.139   6.455  2.5245 -2.1182 -1.6959
 1374TIP3    H225758   2.840   4.226   6.526 -0.8147 -0.3248  1.1401
 1375TIP3   OH225759   4.666   4.618   7.524  0.4102 -0.4058 -0.3895
 1375TIP3    H125760   4.761   4.607   7.525  0.3192 -1.5246 -1.5026
 1375TIP3    H225761   4.653   4.712   7.510  1.3463 -0.2016  0.0482
 1376TIP3   OH225762   0.524   1.940   8.460 -0.5707 -0.2987 -0.5221
 1376TIP3    H125763   0.446   1.978   8.500 -0.2044  1.5668 -1.4418
 1376TIP3    H225764   0.565   2.014   8.415  1.0052 -1.5307 -1.1778
 1377TIP3   OH225765   5.361   4.081   5.854 -0.0090  0.0495 -0.2680
 1377TIP3    H125766   5.376   4.155   5.914 -0.2957  0.1731 -0.3471
 1377TIP3    H225767   5.277   4.101   5.813  0.9577  0.8199 -1.9589
 1378TIP3   OH225768   2.953   0.134   2.164 -0.0724 -0.1962  0.0599
 1378TIP3    H125769   2.870   0.091   2.148 -0.2715 -0.0553  0.6760
 1378TIP3    H225770   2.950   0.158   2.257  0.8681 -0.6481  0.2136
 1379TIP3   OH225771   3.767   0.942   7.598  0.2722  0.1509  0.4899
 1379TIP3    H125772   3.850   0.939   7.646  1.1395  1.4854 -0.8432
 1379TIP3    H225773   3.785   0.896   7.516 -0.9257 -1.3141  1.0116
 1380TIP3   OH225774   6.067   1.889   7.489  0.3184 -0.1672 -0.3550
 1380TIP3    H125775   6.150   1.875   7.443  1.3968  0.6117  1.2323
 1380TIP3    H225776   6.033   1.971   7.453  1.9011  1.2494  1.1089
 1381TIP3   OH225777   5.332   4.074   0.348 -0.1085 -0.4519 -0.1417
 1381TIP3    H125778   5.241   4.089   0.375 -0.5265 -0.5882 -1.4075
 1381TIP3    H225779   5.371   4.025   0.421 -1.2260 -0.9358  0.1513
 1382TIP3   OH225780   4.080   6.326   2.416 -0.7775  0.2030 -0.0837
 1382TIP3    H125781   3.989   6.354   2.426 -1.0643 -0.3286 -0.9792
 1382TIP3    H225782   4.074   6.244   2.366  0.2322  0.5369 -0.7848
 1383TIP3   OH225783   6.589   0.501   1.719 -0.4977  0.2641  0.4958
 1383TIP3    H125784   6.575   0.526   1.628  0.1690 -2.4243 -0.4088
 1383TIP3    H225785   6.501   0.503   1.758 -0.7694  1.5571 -0.1225
 1384TIP3   OH225786   4.957   0.804   8.597 -0.0248 -0.0001  0.8047
 1384TIP3    H125787   4.900   0.838   8.528  1.3909 -2.8629 -2.0121
 1384TIP3    H225788   4.999   0.882   8.633 -2.2279  1.7723 -0.2292
 1385TIP3   OH225789   3.971   5.117   0.969  0.3163 -0.1169  0.0535
 1385TIP3    H125790   3.920   5.092   0.892 -0.0035  0.4075  0.0908
 1385TIP3    H225791   3.908   5.159   1.027  0.9902  1.6375 -0.4040
 1386TIP3   OH225792   4.624   5.325   7.648 -0.5879  0.3611 -0.1341
 1386TIP3    H125793   4.558   5.378   7.692  1.0685  1.7242  0.8683
 1386TIP3    H225794   4.663   5.272   7.718  1.3986  1.8223 -0.0291
 1387TIP3   OH225795   2.093   2.612   1.178 -0.0759 -0.7462  0.4804
 1387TIP3    H125796   2.007   2.638   1.212  1.2557 -0.0168  3.6937
 1387TIP3    H225797   2.091   2.517   1.177 -1.4175 -0.7409 -1.0674
 1388TIP3   OH225798   3.408   4.772   0.865  0.1101 -0.9991  0.2034
 1388TIP3    H125799   3.330   4.826   0.876  1.2522  0.7275  0.3606
 1388TIP3    H225800   3.407   4.746   0.773 -1.0685 -1.7051  0.4049
 1389TIP3   OH225801   6.132   4.881   7.473 -0.0786 -0.5201  0.3850
 1389TIP3    H125802   6.116   4.791   7.502  1.7726 -1.1207 -0.3216
 1389TIP3    H225803   6.082   4.890   7.392 -1.1661 -0.5246  1.0451
 1390TIP3   OH225804   1.326   0.473   0.674 -0.1380  0.0521  0.4302
 1390TIP3    H125805   1.341   0.395   0.726  2.3748  0.2675  0.1568
 1390TIP3    H225806   1.230   0.482   0.671 -0.6305 -3.7971 -0.7598
 1391TIP3   OH225807   5.690   1.527   7.611  0.1770  0.1940  0.0146
 1391TIP3    H125808   5.661   1.537   7.521  0.3975  0.2333 -0.0537
 1391TIP3    H225809   5.712   1.434   7.619  0.4130  0.2444 -0.0500
 1392TIP3   OH225810   6.220   3.881   8.028  0.0333 -0.6731  0.3907
 1392TIP3    H125811   6.225   3.879   8.123 -1.4799 -0.5137  0.4895
 1392TIP3    H225812   6.135   3.842   8.007  0.3889 -0.8067 -0.9072
 1393TIP3   OH225813   1.360   1.280   2.532  0.3147  0.7126 -0.1134
 1393TIP3    H125814   1.293   1.343   2.557  0.1717 -0.0955  1.7095
 1393TIP3    H225815   1.312   1.212   2.485  0.0606  0.7711  0.0597
 1394TIP3   OH225816   3.863   4.250   1.699 -0.2318  0.3633  0.1910
 1394TIP3    H125817   3.834   4.190   1.768  1.9315 -4.3341 -2.4802
 1394TIP3    H225818   3.785   4.267   1.647 -1.0566  0.6303  1.4812
 1395TIP3   OH225819   4.565   2.718   1.015  0.4444  0.0870 -0.2605
 1395TIP3    H125820   4.657   2.732   0.994  0.6027 -0.7259 -0.1424
 1395TIP3    H225821   4.548   2.627   0.990  0.0890 -0.2643  1.1586
 1396TIP3   OH225822   5.861   4.930   0.614  0.4923 -0.2522 -0.1072
 1396TIP3    H125823   5.933   4.957   0.671  0.0921 -0.0851  0.3282
 1396TIP3    H225824   5.816   4.862   0.664 -0.6568  0.8169  0.3745
 1397TIP3   OH225825   3.726   3.304   6.543 -0.1801 -0.2377  0.4381
 1397TIP3    H125826   3.772   3.224   6.516  1.0438  0.2510  1.0078
 1397TIP3    H225827   3.769   3.374   6.494  0.0683  0.2983  1.4082
 1398TIP3   OH225828   0.231   2.473   1.724  0.0145 -0.1587 -0.4215
 1398TIP3    H125829   0.281   2.554   1.712  2.3708 -1.3223  0.8154
 1398TIP3    H225830   0.224   2.463   1.819 -1.1920 -0.8855 -0.5666
 1399TIP3   OH225831   5.748   2.132   2.185 -0.3078 -0.3700  0.0826
 1399TIP3    H125832   5.730   2.202   2.122 -0.6029  0.5115  1.1117
 1399TIP3    H225833   5.781   2.060   2.132 -0.4317  0.3869 -1.0638
 1400TIP3   OH225834   4.274   1.168   0.233 -0.1000  0.2793  0.6457
 1400TIP3    H125835   4.245   1.259   0.241  0.1067  0.4496 -0.4056
 1400TIP3    H225836   4.358   1.174   0.187 -0.5287 -0.5042 -0.2699
 1401TIP3   OH225837   6.114   2.503   0.333  0.1096 -0.2835 -0.7792
 1401TIP3    H125838   6.136   2.419   0.372  0.7169  0.7854  1.3131
 1401TIP3    H225839   6.175   2.513   0.260  1.4616 -0.7394  0.2636
 1402TIP3   OH225840   0.354   3.839   8.262 -0.0523 -0.1082  0.4366
 1402TIP3    H125841   0.282   3.845   8.324  1.5259  0.3826  2.2913
 1402TIP3    H225842   0.401   3.921   8.271  0.1855  0.0181 -1.5134
 1403TIP3   OH225843   4.361   3.953   8.231  0.1255  0.5079  0.5141
 1403TIP3    H125844   4.386   3.991   8.147  2.2066  3.5713  2.3572
 1403TIP3    H225845   4.284   4.003   8.258  1.4345  1.9241  1.8416
 1404TIP3   OH225846   1.581   0.227   8.655  0.1056 -0.0249 -0.0875
 1404TIP3    H125847   1.516   0.287   8.618  0.1318 -0.5147 -0.9542
 1404TIP3    H225848   1.658   0.282   8.672  0.4025  0.0634 -1.5896
 1405TIP3   OH225849   1.531   5.415   0.101 -0.1420  0.3566 -0.3925
 1405TIP3    H125850   1.506   5.507   0.111  1.4681  0.9284 -1.3506
 1405TIP3    H225851   1.494   5.372   0.179  0.2021  2.0402  0.7646
 1406TIP3   OH225852   1.573   4.932   6.778  0.0445  0.3986  0.0517
 1406TIP3    H125853   1.513   5.006   6.792  0.3740  0.2623  2.7071
 1406TIP3    H225854   1.546   4.866   6.842 -0.6932 -2.1826 -2.7000
 1407TIP3   OH225855   5.948   2.512   7.076 -0.3729 -0.0203 -0.2154
 1407TIP3    H125856   5.967   2.577   7.009  1.0749  1.7080  1.7490
 1407TIP3    H225857   5.858   2.485   7.058 -0.2609  0.8948 -2.4043
 1408TIP3   OH225858   0.826   0.198   0.571 -0.3983 -0.1273  0.3876
 1408TIP3    H125859   0.823   0.223   0.664  0.0976 -0.9500  0.6340
 1408TIP3    H225860   0.871   0.113   0.570  1.7787  0.9593 -0.8393
 1409TIP3   OH225861   6.486   5.196   0.042  0.3978 -0.2673 -0.0448
 1409TIP3    H125862   6.456   5.131  -0.022  1.4344 -0.3406 -0.4747
 1409TIP3    H225863   6.555   5.245  -0.004 -0.1698  0.9690  0.3620
 1410TIP3   OH225864   3.752   3.528   0.098 -0.0429  0.1893 -0.0043
 1410TIP3    H125865   3.682   3.527   0.033 -0.5059  0.4648  0.4868
 1410TIP3    H225866   3.832   3.536   0.046 -0.3467 -0.4227 -0.5890
 1411TIP3   OH225867   4.376   1.381   6.558  0.0821  1.2188  0.1381
 1411TIP3    H125868   4.310   1.417   6.618 -1.3274 -0.4991 -0.3167
 1411TIP3    H225869   4.396   1.294   6.592 -0.8046  0.1576 -1.8609
 1412TIP3   OH225870   0.203   2.019   8.529  0.3622 -0.3316 -0.1381
 1412TIP3    H125871   0.128   2.026   8.471  0.6461  2.0019 -0.3299
 1412TIP3    H225872   0.167   2.032   8.617  0.4196  0.0481 -0.1670
 1413TIP3   OH225873   0.760   4.456   8.796  0.0023  0.7773 -0.4317
 1413TIP3    H125874   0.686   4.441   8.854  0.2822 -2.2894 -0.7359
 1413TIP3    H225875   0.721   4.498   8.718 -0.7489  2.5560  0.8227
 1414TIP3   OH225876   0.368   2.521   7.795 -0.7341 -0.1555  0.2621
 1414TIP3    H125877   0.417   2.531   7.714 -1.5089 -0.5960 -0.2770
 1414TIP3    H225878   0.356   2.427   7.805 -0.8774 -0.0908  0.7472
 1415TIP3   OH225879   3.213   4.126   2.077  0.0080 -0.0231 -0.1766
 1415TIP3    H125880   3.261   4.140   2.158 -0.1383  0.9625 -0.2446
 1415TIP3    H225881   3.204   4.031   2.070  1.5027 -0.2064  0.0920
 1416TIP3   OH225882   3.515   2.689   7.202  0.1339  0.1515 -0.4524
 1416TIP3    H125883   3.447   2.646   7.151 -0.4390 -0.1991  0.5686
 1416TIP3    H225884   3.574   2.618   7.229 -0.9482 -0.1142  1.4440
 1417TIP3   OH225885   3.903   4.989   1.424  0.3275 -0.1338  0.3553
 1417TIP3    H125886   3.904   4.895   1.441  0.2980 -0.8180 -2.8952
 1417TIP3    H225887   3.987   5.020   1.457  0.5197 -1.3620  1.0756
 1418TIP3   OH225888   1.172   5.986   7.125  0.3977  0.4537 -0.4122
 1418TIP3    H125889   1.164   5.921   7.194 -0.8308  1.9034  0.8781
 1418TIP3    H225890   1.194   6.067   7.170  1.2584  1.0996 -1.9090
 1419TIP3   OH225891   6.157   3.383   1.991 -0.0635  0.1199  0.1705
 1419TIP3    H125892   6.069   3.348   2.006  0.1943 -0.6452 -0.0344
 1419TIP3    H225893   6.199   3.318   1.934 -0.2946  1.8613 -2.1152
 1420TIP3   OH225894   6.494   2.630   8.041 -0.2582 -0.2582 -0.5109
 1420TIP3    H125895   6.510   2.696   7.973  0.5066  1.9356  1.6216
 1420TIP3    H225896   6.487   2.547   7.994  1.4478  0.9639 -3.1277
 1421TIP3   OH225897   6.343   0.855   7.564  0.4432 -0.3276  0.1209
 1421TIP3    H125898   6.318   0.924   7.625  0.0732  0.2414 -0.6574
 1421TIP3    H225899   6.262   0.832   7.519  0.9908  0.4205 -1.3133
 1422TIP3   OH225900   2.643   3.634   8.577  0.2222  0.1868  0.1224
 1422TIP3    H125901   2.549   3.621   8.593  0.6946 -0.7658  2.5813
 1422TIP3    H225902   2.673   3.552   8.538  0.0429  0.5542 -0.8261
 1423TIP3   OH225903   6.117   5.637   1.610  1.0367 -0.6639 -0.5856
 1423TIP3    H125904   6.098   5.672   1.697 -0.4328  1.0418 -1.5405
 1423TIP3    H225905   6.097   5.544   1.617  0.1453 -0.3938  0.6876
 1424TIP3   OH225906   0.869   3.383   7.436 -0.4954 -0.0885 -0.7629
 1424TIP3    H125907   0.956   3.343   7.435 -0.3236  0.1368  1.2430
 1424TIP3    H225908   0.844   3.388   7.344  1.0310 -1.4097 -1.2953
 1425TIP3   OH225909   0.115   2.078   7.377  0.2833  0.3814 -0.4251
 1425TIP3    H125910   0.040   2.107   7.325 -0.5859  0.3146  0.7460
 1425TIP3    H225911   0.127   1.986   7.351 -1.0125 -0.0688  0.4284
 1426TIP3   OH225912   5.771   3.520   7.414 -0.0687  0.3791  0.5164
 1426TIP3    H125913   5.693   3.464   7.410 -0.0747  0.4317 -0.3772
 1426TIP3    H225914   5.742   3.599   7.459  0.1754 -0.6742  2.6481
 1427TIP3   OH225915   3.544   2.178   7.452  0.0121  0.0673 -0.5693
 1427TIP3    H125916   3.540   2.264   7.494 -0.7543 -0.6657  0.9430
 1427TIP3    H225917   3.455   2.163   7.419 -0.1594 -0.6191  0.1826
 1428TIP3   OH225918   3.072   1.511   1.104 -0.3806 -0.0679 -0.1707
 1428TIP3    H125919   3.003   1.555   1.053 -0.2805 -0.2743 -0.4851
 1428TIP3    H225920   3.033   1.500   1.191 -0.7019 -0.0715 -0.3106
 1429TIP3   OH225921   5.824   3.988   0.121  0.2033 -0.4322  0.0031
 1429TIP3    H125922   5.789   4.049   0.056  0.4556 -1.9325 -1.6521
 1429TIP3    H225923   5.749   3.937   0.150  0.2439 -0.4422  0.0908
 1430TIP3   OH225924   1.928   2.426   8.621 -0.4163  0.0700 -0.0167
 1430TIP3    H125925   1.912   2.358   8.688  1.8243  1.0288  1.5921
 1430TIP3    H225926   1.931   2.508   8.671 -0.4118  1.0427 -1.5699
 1431TIP3   OH225927   6.171   6.422   6.339 -0.0210 -0.7399 -0.4775
 1431TIP3    H125928   6.127   6.348   6.383 -1.3795 -1.0380 -2.2421
 1431TIP3    H225929   6.135   6.499   6.382 -0.0502 -1.0516  0.0748
 1432TIP3   OH225930   3.502   4.209   7.734  0.2680  0.3816 -0.0848
 1432TIP3    H125931   3.455   4.194   7.651  1.0806  0.0868 -0.4991
 1432TIP3    H225932   3.531   4.122   7.761 -2.5922 -0.0414  2.1477
 1433TIP3   OH225933   2.184   5.286   7.170 -0.4044  0.4523  0.0140
 1433TIP3    H125934   2.264   5.279   7.223 -0.9767 -2.8638  0.6389
 1433TIP3    H225935   2.123   5.335   7.226  0.6794  1.6513  0.1730
 1434TIP3   OH225936   2.211   4.477   7.291  0.4071 -0.2066  0.3379
 1434TIP3    H125937   2.194   4.393   7.247  2.1662  0.7097 -2.2676
 1434TIP3    H225938   2.303   4.473   7.316  0.4884  0.9118  0.2611
 1435TIP3   OH225939   2.812   2.059   0.592  0.2411 -0.3161 -0.0978
 1435TIP3    H125940   2.792   2.037   0.501  1.5093  1.8650 -0.9518
 1435TIP3    H225941   2.810   2.154   0.595 -1.4251 -0.3467  2.5816
 1436TIP3   OH225942   0.526   2.525   7.515 -0.2915  0.1216  0.4267
 1436TIP3    H125943   0.562   2.439   7.536 -0.3626 -0.0637 -0.1997
 1436TIP3    H225944   0.464   2.509   7.445  0.5359  0.8342 -0.5074
 1437TIP3   OH225945   5.766   1.477   0.476  0.5024 -0.1089 -0.2651
 1437TIP3    H125946   5.772   1.475   0.381 -1.5985 -0.0442 -0.4515
 1437TIP3    H225947   5.834   1.417   0.507  1.5925  0.3168 -1.7587
 1438TIP3   OH225948   5.151   0.473   1.023 -0.0948 -0.1857 -0.6909
 1438TIP3    H125949   5.058   0.454   1.032  0.5090 -2.7864  1.7342
 1438TIP3    H225950   5.162   0.560   1.062 -1.5242  0.3793 -1.4779
 1439TIP3   OH225951   4.291   2.504   6.703  0.4880  0.3992  0.0264
 1439TIP3    H125952   4.324   2.568   6.766  1.2086 -0.0924  0.1596
 1439TIP3    H225953   4.205   2.479   6.737 -0.6630  2.6657 -1.0169
 1440TIP3   OH225954   4.942   5.926   0.921 -0.2361  0.2894 -0.4820
 1440TIP3    H125955   4.938   6.003   0.863  1.8885  1.6521  1.0254
 1440TIP3    H225956   4.871   5.939   0.983 -0.2870  0.7158 -0.6242
 1441TIP3   OH225957   6.677   6.182   8.592 -0.2033 -0.5655 -0.1278
 1441TIP3    H125958   6.677   6.122   8.517 -0.5663  0.5036 -1.0077
 1441TIP3    H225959   6.748   6.244   8.574  0.4252 -0.9269  0.9659
 1442TIP3   OH225960   0.766   2.516   1.136 -0.8367  0.2164 -0.7259
 1442TIP3    H125961   0.786   2.444   1.195 -0.4593  0.9069  0.0166
 1442TIP3    H225962   0.848   2.530   1.087 -0.5702  0.7900 -0.1403
 1443TIP3   OH225963   4.332   5.195   0.128 -0.3255  0.3220  0.0361
 1443TIP3    H125964   4.412   5.232   0.091 -0.7775 -0.6165 -2.0374
 1443TIP3    H225965   4.268   5.266   0.122 -0.1460  0.4708 -0.1056
 1444TIP3   OH225966   2.312   2.364   6.450  0.3233  0.2140 -0.2557
 1444TIP3    H125967   2.278   2.299   6.513 -1.0117  1.0958 -0.0408
 1444TIP3    H225968   2.258   2.352   6.372  1.5496 -0.4241 -1.0477
 1445TIP3   OH225969   1.224   6.588   7.559  0.1270  0.5031 -0.1075
 1445TIP3    H125970   1.164   6.662   7.571 -2.2604 -1.0879 -1.3724
 1445TIP3    H225971   1.275   6.611   7.481  0.6324  1.5190  0.4989
 1446TIP3   OH225972   2.536   2.819   0.830  0.4804  0.4319  0.4823
 1446TIP3    H125973   2.518   2.913   0.829 -0.4329  0.3521  3.1098
 1446TIP3    H225974   2.592   2.805   0.754  2.0894  3.3910  0.9820
 1447TIP3   OH225975   1.814   2.154   8.141 -0.8483  0.3687  0.1770
 1447TIP3    H125976   1.730   2.127   8.105  0.4393 -0.8838 -2.1162
 1447TIP3    H225977   1.791   2.205   8.219 -3.6892 -0.0538 -0.2605
 1448TIP3   OH225978   0.231   0.565   7.606 -0.7924 -0.0892  0.1587
 1448TIP3    H125979   0.136   0.553   7.606 -0.9367  0.9167 -0.0801
 1448TIP3    H225980   0.253   0.581   7.514 -0.6722  1.5355  0.4429
 1449TIP3   OH225981   4.803   1.273   1.315 -0.4335  0.5093  0.6266
 1449TIP3    H125982   4.768   1.222   1.388 -2.1835  1.9447  0.8436
 1449TIP3    H225983   4.825   1.358   1.353  0.2303  0.7259 -0.2019
 1450TIP3   OH225984   6.414   0.476   7.629  0.0249  0.3735  0.2379
 1450TIP3    H125985   6.321   0.488   7.650 -0.1892 -0.8532  0.0350
 1450TIP3    H225986   6.434   0.387   7.656  0.4625 -0.3294 -2.1841
 1451TIP3   OH225987   0.560   4.861   1.693 -0.1037  0.3035  0.3582
 1451TIP3    H125988   0.576   4.833   1.603  0.9868  0.0123  0.6243
 1451TIP3    H225989   0.498   4.797   1.727  0.4174 -0.3129  0.1775
 1452TIP3   OH225990   5.203   1.592   8.005 -0.4199 -0.1774 -0.0672
 1452TIP3    H125991   5.135   1.624   7.945  0.7268 -0.0156 -1.3241
 1452TIP3    H225992   5.271   1.660   8.004  0.4751 -1.0437 -0.0533
 1453TIP3   OH225993   5.497   4.294   6.883  0.0782  0.2270 -0.0965
 1453TIP3    H125994   5.419   4.315   6.832  0.9088 -0.5511 -1.7960
 1453TIP3    H225995   5.557   4.367   6.867  0.1058  0.2992  0.3200
 1454TIP3   OH225996   2.916   0.700   1.495  0.0189  0.2040  0.5822
 1454TIP3    H125997   2.879   0.613   1.512  0.7727 -0.2108  0.1603
 1454TIP3    H225998   3.007   0.693   1.524  0.2153  0.7058  0.0962
 1455TIP3   OH225999   5.027   5.942   7.468 -0.0455  0.0890 -0.0104
 1455TIP3    H126000   5.020   5.848   7.450 -1.8254  0.3694 -0.9913
 1455TIP3    H226001   5.038   5.981   7.381 -1.5254  0.9431  0.1626
 1456TIP3   OH226002   1.891   0.596   0.883  0.7053 -0.3743  0.5624
 1456TIP3    H126003   1.966   0.627   0.832  2.4793 -1.4127  2.3738
 1456TIP3    H226004   1.930   0.549   0.957 -1.7409 -0.0786  2.1666
 1457TIP3   OH226005   3.536   0.294   0.404  0.3457  0.0559  0.3145
 1457TIP3    H126006   3.502   0.379   0.432  0.7867  0.1110  0.6948
 1457TIP3    H226007   3.478   0.267   0.333  0.9076  1.2345 -0.6447
 1458TIP3   OH226008   4.469   4.625   0.723 -0.0809  0.4241 -0.1142
 1458TIP3    H126009   4.527   4.699   0.744  0.5646  0.6891 -2.5048
 1458TIP3    H226010   4.388   4.667   0.695  0.2540  0.2750 -1.3817
 1459TIP3   OH226011   4.062   0.232   7.731  0.3105 -0.0336  0.0027
 1459TIP3    H126012   3.998   0.302   7.739 -0.0376 -0.4068  0.5964
 1459TIP3    H226013   4.028   0.162   7.787 -0.2415 -1.3505 -1.8646
 1460TIP3   OH226014   0.831   4.555   7.071 -0.3646  0.4284 -0.9609
 1460TIP3    H126015   0.832   4.464   7.101 -1.0894  0.0657 -1.9433
 1460TIP3    H226016   0.798   4.549   6.981 -0.0075  1.6257 -1.1830
 1461TIP3   OH226017   1.141   6.032   0.903  0.2032  0.4107  0.8811
 1461TIP3    H126018   1.220   6.030   0.956  1.3143 -1.1037 -0.7311
 1461TIP3    H226019   1.166   6.079   0.824 -0.4779 -0.1481  0.3206
 1462TIP3   OH226020   3.681   0.399   8.775 -0.2911  0.1345  0.5748
 1462TIP3    H126021   3.692   0.490   8.800 -1.3338 -0.0155  1.6669
 1462TIP3    H226022   3.730   0.350   8.841  0.4780 -0.1104 -0.1499
 1463TIP3   OH226023   3.465   2.828   0.529 -0.7050 -0.4999  0.0894
 1463TIP3    H126024   3.558   2.821   0.552 -1.1224 -0.7095  1.8393
 1463TIP3    H226025   3.436   2.738   0.517 -1.1775 -0.5958  1.7569
 1464TIP3   OH226026   6.204   3.993   7.052  0.3215 -0.3455  0.0500
 1464TIP3    H126027   6.251   4.031   7.127  1.4712 -0.2918 -0.6613
 1464TIP3    H226028   6.228   4.050   6.979 -1.8208  0.3744 -0.1399
 1465TIP3   OH226029   3.241   4.365   6.593 -0.5235  0.3361 -0.4492
 1465TIP3    H126030   3.186   4.404   6.525 -0.2394 -0.3045 -1.0517
 1465TIP3    H226031   3.330   4.375   6.561 -0.2614  1.3835  0.5344
 1466TIP3   OH226032   2.470   6.363   7.397  0.2890 -0.4537 -0.0538
 1466TIP3    H126033   2.496   6.432   7.458 -0.2090  0.9944 -1.4175
 1466TIP3    H226034   2.440   6.292   7.453 -0.2615  0.8602  1.3934
 1467TIP3   OH226035   5.625   3.880   8.443 -0.0761 -0.1531  0.0184
 1467TIP3    H126036   5.687   3.953   8.454  0.2242 -0.2595 -0.8837
 1467TIP3    H226037   5.681   3.805   8.422 -0.4892 -0.3122 -0.5279
 1468TIP3   OH226038   4.565   2.674   0.672  0.2133 -0.2544  0.3522
 1468TIP3    H126039   4.542   2.583   0.660 -1.5602  0.1707  0.3372
 1468TIP3    H226040   4.482   2.720   0.683  0.6685  1.9755 -3.5356
 1469TIP3   OH226041   5.527   5.082   7.736  0.4900  0.2616 -0.2003
 1469TIP3    H126042   5.438   5.102   7.706 -0.7810 -1.2470  2.2030
 1469TIP3    H226043   5.572   5.051   7.658 -0.9609  1.3716 -1.5584
 1470TIP3   OH226044   2.179   6.778   1.062  0.2140 -0.2006 -0.2571
 1470TIP3    H126045   2.233   6.818   0.993  1.3474  0.6802  1.0887
 1470TIP3    H226046   2.185   6.839   1.136 -1.0045 -1.1008  0.6252
 1471TIP3   OH226047   6.424   6.590   7.132  0.0467  0.0339 -0.0727
 1471TIP3    H126048   6.452   6.503   7.159  0.6855  0.2452 -0.0345
 1471TIP3    H226049   6.492   6.649   7.165  0.3491  0.4030 -1.2993
 1472TIP3   OH226050   4.427   0.787   7.558 -0.0998  0.0411  0.6826
 1472TIP3    H126051   4.339   0.808   7.527  0.3484  1.7698  0.4806
 1472TIP3    H226052   4.473   0.756   7.480 -0.3026 -0.1316  0.6295
 1473TIP3   OH226053   1.672   1.761   0.153  0.8806 -0.4980  0.5543
 1473TIP3    H126054   1.587   1.751   0.110  0.4938 -0.4966  1.3151
 1473TIP3    H226055   1.718   1.678   0.136 -0.2497 -1.5338  2.2763
 1474TIP3   OH226056   3.843   3.498   7.336  0.4719 -0.6111  0.7939
 1474TIP3    H126057   3.875   3.425   7.283 -0.6760 -0.4599 -0.1503
 1474TIP3    H226058   3.748   3.485   7.340  0.3086  0.5227  1.0713
 1475TIP3   OH226059   3.557   1.985   8.147 -0.0120 -0.4758 -0.1937
 1475TIP3    H126060   3.594   1.906   8.185 -1.2924 -2.5337 -2.9101
 1475TIP3    H226061   3.632   2.032   8.111  0.8615  0.0757  2.1737
 1476TIP3   OH226062   1.949   5.755   7.227 -0.3966 -0.3007 -0.3206
 1476TIP3    H126063   2.039   5.762   7.259 -0.5226 -0.8484  0.1497
 1476TIP3    H226064   1.906   5.834   7.261 -0.8805 -1.4877  2.0200
 1477TIP3   OH226065   5.817   0.102   0.827 -0.5425 -0.1820  0.4469
 1477TIP3    H126066   5.749   0.037   0.845  0.2293 -0.9632  0.5736
 1477TIP3    H226067   5.776   0.186   0.849 -1.8112 -0.5403 -0.4823
 1478TIP3   OH226068   4.415   4.771   0.346 -0.6047  0.6386 -0.0944
 1478TIP3    H126069   4.486   4.805   0.400 -0.1862  0.8226 -0.7464
 1478TIP3    H226070   4.362   4.719   0.406 -1.1808  2.2951  0.9083
 1479TIP3   OH226071   1.669   6.154   7.761  0.5546  0.1011  0.4781
 1479TIP3    H126072   1.723   6.166   7.839  0.5002  0.6637  0.4300
 1479TIP3    H226073   1.708   6.212   7.696  1.7398 -1.6894 -0.5118
 1480TIP3   OH226074   0.659   2.874   7.878  0.0801 -0.3920 -0.7022
 1480TIP3    H126075   0.594   2.833   7.822 -0.9272  1.1273 -0.7042
 1480TIP3    H226076   0.718   2.919   7.818  0.6808 -1.1103 -0.6611
 1481TIP3   OH226077   2.159   0.933   0.284 -0.0409 -0.0496 -0.0898
 1481TIP3    H126078   2.205   0.992   0.224 -0.0479 -0.1914 -0.2355
 1481TIP3    H226079   2.116   0.992   0.347 -1.6108  0.2277 -1.3338
 1482TIP3   OH226080   3.226   3.343   7.236  0.3024 -0.2820  0.6606
 1482TIP3    H126081   3.180   3.379   7.312  1.2273 -1.7825  1.9744
 1482TIP3    H226082   3.315   3.378   7.242 -0.1008  1.1655 -0.8800
 1483TIP3   OH226083   5.028   4.542   6.391 -0.4395  0.2903  0.2193
 1483TIP3    H126084   5.038   4.479   6.463 -1.2837  1.8586  1.8019
 1483TIP3    H226085   4.954   4.510   6.341 -2.3883  1.1531  2.3699
 1484TIP3   OH226086   2.589   5.125   0.146  0.0304 -0.0698 -0.7796
 1484TIP3    H126087   2.685   5.123   0.150  0.1060  1.8140  2.0222
 1484TIP3    H226088   2.561   5.050   0.198  0.1730  1.4127  1.5994
 1485TIP3   OH226089   6.125   3.530   6.935  0.5128  0.0566 -0.3956
 1485TIP3    H126090   6.107   3.488   7.020  2.1925  0.0498 -0.0190
 1485TIP3    H226091   6.038   3.543   6.897 -0.2009 -1.3851  0.6256
 1486TIP3   OH226092   4.189   6.557   1.361  0.6469  0.7365  0.1026
 1486TIP3    H126093   4.203   6.593   1.448  0.9448  0.9566 -0.0331
 1486TIP3    H226094   4.110   6.503   1.369 -0.6712  2.5299 -0.0050
 1487TIP3   OH226095   0.951   2.929   7.714 -0.6437 -0.1961 -0.3117
 1487TIP3    H126096   0.919   3.017   7.695 -0.1807 -0.2055 -1.1662
 1487TIP3    H226097   0.953   2.885   7.629 -1.0148 -1.0844  0.1272
 1488TIP3   OH226098   3.604   3.806   8.022  0.2389 -0.1225 -0.0773
 1488TIP3    H126099   3.541   3.797   8.093 -0.8975  1.8221 -0.7920
 1488TIP3    H226100   3.687   3.828   8.066  0.2355 -1.6907  0.7875
 1489TIP3   OH226101   4.413   3.151   7.044  0.6290 -0.2595  0.4161
 1489TIP3    H126102   4.355   3.144   7.120 -1.1764 -0.1387 -0.8718
 1489TIP3    H226103   4.420   3.246   7.028  2.7290 -0.1581  1.6322
 1490TIP3   OH226104   6.719   2.783   6.887  0.3495  0.7968 -0.4849
 1490TIP3    H126105   6.680   2.869   6.903  0.1193  0.8343 -1.2033
 1490TIP3    H226106   6.748   2.786   6.796 -0.2664 -0.1058 -0.7295
 1491TIP3   OH226107   1.912   5.358   1.242 -0.3578 -0.7404  0.3963
 1491TIP3    H126108   1.851   5.427   1.269  0.7282  0.1962  0.5235
 1491TIP3    H226109   1.869   5.316   1.167 -0.9299  0.2409  0.1595
 1492TIP3   OH226110   6.820   0.691   1.683  0.3679  0.3010  0.5462
 1492TIP3    H126111   6.761   0.632   1.730  0.7729 -1.2757 -0.8419
 1492TIP3    H226112   6.769   0.723   1.608  1.2091 -1.0496 -0.6478
 1493TIP3   OH226113   5.301   0.144   2.324  0.0068  0.0247  0.2222
 1493TIP3    H126114   5.269   0.183   2.406 -0.0311  0.7541 -0.1280
 1493TIP3    H226115   5.366   0.079   2.351 -2.4689 -2.2844  1.0365
 1494TIP3   OH226116   0.906   2.677   1.810  0.0647  0.2064  0.5178
 1494TIP3    H126117   0.954   2.665   1.728  1.1315  0.0496  1.1384
 1494TIP3    H226118   0.956   2.626   1.874 -1.8808 -1.3461  0.8909
 1495TIP3   OH226119   3.547   4.749   0.046  0.2303 -0.0025  0.2212
 1495TIP3    H126120   3.465   4.776   0.003  0.4356 -1.1149 -0.9422
 1495TIP3    H226121   3.555   4.808   0.121 -1.5085  0.3031  0.2240
 1496TIP3   OH226122   5.257   4.686   6.328 -0.1615  0.0188  0.0432
 1496TIP3    H126123   5.178   4.642   6.360 -0.1330 -0.9069 -1.1105
 1496TIP3    H226124   5.291   4.628   6.260  0.0161  1.6992 -1.3737
 1497TIP3   OH226125   1.840   4.579   0.880 -0.0579 -0.4855  0.2237
 1497TIP3    H126126   1.802   4.595   0.966 -1.9682 -0.4673 -0.5843
 1497TIP3    H226127   1.899   4.653   0.865 -0.5723  0.0990  1.0315
 1498TIP3   OH226128   4.171   2.186   1.720  0.1567 -0.2709  0.3629
 1498TIP3    H126129   4.204   2.101   1.691 -0.3022  0.4921 -2.8265
 1498TIP3    H226130   4.211   2.200   1.806  1.8720 -2.7802  0.0716
 1499TIP3   OH226131   0.910   4.130   1.558 -0.2465  0.0462  0.2474
 1499TIP3    H126132   0.920   4.035   1.566 -0.7944  0.0251  0.7446
 1499TIP3    H226133   0.830   4.150   1.607 -0.8470  0.5937 -0.9046
 1500TIP3   OH226134   0.442   4.006   1.123  0.4652 -0.9172  0.2670
 1500TIP3    H126135   0.401   4.053   1.195  0.6386  1.3682 -1.0384
 1500TIP3    H226136   0.536   4.012   1.141  0.5173 -0.2001 -0.1926
 1501TIP3   OH226137   2.918   0.668   0.679 -0.4336 -0.4401  0.1894
 1501TIP3    H126138   2.958   0.739   0.629  0.8034 -0.1726  1.5101
 1501TIP3    H226139   2.982   0.646   0.746 -2.1484 -0.5433  1.8977
 1502TIP3   OH226140   0.371   5.931   8.272  0.1288 -0.1138  0.0595
 1502TIP3    H126141   0.296   5.892   8.227  0.3115  0.0793 -0.4191
 1502TIP3    H226142   0.374   6.021   8.240  0.7674 -0.2194 -0.1802
 1503TIP3   OH226143   4.045   1.286   2.211  0.2129 -0.6615  0.4955
 1503TIP3    H126144   4.007   1.202   2.186 -0.6969 -0.0849 -0.0877
 1503TIP3    H226145   4.117   1.262   2.270 -0.4748 -1.8150  0.9084
 1504TIP3   OH226146   2.072   6.715   0.106 -0.1891 -0.2155  0.2622
 1504TIP3    H126147   2.151   6.666   0.085 -0.4176 -0.0137 -1.1938
 1504TIP3    H226148   2.061   6.704   0.200  2.7634  1.5657  0.9363
 1505TIP3   OH226149   5.744   2.281   7.508  0.2732 -0.0044 -0.2646
 1505TIP3    H126150   5.764   2.187   7.512  0.3305 -0.1191 -2.2581
 1505TIP3    H226151   5.827   2.322   7.488 -0.2008  0.1662 -2.0745
 1506TIP3   OH226152   6.547   0.251   8.775 -0.4534 -0.1445  0.3169
 1506TIP3    H126153   6.538   0.186   8.845  3.1892  0.1074  1.2323
 1506TIP3    H226154   6.570   0.201   8.698 -1.4018 -0.1719  0.0356
 1507TIP3   OH226155   0.083   5.528   6.975  0.1024 -0.0376  0.0510
 1507TIP3    H126156   0.157   5.485   6.933 -0.3845  0.9018 -1.9034
 1507TIP3    H226157   0.117   5.612   7.004  0.1562 -0.2090  0.4865
 1508TIP3   OH226158   5.304   0.025   0.806 -0.0570  0.5051  0.1807
 1508TIP3    H126159   5.237  -0.009   0.865 -0.6677  0.0488 -0.7569
 1508TIP3    H226160   5.256   0.081   0.745  0.3828  0.0777 -0.5732
 1509TIP3   OH226161   5.870   6.477   1.442 -0.2232 -0.1562 -0.1372
 1509TIP3    H126162   5.875   6.449   1.534 -1.2856  0.9859  0.2934
 1509TIP3    H226163   5.957   6.510   1.422 -0.2196  0.4113  0.7497
 1510TIP3   OH226164   4.732   2.660   7.592  0.1377  0.1829 -0.3002
 1510TIP3    H126165   4.701   2.717   7.663  1.0721 -0.5754  0.7525
 1510TIP3    H226166   4.663   2.594   7.584 -1.1914  1.6551 -1.8573
 1511TIP3   OH226167   4.600   6.348   0.849 -0.3243  0.1869  0.3041
 1511TIP3    H126168   4.580   6.304   0.931  1.0281 -0.2986  0.3890
 1511TIP3    H226169   4.635   6.433   0.875  0.3320 -0.0604  0.2524
 1512TIP3   OH226170   2.043   0.073   7.968  0.5335  0.1200 -0.3981
 1512TIP3    H126171   1.976   0.055   8.035  0.2542 -1.7592 -1.1218
 1512TIP3    H226172   2.009   0.148   7.920 -1.1957 -0.9107 -0.8744
 1513TIP3   OH226173   5.789   3.805   1.455  0.1134  0.4922  0.0730
 1513TIP3    H126174   5.712   3.862   1.445 -0.3974 -0.0599  0.8011
 1513TIP3    H226175   5.753   3.720   1.481  0.9843  0.2794  0.6195
 1514TIP3   OH226176   2.971   4.368   0.208  0.0166 -0.0145  0.0236
 1514TIP3    H126177   2.983   4.275   0.224  1.2277  0.1714  0.2848
 1514TIP3    H226178   3.044   4.393   0.152 -0.7091  0.6364 -0.6636
 1515TIP3   OH226179   3.117   6.229   6.471 -0.0741 -0.3122 -0.4404
 1515TIP3    H126180   3.211   6.228   6.493 -0.0410 -1.8629 -0.5624
 1515TIP3    H226181   3.113   6.271   6.385  0.4737  0.0417 -0.3010
 1516TIP3   OH226182   5.403   3.067   7.095  0.4213  0.2008  0.1243
 1516TIP3    H126183   5.382   3.155   7.126 -1.7903 -0.5680  1.0475
 1516TIP3    H226184   5.418   3.078   7.001 -1.2720  1.3846 -0.0562
 1517TIP3   OH226185   4.512   0.117   1.828  0.5404 -0.3884 -0.9148
 1517TIP3    H126186   4.438   0.165   1.792 -0.3016 -1.7569 -1.0831
 1517TIP3    H226187   4.483   0.087   1.914  1.3475  0.0768 -0.4663
 1518TIP3   OH226188   1.161   2.964   7.363 -0.1783 -0.1092  0.3130
 1518TIP3    H126189   1.120   2.913   7.294 -0.6973  0.0748  0.4835
 1518TIP3    H226190   1.245   2.920   7.379  0.5533  0.5947 -1.3355
 1519TIP3   OH226191   4.609   4.516   0.486  0.2193  0.6193 -0.1247
 1519TIP3    H126192   4.618   4.561   0.402 -2.2436  2.2190  0.3773
 1519TIP3    H226193   4.591   4.586   0.549 -0.2995 -0.7669  1.3300
 1520TIP3   OH226194   1.172   2.344   6.560 -0.2569  0.0501 -0.2830
 1520TIP3    H126195   1.183   2.282   6.633 -0.7443  0.2044 -0.0772
 1520TIP3    H226196   1.181   2.289   6.481 -0.1710 -0.1936 -0.1068
 1521TIP3   OH226197   6.450   5.356   1.089  0.6400 -0.2883 -0.0561
 1521TIP3    H126198   6.480   5.265   1.094  0.8605 -0.2367 -0.4128
 1521TIP3    H226199   6.471   5.392   1.175 -0.3525 -0.8473  0.4383
 1522TIP3   OH226200   1.723   1.395   1.861  0.0192 -0.8962 -0.4439
 1522TIP3    H126201   1.749   1.424   1.773 -2.1700 -0.9172 -1.1522
 1522TIP3    H226202   1.751   1.466   1.919 -0.7138  0.3033 -1.4992
 1523TIP3   OH226203   1.057   6.248   1.151 -0.4312 -0.1225 -0.1752
 1523TIP3    H126204   1.015   6.202   1.079  1.7315 -0.2740 -1.4047
 1523TIP3    H226205   1.094   6.178   1.206 -1.6212  0.0108  0.8370
 1524TIP3   OH226206   3.144   1.148   8.426 -0.5521  0.2902 -0.0452
 1524TIP3    H126207   3.124   1.237   8.455  1.1163  1.2186 -1.5370
 1524TIP3    H226208   3.225   1.157   8.376 -1.7893 -1.5857 -2.6386
 1525TIP3   OH226209   6.748   0.439   2.471  0.0128 -0.6075  0.0438
 1525TIP3    H126210   6.768   0.391   2.551  2.1370 -0.1975 -0.1790
 1525TIP3    H226211   6.698   0.377   2.418 -1.1246 -1.0113  1.4968
 1526TIP3   OH226212   4.666   3.873   6.599 -0.2673 -0.2967 -0.3468
 1526TIP3    H126213   4.610   3.937   6.556  0.5196  0.3639 -0.4118
 1526TIP3    H226214   4.605   3.814   6.643 -1.0085  0.7595  0.0883
 1527TIP3   OH226215   6.631   4.749   8.453  0.1310 -0.4828  0.4585
 1527TIP3    H126216   6.596   4.770   8.366 -0.2152 -0.4891  0.5926
 1527TIP3    H226217   6.593   4.664   8.473  1.1022 -1.0015  0.1459
 1528TIP3   OH226218   1.758   2.847   0.370  0.1660  0.6213  0.2876
 1528TIP3    H126219   1.811   2.859   0.449  0.5973  0.7225 -0.0168
 1528TIP3    H226220   1.806   2.782   0.319 -2.0057 -2.4574  1.8242
 1529TIP3   OH226221   3.808   3.085   1.582  0.1723  0.1779 -0.0101
 1529TIP3    H126222   3.814   3.005   1.633  0.3497  0.1631 -0.0538
 1529TIP3    H226223   3.896   3.122   1.584  0.7637 -0.9234 -2.0859
 1530TIP3   OH226224   0.283   0.524   7.303 -0.1462  0.2924 -0.4822
 1530TIP3    H126225   0.201   0.482   7.276 -0.2942  2.2476 -3.6798
 1530TIP3    H226226   0.350   0.479   7.252  0.7524 -0.8042  1.5643
 1531TIP3   OH226227   5.936   0.887   0.981 -0.4581 -0.6216 -0.3933
 1531TIP3    H126228   6.001   0.898   0.912  0.8496 -1.7445  0.6115
 1531TIP3    H226229   5.891   0.805   0.958  0.2824 -1.2354  0.2961
 1532TIP3   OH226230   6.438   2.033   1.792  0.8165  0.0373 -0.1298
 1532TIP3    H126231   6.513   2.086   1.822 -0.7950  1.5130  1.5448
 1532TIP3    H226232   6.383   2.024   1.870 -1.7372  0.7241 -1.7407
 1533TIP3   OH226233   4.706   2.929   1.283 -0.2808 -0.2700 -0.2547
 1533TIP3    H126234   4.630   2.878   1.258  0.8771 -1.0944 -2.3221
 1533TIP3    H226235   4.778   2.866   1.283  0.7212  0.8471 -0.2332
 1534TIP3   OH226236   2.761   6.778   0.319  0.0069  0.1308  0.1992
 1534TIP3    H126237   2.817   6.806   0.246  0.0956 -2.0220 -0.6427
 1534TIP3    H226238   2.700   6.850   0.332  2.7038  2.4916  0.9663
 1535TIP3   OH226239   3.066   5.813   1.611  0.4685 -0.1029 -0.2228
 1535TIP3    H126240   3.121   5.735   1.601  1.9935  0.9832 -0.6003
 1535TIP3    H226241   2.981   5.786   1.577  1.0371 -1.5302 -0.6023
 1536TIP3   OH226242   0.302   3.495   0.791  0.7961  0.6873 -0.0243
 1536TIP3    H126243   0.326   3.437   0.719 -0.0865  0.0130  0.2068
 1536TIP3    H226244   0.207   3.485   0.800  0.8769  0.8137  1.1892
 1537TIP3   OH226245   1.655   0.999   2.096  0.2264 -0.2188 -0.3350
 1537TIP3    H126246   1.666   0.905   2.084  1.1434 -0.0084 -1.2884
 1537TIP3    H226247   1.605   1.007   2.177  1.5964 -1.4754  0.6873
 1538TIP3   OH226248   4.662   6.170   7.576  0.5377 -0.6529 -0.5738
 1538TIP3    H126249   4.585   6.173   7.519  0.2934 -0.5825 -0.2462
 1538TIP3    H226250   4.626   6.151   7.663  0.4138  3.4258  0.4315
 1539TIP3   OH226251   1.410   4.049   7.741 -0.1373 -0.0787 -0.1842
 1539TIP3    H126252   1.349   4.023   7.810 -0.7911  0.1471 -0.6721
 1539TIP3    H226253   1.356   4.055   7.662  0.5770 -0.1948 -0.6867
 1540TIP3   OH226254   6.607   1.658   6.498  0.2396 -0.5833 -0.0145
 1540TIP3    H126255   6.573   1.734   6.545 -0.3148  0.1008 -1.4372
 1540TIP3    H226256   6.696   1.684   6.472 -0.3215  0.0491 -1.4131
 1541TIP3   OH226257   1.965   1.090   0.470  0.0274  0.3803  0.0016
 1541TIP3    H126258   1.964   1.019   0.535 -1.8105 -0.6142 -1.0154
 1541TIP3    H226259   1.954   1.170   0.522 -0.4982 -0.3168  1.0023
 1542TIP3   OH226260   3.675   4.405   7.184  0.0461 -0.9168  0.0753
 1542TIP3    H126261   3.608   4.344   7.216 -0.2510 -0.7820 -0.2920
 1542TIP3    H226262   3.729   4.423   7.261 -1.3874  0.3578  0.8194
 1543TIP3   OH226263   0.269   2.483   0.562 -0.1974 -0.4611 -0.2418
 1543TIP3    H126264   0.223   2.400   0.570  0.7070 -1.0441 -0.8435
 1543TIP3    H226265   0.351   2.470   0.609  1.1565 -0.8746 -2.5292
 1544TIP3   OH226266   6.379   6.259   7.684 -0.3530 -0.3570 -0.5822
 1544TIP3    H126267   6.411   6.175   7.652 -0.7305 -1.8475  2.5645
 1544TIP3    H226268   6.286   6.244   7.702 -0.3983  0.6886  0.1387
 1545TIP3   OH226269   1.469   4.325   8.002 -0.2727  0.0436 -0.3932
 1545TIP3    H126270   1.432   4.359   7.920 -2.8119 -0.2015  0.5499
 1545TIP3    H226271   1.518   4.247   7.976 -2.0056 -0.7098 -1.5911
 1546TIP3   OH226272   1.960   6.117   1.270 -0.0762  0.0505 -0.2677
 1546TIP3    H126273   1.958   6.210   1.293 -1.3196 -0.2995  1.1631
 1546TIP3    H226274   1.910   6.112   1.188 -1.5979  0.4271  0.6036
 1547TIP3   OH226275   2.183   1.622   2.238  0.9540  0.6070 -0.2623
 1547TIP3    H126276   2.270   1.615   2.277  0.7605  0.5255  0.1605
 1547TIP3    H226277   2.149   1.705   2.270  0.8111  0.5618 -0.2969
 1548TIP3   OH226278   2.169   3.692   7.705  0.4800  0.7962 -0.3468
 1548TIP3    H126279   2.127   3.648   7.631  0.4140  1.2306 -0.5713
 1548TIP3    H226280   2.251   3.645   7.717 -0.2513 -0.3421  0.3753
 1549TIP3   OH226281   6.377   3.305   0.286  0.2060 -0.0376 -0.3567
 1549TIP3    H126282   6.322   3.288   0.363 -0.1096  0.2139 -0.5258
 1549TIP3    H226283   6.451   3.356   0.321  0.1001  0.0174 -0.2126
 1550TIP3   OH226284   4.650   4.213   2.113  0.0714  0.5080  0.2562
 1550TIP3    H126285   4.695   4.206   2.197 -0.7090  1.2910  0.7550
 1550TIP3    H226286   4.580   4.276   2.128 -0.8831 -0.2944 -0.6370
 1551TIP3   OH226287   6.835   1.927   7.635  0.6693 -0.1334  0.6728
 1551TIP3    H126288   6.857   1.999   7.576 -1.4566 -1.1252 -1.4710
 1551TIP3    H226289   6.919   1.885   7.654  1.5362  0.8445 -0.8158
 1552TIP3   OH226290   0.533   3.067   8.653  0.3417 -0.9409  0.3494
 1552TIP3    H126291   0.614   3.076   8.602 -0.1120 -1.9051 -0.5872
 1552TIP3    H226292   0.496   3.155   8.656  0.8022 -0.7180 -0.2780
 1553TIP3   OH226293   2.810   0.025   0.829 -0.0313  0.0468  0.2219
 1553TIP3    H126294   2.815   0.063   0.917 -1.2915  3.1242 -0.9189
 1553TIP3    H226295   2.875   0.073   0.778  2.6473 -3.5226 -0.1080
 1554TIP3   OH226296   6.775   0.773   0.996  0.7437 -0.6530 -0.1117
 1554TIP3    H126297   6.707   0.707   0.984  1.4095 -1.2567 -0.6582
 1554TIP3    H226298   6.812   0.786   0.908 -0.0504  1.1997 -0.2000
 1555TIP3   OH226299   3.285   5.235   6.819  0.2863  0.1937 -0.3728
 1555TIP3    H126300   3.260   5.273   6.734  1.0825  0.1576 -0.6331
 1555TIP3    H226301   3.221   5.270   6.880  0.8864  1.8392 -0.6386
 1556TIP3   OH226302   0.945   3.493   1.752 -0.0096 -0.4952 -0.4164
 1556TIP3    H126303   0.891   3.530   1.682  0.1134 -1.0152 -0.7869
 1556TIP3    H226304   0.987   3.417   1.713  2.1034  0.6723 -0.5956
 1557TIP3   OH226305   0.567   6.114   2.844 -0.5050 -0.2743 -0.0324
 1557TIP3    H126306   0.656   6.122   2.879  0.0714 -0.7313 -1.3237
 1557TIP3    H226307   0.551   6.020   2.838 -1.3327 -0.1980  0.7845
 1558TIP3   OH226308   1.986   1.011   1.133 -0.0737 -0.0809  0.1816
 1558TIP3    H126309   1.971   1.012   1.038 -0.2556 -0.0098  0.2106
 1558TIP3    H226310   1.938   1.088   1.165 -0.8437 -0.6699  0.4611
 1559TIP3   OH226311   3.879   6.654   0.064  0.0871 -0.1252  0.3035
 1559TIP3    H126312   3.902   6.625   0.153  0.0308 -0.7601  0.1202
 1559TIP3    H226313   3.955   6.704   0.035  0.0867  0.1299  0.7252
 1560TIP3   OH226314   0.916   1.263   0.459 -0.3423 -0.2509 -0.3349
 1560TIP3    H126315   1.011   1.250   0.457 -0.5789 -2.3468  0.0789
 1560TIP3    H226316   0.891   1.271   0.367  0.0848 -1.0441 -0.5270
 1561TIP3   OH226317   3.256   5.991   1.677 -0.2328  0.0210 -0.2241
 1561TIP3    H126318   3.182   5.958   1.625  0.2372 -1.1328 -0.2020
 1561TIP3    H226319   3.317   5.917   1.681  0.5553  0.6861  0.4497
 1562TIP3   OH226320   6.089   2.446   1.389 -0.0099  0.0990 -0.1207
 1562TIP3    H126321   6.010   2.495   1.412 -0.8951 -0.5058 -1.7137
 1562TIP3    H226322   6.136   2.503   1.328 -1.1845 -1.0236 -2.2080
 1563TIP3   OH226323   5.041   3.832   0.905 -0.5421  0.5401 -0.2426
 1563TIP3    H126324   5.091   3.905   0.867  0.2338  1.1036  1.7474
 1563TIP3    H226325   5.061   3.758   0.848  2.0596  0.9012  0.0457
 1564TIP3   OH226326   3.570   3.460   8.699  0.0430  0.4845 -0.1616
 1564TIP3    H126327   3.553   3.409   8.620 -0.0869 -1.4573  1.0565
 1564TIP3    H226328   3.487   3.457   8.747  0.5667  0.3364  0.7451
 1565TIP3   OH226329   3.752   3.772   1.516 -0.4523  0.7246  0.3114
 1565TIP3    H126330   3.725   3.836   1.583  0.5563 -0.9975  2.4905
 1565TIP3    H226331   3.687   3.783   1.446 -1.8326  2.3546  1.7301
 1566TIP3   OH226332   6.059   6.479   7.060  0.8778 -0.2170 -0.0996
 1566TIP3    H126333   6.122   6.458   6.990 -0.2368 -0.4462 -1.0749
 1566TIP3    H226334   6.109   6.531   7.123  2.0131 -0.3064 -0.8988
 1567TIP3   OH226335   5.581   4.209   7.138 -0.2558 -0.2143 -0.1092
 1567TIP3    H126336   5.537   4.252   7.212  0.4144 -0.5258  0.4825
 1567TIP3    H226337   5.523   4.224   7.063 -2.6381 -2.6023  1.0630
 1568TIP3   OH226338   6.547   0.295   0.366  0.1333  0.2906  0.1209
 1568TIP3    H126339   6.623   0.260   0.320 -0.4732  2.2072 -2.6194
 1568TIP3    H226340   6.580   0.370   0.416  0.6067 -1.1622  2.1137
 1569TIP3   OH226341   6.716   1.589   1.441  0.4572  0.0977 -0.5315
 1569TIP3    H126342   6.686   1.537   1.515  0.6315  0.7550  0.0119
 1569TIP3    H226343   6.650   1.657   1.430  1.1939  0.9241  0.0100
 1570TIP3   OH226344   0.836   2.627   8.397 -0.2395 -0.1733 -0.5832
 1570TIP3    H126345   0.781   2.685   8.345 -0.9689  0.2230  0.6072
 1570TIP3    H226346   0.828   2.542   8.354 -0.2440  0.2858 -1.5311
 1571TIP3   OH226347   6.217   3.527   1.306  0.2274  0.1470  0.4605
 1571TIP3    H126348   6.147   3.461   1.304  0.1076  0.2792  0.1202
 1571TIP3    H226349   6.279   3.499   1.239 -0.7964  1.4070 -1.1034
 1572TIP3   OH226350   2.695   4.558   1.861 -0.0352 -0.2614  0.1334
 1572TIP3    H126351   2.656   4.502   1.794  0.0357 -0.3876  0.1975
 1572TIP3    H226352   2.622   4.607   1.897 -0.5869 -2.3457  2.0611
 1573TIP3   OH226353   2.890   6.855   8.031  0.1828 -0.2660 -0.0939
 1573TIP3    H126354   2.906   6.763   8.010 -1.5227 -1.4868  3.2198
 1573TIP3    H226355   2.977   6.893   8.040  0.9724 -2.1184  0.5252
 1574TIP3   OH226356   1.971   5.867   8.052 -0.0675  0.2632 -0.2691
 1574TIP3    H126357   1.909   5.804   8.088 -0.1085 -0.6013 -1.7990
 1574TIP3    H226358   2.057   5.828   8.068 -0.0874 -0.1454 -1.1091
 1575TIP3   OH226359   3.619   1.144   1.751 -0.3194 -0.3940  0.0329
 1575TIP3    H126360   3.617   1.136   1.847 -1.3879  0.5381  0.1081
 1575TIP3    H226361   3.623   1.053   1.720  0.7042 -0.6819  0.9611
 1576TIP3   OH226362   5.518   2.618   7.633 -0.0500  0.5055  0.6129
 1576TIP3    H126363   5.532   2.549   7.699  2.1589  0.2024 -0.0988
 1576TIP3    H226364   5.527   2.573   7.549  0.4125  1.4894  0.1253
 1577TIP3   OH226365   3.944   5.913   7.754 -0.0573 -0.0470 -0.2558
 1577TIP3    H126366   3.916   5.926   7.663 -0.1552 -1.7571 -0.5032
 1577TIP3    H226367   4.026   5.865   7.747  0.5646  0.8721  0.5539
 1578TIP3   OH226368   4.558   0.329   6.423 -0.6966 -0.0263 -0.1945
 1578TIP3    H126369   4.469   0.311   6.454 -0.0534 -1.5770  0.8576
 1578TIP3    H226370   4.597   0.243   6.409  0.7200  0.6201 -0.4302
 1579TIP3   OH226371   2.245   2.228   8.288  0.4517  0.0266 -0.2084
 1579TIP3    H126372   2.205   2.147   8.256 -1.7586  0.8965  0.1673
 1579TIP3    H226373   2.310   2.250   8.222 -2.2245  0.4335 -2.9093
 1580TIP3   OH226374   0.089   5.666   0.548 -0.7762 -0.3035  0.0019
 1580TIP3    H126375   0.039   5.748   0.542  0.4838  0.5570  0.6844
 1580TIP3    H226376   0.140   5.664   0.467 -0.9576 -0.5218 -0.1074
 1581TIP3   OH226377   6.621   3.930   7.169 -0.0017  0.2324 -0.1333
 1581TIP3    H126378   6.588   3.905   7.083  0.4476  0.0519 -0.2549
 1581TIP3    H226379   6.568   4.005   7.194  1.6696  2.0610 -1.7872
 1582TIP3   OH226380   5.261   4.624   1.203 -0.4264  0.1960  0.0706
 1582TIP3    H126381   5.335   4.624   1.263  1.3591 -2.1252 -1.9161
 1582TIP3    H226382   5.281   4.693   1.140 -0.2759 -0.0005 -0.0976
 1583TIP3   OH226383   1.324   4.574   7.102 -0.4672  0.4751 -0.5816
 1583TIP3    H126384   1.366   4.499   7.059 -1.4434 -0.5470  0.2028
 1583TIP3    H226385   1.286   4.538   7.182 -0.3157  1.9746  0.1958
 1584TIP3   OH226386   5.631   1.200   1.749  0.3659 -0.0777 -0.1445
 1584TIP3    H126387   5.621   1.239   1.662  1.1973 -0.8366 -0.5928
 1584TIP3    H226388   5.561   1.134   1.753  0.1020  0.2059 -0.1000
 1585TIP3   OH226389   2.225   4.958   0.953  0.2165  0.6530 -0.4224
 1585TIP3    H126390   2.209   5.050   0.975 -3.8672  0.0497 -0.0650
 1585TIP3    H226391   2.280   4.961   0.874  0.5310  3.3397 -0.1910
 1586TIP3   OH226392   3.828   4.355   0.870 -0.2968 -0.4863  0.3199
 1586TIP3    H126393   3.775   4.277   0.881  0.5155 -0.8939  1.6929
 1586TIP3    H226394   3.792   4.418   0.933 -0.9287  0.2655 -0.7548
 1587TIP3   OH226395   4.635   4.515   7.251 -0.0217  0.5433 -0.8271
 1587TIP3    H126396   4.632   4.556   7.338 -2.7302 -0.5184 -0.3127
 1587TIP3    H226397   4.669   4.427   7.268 -0.2014  0.4601 -0.9012
 1588TIP3   OH226398   1.083   4.359   7.771 -0.1308  0.0210  0.5721
 1588TIP3    H126399   1.175   4.369   7.792  0.1066 -0.7678 -0.0634
 1588TIP3    H226400   1.061   4.439   7.723  0.3284  0.0253  0.3638
 1589TIP3   OH226401   5.517   2.762   8.180  0.0887 -0.0009  0.1571
 1589TIP3    H126402   5.578   2.835   8.169 -0.3054  0.7317  2.4065
 1589TIP3    H226403   5.571   2.690   8.211  0.2639 -0.3149 -0.8254
 1590TIP3   OH226404   6.535   2.457   7.180  0.1529  0.4753 -0.4274
 1590TIP3    H126405   6.582   2.538   7.163  1.2779 -0.4173 -1.7777
 1590TIP3    H226406   6.541   2.408   7.098 -2.3154 -0.1137 -0.3247
 1591TIP3   OH226407   0.296   6.823   1.019  0.0425 -0.0389 -0.1011
 1591TIP3    H126408   0.354   6.892   1.050 -0.7774  0.4040  0.4760
 1591TIP3    H226409   0.212   6.842   1.059 -0.5485 -0.5861 -1.0340
 1592TIP3   OH226410   1.682   2.686   1.675  0.4525  0.1421  0.7735
 1592TIP3    H126411   1.659   2.623   1.744  0.7242 -2.2705 -1.2315
 1592TIP3    H226412   1.599   2.728   1.653 -0.6694 -2.6522 -0.7713
 1593TIP3   OH226413   4.009   4.989   0.508  0.3220  0.0381 -0.3309
 1593TIP3    H126414   3.937   4.956   0.455 -0.7968 -1.5944  2.0192
 1593TIP3    H226415   4.082   4.930   0.490  0.3311  0.2213 -0.9058
 1594TIP3   OH226416   3.745   0.366   8.462  0.1557 -0.3793 -0.3927
 1594TIP3    H126417   3.729   0.299   8.529  1.2461 -1.3160 -1.0189
 1594TIP3    H226418   3.723   0.323   8.380  0.4046  0.2011 -0.7715
 1595TIP3   OH226419   2.002   5.524   0.484 -0.3027  0.2346  0.0712
 1595TIP3    H126420   2.074   5.556   0.539 -0.1860 -0.7331  0.5016
 1595TIP3    H226421   2.041   5.454   0.432 -0.3280  1.3585 -1.5224
 1596TIP3   OH226422   2.759   1.917   6.869 -0.4641 -0.1425 -0.3831
 1596TIP3    H126423   2.827   1.852   6.887 -1.3506 -1.7890 -2.4535
 1596TIP3    H226424   2.677   1.869   6.884 -1.1502  0.2368 -2.5984
 1597TIP3   OH226425   6.689   1.241   7.797 -0.6380 -0.0824 -0.4839
 1597TIP3    H126426   6.747   1.171   7.768  0.5549  0.6586  0.0518
 1597TIP3    H226427   6.687   1.303   7.725 -0.4804  0.0584 -0.3690
 1598TIP3   OH226428   6.548   4.971   0.407 -0.0137 -0.1592  0.2140
 1598TIP3    H126429   6.615   5.039   0.402 -0.6900  0.4436 -3.5322
 1598TIP3    H226430   6.476   5.010   0.456  0.5717  0.9009  0.2461
 1599TIP3   OH226431   1.301   1.058   1.128 -0.2087 -0.2776 -0.2714
 1599TIP3    H126432   1.213   1.019   1.133  0.8258 -2.7076  0.1317
 1599TIP3    H226433   1.322   1.081   1.218 -0.1987 -0.2782 -0.2736
 1600TIP3   OH226434   5.412   1.904   2.181  0.5984 -0.2255  0.2221
 1600TIP3    H126435   5.491   1.938   2.138 -0.8168  1.6497 -1.0960
 1600TIP3    H226436   5.351   1.889   2.109 -0.9134  0.3115  1.3431
 1601TIP3   OH226437   4.666   5.075   0.233  0.1242 -0.2895 -0.2690
 1601TIP3    H126438   4.742   5.108   0.279  0.8107 -0.5775 -1.1663
 1601TIP3    H226439   4.679   5.103   0.142 -1.2007  0.2926 -0.2997
 1602TIP3   OH226440   1.679   0.366   1.180  0.0066 -0.7652  0.0189
 1602TIP3    H126441   1.647   0.392   1.266 -2.1252 -0.3735 -0.8246
 1602TIP3    H226442   1.655   0.274   1.172 -1.8585 -0.2563 -0.9480
 1603TIP3   OH226443   0.260   4.014   0.302 -0.5838  0.3533 -0.1999
 1603TIP3    H126444   0.282   4.107   0.305 -3.1946  1.0709 -0.9081
 1603TIP3    H226445   0.343   3.970   0.320  1.3607  2.7152 -2.5305
 1604TIP3   OH226446   4.054   4.670   7.998 -0.2743 -0.4665 -0.2513
 1604TIP3    H126447   4.063   4.733   8.069  2.3874 -0.7920 -0.1907
 1604TIP3    H226448   4.064   4.584   8.039 -1.1226 -0.8005 -0.7114
 1605TIP3   OH226449   5.759   0.972   8.780 -0.1095 -0.1720 -0.6617
 1605TIP3    H126450   5.749   1.014   8.865 -3.0653  0.6347 -1.3018
 1605TIP3    H226451   5.834   1.015   8.740 -0.0425  0.9939  0.6592
 1606TIP3   OH226452   5.210   2.680   0.844 -0.6270 -0.1022 -0.0178
 1606TIP3    H126453   5.243   2.750   0.787  1.6546 -1.3806 -0.3875
 1606TIP3    H226454   5.269   2.682   0.920 -0.9444 -1.1851  0.2665
 1607TIP3   OH226455   0.366   1.005   8.721 -0.0289 -1.0400 -0.3352
 1607TIP3    H126456   0.312   0.969   8.651 -0.2445 -0.4995 -0.4499
 1607TIP3    H226457   0.437   0.941   8.732 -0.8909 -1.9655  0.0828
 1608TIP3   OH226458   0.213   2.790   7.233  0.7419 -0.3666 -0.0327
 1608TIP3    H126459   0.119   2.790   7.220  1.0017  0.8036 -2.3367
 1608TIP3    H226460   0.249   2.751   7.154  2.2098 -0.8296  0.8135
 1609TIP3   OH226461   6.218   4.924   0.326  0.3802  0.9484 -0.6972
 1609TIP3    H126462   6.287   4.988   0.343  0.5171  0.9437 -1.2243
 1609TIP3    H226463   6.208   4.924   0.231  1.4752 -0.9603 -0.8565
 1610TIP3   OH226464   0.502   3.623   8.443 -0.2090  0.5954  0.2368
 1610TIP3    H126465   0.457   3.670   8.373 -0.0798 -0.7922 -0.8277
 1610TIP3    H226466   0.432   3.591   8.500 -0.7639 -2.1372 -1.7771
 1611TIP3   OH226467   2.890   1.503   7.658  0.1409  0.1299  0.4231
 1611TIP3    H126468   2.929   1.510   7.571  1.3516 -0.1061  0.9214
 1611TIP3    H226469   2.796   1.515   7.644  0.2559 -0.4507 -0.9804
 1612TIP3   OH226470   4.882   4.811   0.414  0.0290 -0.0483  0.1745
 1612TIP3    H126471   4.802   4.834   0.366  0.0620 -0.9925 -0.3455
 1612TIP3    H226472   4.850   4.776   0.498 -0.0702  0.3101  0.2900
 1613TIP3   OH226473   1.623   0.999   1.582  0.0121 -0.5468  0.4028
 1613TIP3    H126474   1.608   0.950   1.662 -1.6713 -2.7990 -1.1722
 1613TIP3    H226475   1.585   1.086   1.598  0.6615 -0.5884  2.3456
 1614TIP3   OH226476   2.647   0.552   1.310  0.1560 -0.0315  0.4684
 1614TIP3    H126477   2.686   0.491   1.247 -0.5657 -1.2430  1.1756
 1614TIP3    H226478   2.656   0.509   1.395  0.0994  1.0872  1.0617
 1615TIP3   OH226479   2.370   2.345   7.556  0.0618  0.7839 -0.4497
 1615TIP3    H126480   2.276   2.338   7.571  0.0732 -2.7847 -1.2115
 1615TIP3    H226481   2.406   2.373   7.641 -1.4428 -1.3643  1.0081
 1616TIP3   OH226482   2.124   4.565   0.477  0.2905 -0.3619  0.0774
 1616TIP3    H126483   2.195   4.614   0.519 -0.0109 -0.3448  0.5859
 1616TIP3    H226484   2.048   4.624   0.483 -0.5061 -1.4761  2.1734
 1617TIP3   OH226485   2.282   2.791   7.843 -0.3688  1.3509 -0.2806
 1617TIP3    H126486   2.354   2.837   7.887  0.0932  1.2378 -0.9157
 1617TIP3    H226487   2.209   2.797   7.906  0.2612  1.2334  0.4842
 1618TIP3   OH226488   0.035   0.892   0.769 -0.3059 -0.6834  0.4362
 1618TIP3    H126489   0.127   0.891   0.745 -0.5182  0.0106 -0.4511
 1618TIP3    H226490   0.027   0.966   0.830 -0.0979 -1.3776  1.3338
 1619TIP3   OH226491   1.694   0.316   2.556 -0.1245 -0.1271 -0.4208
 1619TIP3    H126492   1.790   0.324   2.556  0.1259 -2.4194 -0.0860
 1619TIP3    H226493   1.669   0.327   2.647 -0.1433  0.0966 -0.4527
 1620TIP3   OH226494   4.951   1.515   6.846 -0.3829 -0.0984 -0.9197
 1620TIP3    H126495   4.998   1.588   6.806 -0.9869  0.0760 -1.3324
 1620TIP3    H226496   4.937   1.454   6.773 -0.3105 -0.4020 -0.6800
 1621TIP3   OH226497   2.885   1.684   0.960 -0.3328  0.0034 -0.0466
 1621TIP3    H126498   2.886   1.680   0.864 -1.8670 -2.0765 -0.0367
 1621TIP3    H226499   2.843   1.768   0.980  0.7673  0.8530 -1.1465
 1622TIP3   OH226500   5.497   0.668   7.789  0.4855  0.2978 -0.0864
 1622TIP3    H126501   5.548   0.588   7.794 -1.8255 -1.2541  0.3469
 1622TIP3    H226502   5.501   0.706   7.877 -1.5800 -1.5148  0.8660
 1623TIP3   OH226503   1.719   6.303   0.858 -0.1950  0.0442 -0.1843
 1623TIP3    H126504   1.811   6.321   0.876  0.0031  0.1719 -1.2693
 1623TIP3    H226505   1.678   6.389   0.848 -0.4546 -0.0102  0.3487
 1624TIP3   OH226506   5.175   4.270   0.871  0.2040  0.2369 -0.2631
 1624TIP3    H126507   5.191   4.297   0.961  1.7982  2.3728 -1.0892
 1624TIP3    H226508   5.080   4.270   0.862  0.0536  1.4511  1.0396
 1625TIP3   OH226509   3.627   6.358   6.827 -0.0440  0.2538  0.0618
 1625TIP3    H126510   3.630   6.308   6.745  0.0625  0.0739  0.1757
 1625TIP3    H226511   3.713   6.401   6.831 -0.2366  0.6680 -0.1752
 1626TIP3   OH226512   5.160   2.980   0.390  0.3039  0.2080 -0.7126
 1626TIP3    H126513   5.147   2.933   0.308 -0.6919  0.5400 -0.7598
 1626TIP3    H226514   5.077   2.971   0.436  0.5101  0.8816 -0.1863
 1627TIP3   OH226515   0.223   3.089   7.174 -0.6077 -0.0254 -0.1420
 1627TIP3    H126516   0.186   3.010   7.212  1.7854 -1.1435  0.0196
 1627TIP3    H226517   0.194   3.089   7.083  0.1848 -1.6713 -0.4213
 1628TIP3   OH226518   1.023   0.091   8.503 -0.2180 -0.2863 -0.6904
 1628TIP3    H126519   1.079   0.083   8.580  0.8896 -1.2704 -1.5611
 1628TIP3    H226520   0.963   0.162   8.525  1.2373  0.6875  0.3732
 1629TIP3   OH226521   2.473   5.287   7.247 -0.2879  0.0517  0.1371
 1629TIP3    H126522   2.494   5.207   7.199  0.1068 -0.3132  0.9071
 1629TIP3    H226523   2.547   5.346   7.230 -1.4539  1.0335 -2.0292
 1630TIP3   OH226524   5.372   4.699   0.763  0.2079 -0.3221  0.6339
 1630TIP3    H126525   5.444   4.649   0.801 -0.2470  0.5272  2.7522
 1630TIP3    H226526   5.296   4.641   0.771 -0.0620  0.1795  1.8957
 1631TIP3   OH226527   6.174   2.180   2.579 -0.0575  0.3078  0.1862
 1631TIP3    H126528   6.115   2.164   2.652 -0.3310 -0.3688 -0.1740
 1631TIP3    H226529   6.138   2.257   2.535  0.2890  0.9154  0.9329
 1632TIP3   OH226530   2.410   2.446   6.157 -0.5685 -0.2224 -0.0473
 1632TIP3    H126531   2.395   2.541   6.159  0.0123 -0.0412 -2.0993
 1632TIP3    H226532   2.329   2.409   6.192 -0.3323  1.0191  1.9797
 1633TIP3   OH226533   4.861   2.236   7.997  0.2547 -0.2015  0.7048
 1633TIP3    H126534   4.776   2.208   8.031  0.0618  1.2033  1.4184
 1633TIP3    H226535   4.884   2.313   8.049  1.4392  0.1128 -0.2464
 1634TIP3   OH226536   5.903   2.586   2.435  0.1118  0.5426 -0.1697
 1634TIP3    H126537   5.821   2.543   2.462 -0.4831 -0.3102 -2.9749
 1634TIP3    H226538   5.971   2.523   2.456  0.1159  1.2546  2.1900
 1635TIP3   OH226539   3.329   6.814   0.659 -0.0156  0.5767  0.0512
 1635TIP3    H126540   3.384   6.893   0.657  0.6902  0.1905  1.8518
 1635TIP3    H226541   3.358   6.763   0.584  1.3815  0.8609  0.3583
 1636TIP3   OH226542   2.466   4.324   0.794  0.2496 -0.4846  0.1118
 1636TIP3    H126543   2.442   4.409   0.832 -0.1713 -0.6095  0.1311
 1636TIP3    H226544   2.396   4.305   0.732  1.0423 -0.1770 -0.9113
 1637TIP3   OH226545   2.058   3.334   0.580  0.2359  0.1052 -0.0157
 1637TIP3    H126546   2.099   3.375   0.656 -1.6443  0.0420  1.1114
 1637TIP3    H226547   2.082   3.242   0.586 -0.1709  0.0365  0.7334
 1638TIP3   OH226548   4.428   1.671   6.432 -0.1089 -0.4980  0.1015
 1638TIP3    H126549   4.468   1.716   6.506  0.7824 -1.1808  0.0454
 1638TIP3    H226550   4.413   1.581   6.463 -0.2088 -0.6508 -0.3735
 1639TIP3   OH226551   3.747   4.113   1.909 -0.5955 -0.4108 -0.5944
 1639TIP3    H126552   3.784   4.026   1.927  0.6543 -0.7286 -3.8131
 1639TIP3    H226553   3.783   4.169   1.977 -0.2349 -2.1528  0.7208
 1640TIP3   OH226554   1.276   3.521   7.538 -0.1066 -0.3300  0.0443
 1640TIP3    H126555   1.234   3.456   7.594  1.6650 -2.2776 -0.7484
 1640TIP3    H226556   1.320   3.581   7.599  0.6060 -1.5770  0.7957
 1641TIP3   OH226557   1.602   5.687   7.870  1.2428  0.2772  0.0402
 1641TIP3    H126558   1.562   5.737   7.941  2.0034  1.3537 -0.2783
 1641TIP3    H226559   1.685   5.732   7.851  0.7354  0.4654 -2.0183
 1642TIP3   OH226560   0.282   6.326   8.397  0.0391  0.4683 -0.1608
 1642TIP3    H126561   0.308   6.357   8.310 -0.2139 -0.0435 -0.4229
 1642TIP3    H226562   0.300   6.400   8.455  3.1454 -0.1769 -0.1154
 1643TIP3   OH226563   3.245   0.917   6.890  0.1666 -0.2671  0.7100
 1643TIP3    H126564   3.259   0.822   6.887 -0.5578 -0.4309  2.0356
 1643TIP3    H226565   3.333   0.954   6.898  0.7158 -0.6373 -2.2720
 1644TIP3   OH226566   2.662   1.615   1.680 -0.0230  0.3639 -0.8783
 1644TIP3    H126567   2.614   1.539   1.713  1.2068  0.2699  0.7884
 1644TIP3    H226568   2.739   1.621   1.736  0.4936  2.1687 -1.7206
 1645TIP3   OH226569   4.448   5.146   7.316 -0.1897 -0.2898  0.5045
 1645TIP3    H126570   4.445   5.238   7.341 -1.7697 -0.4567  1.0297
 1645TIP3    H226571   4.541   5.123   7.321  0.4591  1.6672 -1.2251
 1646TIP3   OH226572   6.370   6.532   8.426 -0.0709 -0.0341  0.6139
 1646TIP3    H126573   6.383   6.437   8.428  1.4154  0.1434  1.0636
 1646TIP3    H226574   6.438   6.564   8.367 -0.3787  0.7710  0.6865
 1647TIP3   OH226575   2.107   6.618   0.365  0.3586  0.0844  0.1057
 1647TIP3    H126576   2.196   6.632   0.397  0.7337  0.5569 -1.0830
 1647TIP3    H226577   2.095   6.523   0.367  1.3335 -0.0743 -0.8409
 1648TIP3   OH226578   3.301   2.126   7.803 -0.1469  0.2180  0.0878
 1648TIP3    H126579   3.303   2.129   7.898 -0.7833 -0.0589  0.1165
 1648TIP3    H226580   3.321   2.036   7.780 -0.9936  0.0424  0.0042
 1649TIP3   OH226581   5.561   4.704   8.569 -0.0336 -0.7135  0.4637
 1649TIP3    H126582   5.509   4.692   8.648 -1.4028 -1.1175 -0.4756
 1649TIP3    H226583   5.576   4.799   8.564  1.8735 -0.8435  2.2929
 1650TIP3   OH226584   2.678   2.563   1.247  0.3819 -0.2310 -0.4531
 1650TIP3    H126585   2.680   2.649   1.204 -1.5899 -0.0470 -0.2347
 1650TIP3    H226586   2.642   2.504   1.180 -0.1529 -0.4827  0.0534
 1651TIP3   OH226587   3.030   6.273   7.691 -0.3291  0.1417 -0.2411
 1651TIP3    H126588   2.939   6.280   7.662 -0.8149 -1.8399  0.6190
 1651TIP3    H226589   3.057   6.185   7.663  1.1835  0.5235 -0.0697
 1652TIP3   OH226590   5.191   4.322   1.983  0.3879 -0.1914 -0.5722
 1652TIP3    H126591   5.164   4.412   2.001 -0.6369 -0.0133 -2.6130
 1652TIP3    H226592   5.271   4.330   1.932  1.5273 -0.5588  1.0824
 1653TIP3   OH226593   5.706   4.481   8.521 -0.1997  0.1787  0.6115
 1653TIP3    H126594   5.656   4.562   8.529 -0.8672 -0.3003  1.3478
 1653TIP3    H226595   5.654   4.425   8.463  0.4951  0.4411 -0.2906
 1654TIP3   OH226596   5.258   6.782   7.850  0.1162  0.2929 -0.7364
 1654TIP3    H126597   5.290   6.771   7.940  2.8446 -0.5110 -1.6901
 1654TIP3    H226598   5.231   6.873   7.846 -0.4606  0.2432  1.0049
 1655TIP3   OH226599   2.836   5.938   8.085 -0.2384  0.1322  0.2432
 1655TIP3    H126600   2.830   5.856   8.135 -0.4624  0.3428  0.5610
 1655TIP3    H226601   2.782   5.922   8.007  0.3079 -0.2820 -0.0541
 1656TIP3   OH226602   3.838   2.771   1.419 -0.5335 -0.2447  0.4645
 1656TIP3    H126603   3.757   2.813   1.391  0.4744  2.4026  1.1941
 1656TIP3    H226604   3.837   2.778   1.514  1.1842  1.3267  0.4436
 1657TIP3   OH226605   5.376   5.106   2.700  0.3403 -0.1708  0.9729
 1657TIP3    H126606   5.340   5.190   2.672 -1.5851 -0.4633  2.3455
 1657TIP3    H226607   5.448   5.129   2.758  0.3704  0.5073  0.6834
 1658TIP3   OH226608   3.717   0.130   8.658  0.1010  0.3213 -0.0424
 1658TIP3    H126609   3.678   0.153   8.743 -0.7279 -0.9561 -0.0450
 1658TIP3    H226610   3.648   0.147   8.595  0.0292 -0.5689 -0.2212
 1659TIP3   OH226611   3.242   2.360   0.598  0.1044  0.4760  0.6801
 1659TIP3    H126612   3.242   2.269   0.567 -1.3086  0.6504  0.1064
 1659TIP3    H226613   3.286   2.409   0.529 -1.4495  0.5888 -0.2818
 1660TIP3   OH226614   3.816   1.852   7.663 -0.1299 -0.3435  0.3341
 1660TIP3    H126615   3.895   1.900   7.640 -0.5560 -0.2891 -1.1251
 1660TIP3    H226616   3.770   1.840   7.580 -1.0085 -1.5424  0.9592
 1661TIP3   OH226617   0.024   6.148   0.553  0.2203  0.3472  0.3427
 1661TIP3    H126618  -0.053   6.191   0.591  0.5224  0.7423  0.5104
 1661TIP3    H226619   0.098   6.195   0.590  0.5735 -0.5343  0.8016
 1662TIP3   OH226620   1.498   2.767   2.065  0.4660  0.1193 -0.1429
 1662TIP3    H126621   1.463   2.686   2.027 -1.2966  0.2231  1.1323
 1662TIP3    H226622   1.572   2.739   2.119  0.3127 -0.5520 -0.2770
 1663TIP3   OH226623   1.475   1.946   7.757 -0.2630  0.0998 -0.7207
 1663TIP3    H126624   1.562   1.979   7.734 -0.1601  0.7755  0.5803
 1663TIP3    H226625   1.416   2.019   7.736 -0.3078  0.2799  0.0248
 1664TIP3   OH226626   1.155   6.212   0.313  0.1231 -0.3309 -0.1490
 1664TIP3    H126627   1.072   6.195   0.357  0.4296 -2.3485 -0.2482
 1664TIP3    H226628   1.133   6.213   0.220  0.0138  0.4926 -0.1205
 1665TIP3   OH226629   3.612   5.434   0.887 -0.4681 -0.2315  0.0367
 1665TIP3    H126630   3.586   5.501   0.823  0.0182  0.3220  0.4053
 1665TIP3    H226631   3.620   5.481   0.969  1.9077 -0.2829 -0.0854
 1666TIP3   OH226632   6.324   2.626   2.351 -0.1227  0.1184  0.2824
 1666TIP3    H126633   6.304   2.712   2.388 -0.2086 -0.2453  1.1247
 1666TIP3    H226634   6.305   2.634   2.258  1.8848  1.6381 -0.0826
 1667TIP3   OH226635   1.525   5.424   7.820  0.3892  0.2793  0.5763
 1667TIP3    H126636   1.436   5.401   7.848 -0.4364  1.4667 -0.8782
 1667TIP3    H226637   1.532   5.518   7.839  0.3680  0.7664 -1.5790
 1668TIP3   OH226638   3.427   0.637   0.356  0.2756 -0.2594 -0.1279
 1668TIP3    H126639   3.421   0.726   0.392  2.6937 -0.3830  0.7786
 1668TIP3    H226640   3.471   0.648   0.272  0.8977 -0.6112  0.1467
 1669TIP3   OH226641   0.075   3.621   1.109 -0.1440 -0.1933 -0.0659
 1669TIP3    H126642   0.127   3.696   1.080  1.3920 -1.1204  0.1662
 1669TIP3    H226643   0.139   3.561   1.148 -1.2450 -1.8227 -0.6551
 1670TIP3   OH226644   4.953   5.486   1.373  0.2828 -0.0580 -0.3660
 1670TIP3    H126645   4.876   5.525   1.414  0.8718  0.5092  0.2216
 1670TIP3    H226646   4.993   5.557   1.323  0.9502 -0.1043  0.0984
 1671TIP3   OH226647   4.201   2.660   1.948 -0.3900  0.2431  0.3286
 1671TIP3    H126648   4.233   2.749   1.966  2.1852 -0.4624 -0.3341
 1671TIP3    H226649   4.276   2.603   1.967 -1.9323 -1.7988  0.5991
 1672TIP3   OH226650   0.595   6.853   8.771 -0.0985  0.4116  0.3267
 1672TIP3    H126651   0.601   6.817   8.859 -0.0793  0.2859  0.2740
 1672TIP3    H226652   0.579   6.778   8.714  1.9787  0.1727 -0.0284
 1673TIP3   OH226653   6.048   5.060   8.647 -0.2080  0.4083  0.0779
 1673TIP3    H126654   5.954   5.059   8.630 -0.4658  2.1405  1.1759
 1673TIP3    H226655   6.087   5.062   8.559 -1.1226 -1.1745 -0.4125
 1674TIP3   OH226656   5.231   1.302   8.017  0.3439 -0.2150  0.2775
 1674TIP3    H126657   5.302   1.321   8.078  0.9382 -1.0755 -0.1211
 1674TIP3    H226658   5.231   1.375   7.956  1.7103 -0.7961 -0.4472
 1675TIP3   OH226659   2.209   0.436   0.070  0.9617  0.0078 -0.2375
 1675TIP3    H126660   2.223   0.514   0.125  1.2816  0.5595 -1.0835
 1675TIP3    H226661   2.148   0.465   0.002 -1.6227 -1.3853  1.3102
 1676TIP3   OH226662   6.591   2.494   8.737  0.2899  0.1202 -0.0779
 1676TIP3    H126663   6.633   2.567   8.692 -2.2613  2.4094  0.9379
 1676TIP3    H226664   6.550   2.443   8.668 -0.9360  1.7969 -0.6671
 1677TIP3   OH226665   0.331   5.888   1.517  0.4237  0.3046  0.0014
 1677TIP3    H126666   0.411   5.846   1.487 -1.1285 -3.3300  0.4273
 1677TIP3    H226667   0.325   5.867   1.610 -2.1137 -1.7661 -0.4978
 1678TIP3   OH226668   6.759   5.025   0.030 -0.1392 -0.1157 -0.2743
 1678TIP3    H126669   6.676   5.067   0.053 -1.6426 -3.7434  1.6869
 1678TIP3    H226670   6.753   5.011  -0.065 -0.7033  1.6593 -0.5302
 1679TIP3   OH226671   6.051   2.910   1.815  0.2220 -0.2146 -0.2669
 1679TIP3    H126672   5.978   2.850   1.803 -0.2064  0.1400  0.4986
 1679TIP3    H226673   6.011   2.997   1.823  0.6025 -0.1619  1.4077
 1680TIP3   OH226674   4.991   4.316   8.320  0.5825 -0.0653 -0.0691
 1680TIP3    H126675   4.919   4.254   8.333  0.2085  0.6605  1.6315
 1680TIP3    H226676   4.954   4.385   8.266 -0.0051  0.2512  0.7099
 1681TIP3   OH226677   6.514   0.692   1.020  0.1435 -0.2194 -0.1098
 1681TIP3    H126678   6.466   0.657   1.095 -1.1185 -0.5374 -1.0459
 1681TIP3    H226679   6.543   0.615   0.971  0.8939 -0.0101 -0.0156
 1682TIP3   OH226680   0.422   5.497   2.172  0.2663 -0.2512  0.0466
 1682TIP3    H126681   0.378   5.442   2.237 -1.2035 -0.0559 -0.7232
 1682TIP3    H226682   0.451   5.574   2.222 -1.3238  0.1542  0.4201
 1683TIP3   OH226683   1.308   3.661   6.923  0.5472 -0.2433  0.0737
 1683TIP3    H126684   1.390   3.619   6.949  1.5848  1.1870 -0.7496
 1683TIP3    H226685   1.331   3.711   6.844 -0.5044  2.1307  1.1745
 1684TIP3   OH226686   1.299   4.021   6.317  0.0040 -0.4236 -0.4422
 1684TIP3    H126687   1.205   4.037   6.326 -0.0028 -0.6351 -0.1303
 1684TIP3    H226688   1.308   3.927   6.327  0.4149 -0.2511  1.0480
 1685TIP3   OH226689   2.148   2.073   0.320  0.1339  0.1151 -0.7764
 1685TIP3    H126690   2.160   2.163   0.350  0.6371 -0.4186  0.6758
 1685TIP3    H226691   2.181   2.074   0.230 -0.3804  1.5016 -0.9685
 1686TIP3   OH226692   6.749   4.931   8.118  0.2393 -0.2584 -0.4030
 1686TIP3    H126693   6.690   5.004   8.099  2.1493  1.3650 -0.3326
 1686TIP3    H226694   6.690   4.858   8.137 -1.7350  0.6771 -2.4999
 1687TIP3   OH226695   6.548   3.356   1.353  0.3986  0.1900  0.2293
 1687TIP3    H126696   6.551   3.330   1.260 -0.1044 -0.7775  0.4744
 1687TIP3    H226697   6.612   3.428   1.359 -2.3927  3.1214 -1.7338
 1688TIP3   OH226698   5.910   6.745   7.540 -0.0303  0.0559 -0.8032
 1688TIP3    H126699   5.845   6.687   7.501 -0.3692  0.0501 -0.2368
 1688TIP3    H226700   5.882   6.833   7.517 -0.5264  0.0791 -0.1352
 1689TIP3   OH226701   4.547   2.083   1.720  0.2626  0.3486 -0.2389
 1689TIP3    H126702   4.558   2.142   1.795 -0.1918 -1.2138  1.1398
 1689TIP3    H226703   4.625   2.027   1.722  0.3792  0.4679 -1.1208
 1690TIP3   OH226704   6.166   0.236   8.330 -0.1371 -0.2712  0.2435
 1690TIP3    H126705   6.227   0.178   8.377  0.7202 -0.2828 -0.8542
 1690TIP3    H226706   6.107   0.268   8.398  1.6233  0.4340  1.5399
 1691TIP3   OH226707   5.888   4.003   2.076  0.3198  0.3734  0.4491
 1691TIP3    H126708   5.840   4.086   2.079 -1.3120 -0.5623  2.2080
 1691TIP3    H226709   5.978   4.027   2.096  0.1730  1.8828 -0.5499
 1692TIP3   OH226710   0.997   1.858   1.459 -0.0642 -0.3844  0.2021
 1692TIP3    H126711   1.051   1.783   1.432  1.9443  1.1487 -0.3166
 1692TIP3    H226712   0.921   1.855   1.401  0.8216 -1.0480 -0.9750
 1693TIP3   OH226713   6.066   1.071   7.260  0.1659 -0.1078 -0.1471
 1693TIP3    H126714   6.043   1.001   7.321 -1.7849 -0.4428 -1.1921
 1693TIP3    H226715   6.162   1.075   7.263  0.3132 -2.5997  0.1893
 1694TIP3   OH226716   6.835   2.784   6.640  0.0895 -0.0598  0.5927
 1694TIP3    H126717   6.890   2.739   6.576  0.4445  1.4465 -0.2189
 1694TIP3    H226718   6.808   2.865   6.595 -0.3650  0.6254  2.0421
 1695TIP3   OH226719   3.561   0.732   6.992  0.4706 -0.5038 -0.0608
 1695TIP3    H126720   3.512   0.743   7.073  2.8158  2.1118  1.1866
 1695TIP3    H226721   3.545   0.814   6.944  0.0898 -1.5140 -1.7246
 1696TIP3   OH226722   1.969   0.038   1.344 -0.8256  0.5669  0.3175
 1696TIP3    H126723   1.967   0.003   1.255  0.3596 -1.3030  0.9701
 1696TIP3    H226724   1.923  -0.027   1.397 -0.6281  1.1460  1.2325
 1697TIP3   OH226725   5.894   1.281   7.273 -0.1494  1.0723 -0.2601
 1697TIP3    H126726   5.836   1.290   7.197 -0.7358  1.1662  0.1937
 1697TIP3    H226727   5.921   1.189   7.271 -2.4026  0.2756  0.9787
 1698TIP3   OH226728   0.600   1.134   7.353  0.6447 -0.3766 -0.4034
 1698TIP3    H126729   0.572   1.124   7.262 -0.4455 -0.6982 -0.0397
 1698TIP3    H226730   0.561   1.060   7.399 -1.1805  1.2734  0.8631
 1699TIP3   OH226731   4.847   3.297   7.322  0.4893  0.0371 -0.1959
 1699TIP3    H126732   4.938   3.315   7.299  0.6734 -0.2860  0.2711
 1699TIP3    H226733   4.807   3.269   7.240  1.4063 -2.1678  0.0480
 1700TIP3   OH226734   4.294   6.801   2.143  0.4475  0.6070 -0.0833
 1700TIP3    H126735   4.230   6.732   2.127 -1.0804  1.8110  0.6603
 1700TIP3    H226736   4.363   6.759   2.194  1.0398 -1.0734 -2.1176
 1701TIP3   OH226737   0.473   5.520   0.537  0.5634  0.2771  0.1550
 1701TIP3    H126738   0.404   5.464   0.571  0.7088 -0.0887 -0.1415
 1701TIP3    H226739   0.548   5.504   0.595  0.0664  1.5673  1.2156
 1702TIP3   OH226740   5.646   5.958   7.929 -0.2555 -0.2749 -0.0817
 1702TIP3    H126741   5.564   5.998   7.959  0.2935  1.1414 -0.3805
 1702TIP3    H226742   5.627   5.928   7.840 -0.5605 -0.3276 -0.0008
 1703TIP3   OH226743   6.822   5.974   8.791  0.2675 -0.1182 -0.0715
 1703TIP3    H126744   6.895   6.005   8.738 -0.4716  0.2497 -0.9065
 1703TIP3    H226745   6.768   5.924   8.730 -0.3673 -0.0643  0.4373
 1704TIP3   OH226746   0.765   6.846   8.225 -0.2412 -0.0619 -0.3536
 1704TIP3    H126747   0.723   6.789   8.289 -0.1517  2.5722  2.2877
 1704TIP3    H226748   0.735   6.934   8.248  0.5067  1.1299 -3.4724
 1705TIP3   OH226749   5.586   3.539   7.073 -0.1619  0.3210 -0.0247
 1705TIP3    H126750   5.658   3.589   7.111 -2.0015  2.6400  0.6611
 1705TIP3    H226751   5.524   3.526   7.145 -1.3040  0.1270 -0.9994
 1706TIP3   OH226752   5.763   1.981   7.450 -0.3716 -0.3446  0.7597
 1706TIP3    H126753   5.754   2.004   7.358 -1.4489 -0.2339  0.8860
 1706TIP3    H226754   5.809   1.897   7.449 -0.6176 -0.4784  0.1098
 1707TIP3   OH226755   4.707   4.592   0.140  0.0218  0.1608 -0.2070
 1707TIP3    H126756   4.652   4.517   0.120  1.7032 -0.7850 -1.5972
 1707TIP3    H226757   4.647   4.667   0.140 -1.2922 -0.8433 -1.4477
 1708TIP3   OH226758   1.186   6.634   0.803  0.2298 -0.2266  0.2567
 1708TIP3    H126759   1.096   6.666   0.802 -0.0061 -0.8746  0.0031
 1708TIP3    H226760   1.227   6.680   0.876  0.5366  2.3018 -1.3890
 1709TIP3   OH226761   4.317   0.333   1.789  0.5941 -0.1198 -0.2341
 1709TIP3    H126762   4.274   0.316   1.706  1.2396  0.1282 -0.6327
 1709TIP3    H226763   4.346   0.424   1.783 -0.0268  0.1365  0.5737
 1710TIP3   OH226764   6.176   6.694   7.644 -0.3657  0.2275  0.1041
 1710TIP3    H126765   6.210   6.756   7.708 -2.5369  0.0851  1.4868
 1710TIP3    H226766   6.087   6.725   7.626 -2.3527 -3.4723  2.4033
 1711TIP3   OH226767   5.894   0.504   1.126 -0.3903 -0.4304 -0.2746
 1711TIP3    H126768   5.894   0.486   1.032  0.7570 -0.2956 -0.3125
 1711TIP3    H226769   5.952   0.579   1.137 -0.7556 -0.2505  0.5116
 1712TIP3   OH226770   1.340   5.266   8.764 -0.3000  0.5185  0.2935
 1712TIP3    H126771   1.275   5.249   8.833 -1.0838  1.4132 -0.1902
 1712TIP3    H226772   1.365   5.358   8.778  1.4227 -0.0022  0.9059
 1713TIP3   OH226773   6.000   4.152   7.340  0.0031 -0.7689  0.2439
 1713TIP3    H126774   5.936   4.212   7.301  0.7378  1.1691  1.7815
 1713TIP3    H226775   5.981   4.156   7.434  0.6176 -2.3552  0.4543
 1714TIP3   OH226776   2.876   6.444   8.506 -0.4663 -0.2971 -0.2843
 1714TIP3    H126777   2.801   6.500   8.529 -1.0121 -1.0642 -0.1642
 1714TIP3    H226778   2.914   6.419   8.590 -1.3614 -1.6189 -0.2494
 1715TIP3   OH226779   5.935   4.935   7.264 -0.0196 -1.2004 -0.1849
 1715TIP3    H126780   5.965   4.970   7.181  0.5720 -1.5652 -0.1335
 1715TIP3    H226781   5.960   5.001   7.329  1.4415 -1.8594 -0.0378
 1716TIP3   OH226782   5.831   5.106   0.908 -0.0424  0.0653  0.4154
 1716TIP3    H126783   5.787   5.022   0.897  0.7261 -0.4650  1.3238
 1716TIP3    H226784   5.922   5.084   0.927  0.4155  1.1321 -0.4148
 1717TIP3   OH226785   6.417   3.483   1.973 -0.6420 -0.4503 -0.1400
 1717TIP3    H126786   6.425   3.507   2.065 -1.0402  0.7022 -0.3954
 1717TIP3    H226787   6.328   3.447   1.966 -0.4812 -0.8797 -0.0055
 1718TIP3   OH226788   3.701   4.408   2.214 -0.1260 -0.0861 -0.3916
 1718TIP3    H126789   3.652   4.349   2.272 -2.7021  1.4308 -0.8579
 1718TIP3    H226790   3.772   4.355   2.180 -0.9455 -2.2173  1.0024
 1719TIP3   OH226791   6.314   3.087   1.254  0.2544 -0.0374 -0.2570
 1719TIP3    H126792   6.319   3.056   1.164 -0.1218 -1.3150  0.1352
 1719TIP3    H226793   6.405   3.096   1.282  0.3934  1.3652 -1.0593
 1720TIP3   OH226794   4.402   5.271   2.121  0.4177 -0.5845 -0.1717
 1720TIP3    H126795   4.396   5.367   2.126  0.9838 -0.5072 -0.8478
 1720TIP3    H226796   4.485   5.255   2.076  0.0935 -1.3850 -0.4923
 1721TIP3   OH226797   0.809   1.587   1.999 -0.5136  0.7342  0.5858
 1721TIP3    H126798   0.760   1.602   2.080 -0.6038  3.1959  0.1631
 1721TIP3    H226799   0.896   1.560   2.027 -0.6707  1.1609  1.5082
 1722TIP3   OH226800   4.607   4.224   6.795 -0.5508  0.0419 -0.0550
 1722TIP3    H126801   4.528   4.276   6.809 -1.4429 -1.4639  0.7640
 1722TIP3    H226802   4.608   4.161   6.867  1.3920 -0.0121 -0.0676
 1723TIP3   OH226803   2.510   1.182   1.285 -0.0431 -0.0240  0.6591
 1723TIP3    H126804   2.577   1.114   1.283 -0.8174 -0.8115 -2.0859
 1723TIP3    H226805   2.429   1.137   1.264 -0.7626  1.5464 -0.0928
 1724TIP3   OH226806   5.668   4.367   7.736 -0.5381 -0.3989  0.6230
 1724TIP3    H126807   5.625   4.287   7.708 -1.4971  0.6789 -1.1270
 1724TIP3    H226808   5.600   4.415   7.784  0.5742 -1.4134  3.4681
 1725TIP3   OH226809   0.302   2.932   8.502 -0.2806 -0.2566  0.1513
 1725TIP3    H126810   0.343   2.980   8.574 -0.2973 -0.8841  0.5966
 1725TIP3    H226811   0.374   2.915   8.441 -0.4507  1.0998 -0.4562
 1726TIP3   OH226812   0.484   4.220   7.422 -0.0139  0.0182  0.3027
 1726TIP3    H126813   0.434   4.297   7.395  0.4520  1.0413  2.2095
 1726TIP3    H226814   0.571   4.254   7.442 -0.4615 -0.4393  3.6205
 1727TIP3   OH226815   4.103   2.391   7.637 -0.4282  0.0567 -0.1138
 1727TIP3    H126816   4.096   2.390   7.733  0.1705 -0.6830 -0.0642
 1727TIP3    H226817   4.024   2.346   7.607 -0.6602  0.3666  0.0270
 1728TIP3   OH226818   4.133   1.794   8.026  0.5380  0.4641 -0.4281
 1728TIP3    H126819   4.215   1.757   7.993  0.8279  0.3955  0.3374
 1728TIP3    H226820   4.109   1.736   8.099  0.7478  1.5018  0.4893
 1729TIP3   OH226821   2.953   2.784   0.211 -0.1726  0.2307 -0.4362
 1729TIP3    H126822   3.001   2.769   0.293 -0.3734  0.3508 -0.2965
 1729TIP3    H226823   2.887   2.849   0.234  1.7228  2.6288 -1.3918
 1730TIP3   OH226824   1.101   5.284   7.028 -0.5015  0.4412  0.0486
 1730TIP3    H126825   1.078   5.193   7.009 -1.3388  0.2627  1.8065
 1730TIP3    H226826   1.017   5.330   7.033 -0.0676  1.5798 -1.8301
 1731TIP3   OH226827   0.595   2.720   0.298 -0.1051 -0.3828 -0.1014
 1731TIP3    H126828   0.574   2.758   0.213  2.1225 -1.1770 -1.1057
 1731TIP3    H226829   0.637   2.637   0.277  0.2447 -0.7335  1.7952
 1732TIP3   OH226830   0.375   4.925   7.668  0.6636  0.4553  0.2594
 1732TIP3    H126831   0.443   4.963   7.613  0.5891  0.4447  0.1595
 1732TIP3    H226832   0.328   4.865   7.610  0.7214  0.2812  0.3917
 1733TIP3   OH226833   1.496   3.377   0.333  0.1959  0.2767 -0.1280
 1733TIP3    H126834   1.463   3.401   0.419  0.9153 -1.5400  0.7151
 1733TIP3    H226835   1.591   3.378   0.342  0.2793 -1.1604 -0.4959
 1734TIP3   OH226836   2.464   6.463   0.606 -0.0292 -0.4250  0.6204
 1734TIP3    H126837   2.395   6.522   0.636 -0.5413 -0.4004 -0.5609
 1734TIP3    H226838   2.540   6.485   0.660  0.1699  2.1665 -0.5847
 1735TIP3   OH226839   5.495   3.906   0.167 -0.0059 -0.2435  0.4425
 1735TIP3    H126840   5.442   3.934   0.092 -0.0920 -1.1219  0.1622
 1735TIP3    H226841   5.512   3.986   0.216  0.7484  0.4941 -0.9650
 1736TIP3   OH226842   0.444   3.715   0.900 -0.1706 -0.1377 -0.5725
 1736TIP3    H126843   0.536   3.699   0.881 -0.1514  1.8647 -2.6492
 1736TIP3    H226844   0.401   3.632   0.879  1.2069 -1.5651  1.7490
 1737TIP3   OH226845   3.860   0.823   0.791  0.1099 -0.5299 -0.8566
 1737TIP3    H126846   3.824   0.912   0.800 -0.8334 -1.1180  2.5537
 1737TIP3    H226847   3.940   0.835   0.739  0.1782  2.3858 -0.2557
 1738TIP3   OH226848   3.776   5.977   1.289 -0.2900  0.2705  0.6336
 1738TIP3    H126849   3.860   6.015   1.315  1.2688 -2.2656 -0.2304
 1738TIP3    H226850   3.726   5.969   1.370  1.0585  0.1723  1.4835
 1739TIP3   OH226851   1.731   6.096   0.373 -0.1426 -0.0712 -0.6423
 1739TIP3    H126852   1.643   6.127   0.394 -0.8053 -0.8966 -2.0589
 1739TIP3    H226853   1.747   6.126   0.284  0.6263 -0.7242 -0.7401
 1740TIP3   OH226854   0.462   6.306   0.750  0.0668 -0.3253 -1.1366
 1740TIP3    H126855   0.499   6.218   0.751  0.4262 -0.3518  3.5824
 1740TIP3    H226856   0.537   6.364   0.759 -0.4187  0.0009  1.6903
 1741TIP3   OH226857   5.319   0.786   0.432 -0.4272 -0.0169  0.4170
 1741TIP3    H126858   5.371   0.708   0.452 -0.0056  0.7604  2.6344
 1741TIP3    H226859   5.383   0.851   0.403 -1.1034 -1.4347 -5.3616
 1742TIP3   OH226860   1.073   2.363   0.630 -0.1522  0.2016 -0.7999
 1742TIP3    H126861   1.045   2.290   0.575 -1.7789  1.2533 -1.4483
 1742TIP3    H226862   1.152   2.396   0.588  0.2304 -0.7473 -0.8633
 1743TIP3   OH226863   0.081   0.710   0.316  0.0661 -0.1088 -0.2129
 1743TIP3    H126864   0.014   0.683   0.254 -1.7966  1.7258  0.9045
 1743TIP3    H226865   0.138   0.769   0.266 -0.3569 -0.0548 -0.6368
 1744TIP3   OH226866   2.357   1.588   1.295  0.2951 -0.0122  0.1165
 1744TIP3    H126867   2.264   1.566   1.298  0.4677 -1.1228 -1.4735
 1744TIP3    H226868   2.365   1.652   1.224  0.9283 -1.0622 -0.7847
 1745TIP3   OH226869   1.413   3.355   7.788  0.5344  0.0702 -0.3680
 1745TIP3    H126870   1.383   3.377   7.876  0.4034  0.4851 -0.5121
 1745TIP3    H226871   1.499   3.398   7.781 -0.0922  1.2732 -0.9499
 1746TIP3   OH226872   1.699   3.540   1.805  0.5707  0.6866 -0.0375
 1746TIP3    H126873   1.700   3.610   1.870  1.5856  0.6158  0.0377
 1746TIP3    H226874   1.616   3.494   1.820  1.4881 -0.3313  2.2687
 1747TIP3   OH226875   2.066   0.027   6.944 -0.6017  0.2832  0.3691
 1747TIP3    H126876   2.120   0.026   6.866  1.2215 -2.6895  1.5005
 1747TIP3    H226877   1.977   0.012   6.913 -0.0372  0.0543 -1.1833
 1748TIP3   OH226878   6.319   0.869   0.946 -0.1033  0.5095 -0.2172
 1748TIP3    H126879   6.270   0.902   1.021 -0.1494 -0.1782  0.0628
 1748TIP3    H226880   6.393   0.822   0.984 -2.0035 -2.9349 -0.4053
 1749TIP3   OH226881   5.244   5.104   7.630  0.3439  0.2595 -0.3661
 1749TIP3    H126882   5.196   5.090   7.712  1.7085  0.2326  0.4637
 1749TIP3    H226883   5.240   5.199   7.616 -3.6458 -0.0295 -2.7065
 1750TIP3   OH226884   3.223   4.579   1.244  0.2098 -0.0989 -0.3491
 1750TIP3    H126885   3.174   4.537   1.314 -1.1160 -0.6215 -1.5486
 1750TIP3    H226886   3.156   4.610   1.183  1.2462  1.9493 -0.5158
 1751TIP3   OH226887   4.947   1.674   1.064 -0.2123  0.2249 -0.0255
 1751TIP3    H126888   4.922   1.670   0.972  0.3470  2.5715 -0.3391
 1751TIP3    H226889   4.869   1.707   1.109  0.0859  0.8754  0.0331
 1752TIP3   OH226890   1.082   2.615   0.286 -0.2939 -0.3809  0.7432
 1752TIP3    H126891   1.042   2.697   0.257 -0.7201 -0.8303  0.0267
 1752TIP3    H226892   1.019   2.579   0.349 -0.7704 -0.8125  0.0369
 1753TIP3   OH226893   2.657   0.311   2.090 -0.3086  0.0603 -0.1232
 1753TIP3    H126894   2.645   0.254   2.167  0.4960 -0.6380 -0.5102
 1753TIP3    H226895   2.568   0.324   2.057 -0.4058 -1.9919 -0.7493
 1754TIP3   OH226896   2.613   1.257   2.690  0.0588  0.2218  0.3077
 1754TIP3    H126897   2.529   1.214   2.699 -0.5070  1.3554  0.6992
 1754TIP3    H226898   2.606   1.307   2.609 -0.8327  2.7304  1.8123
 1755TIP3   OH226899   4.628   0.777   0.961  0.1394  0.3924  0.8840
 1755TIP3    H126900   4.668   0.693   0.984 -0.2263 -0.6047 -1.8249
 1755TIP3    H226901   4.562   0.791   1.029 -0.2479 -1.8573  1.0384
 1756TIP3   OH226902   6.573   3.433   0.451  0.0567  0.1457 -0.2455
 1756TIP3    H126903   6.560   3.388   0.535 -2.0904 -0.8777 -1.0498
 1756TIP3    H226904   6.567   3.526   0.472 -0.4389 -0.0965  0.7375
 1757TIP3   OH226905   2.384   0.972   1.524  0.0066  0.0433 -0.1614
 1757TIP3    H126906   2.329   0.952   1.449  0.8327 -0.2056 -0.7221
 1757TIP3    H226907   2.474   0.970   1.489  0.3963  0.0676  0.7957
 1758TIP3   OH226908   3.222   5.258   1.807 -0.0445  0.4247  0.3885
 1758TIP3    H126909   3.283   5.234   1.737  0.5074 -1.0958  1.3571
 1758TIP3    H226910   3.158   5.187   1.808  0.4651 -0.0397  2.0001
 1759TIP3   OH226911   6.369   1.796   0.169  0.0089 -0.1739  0.5618
 1759TIP3    H126912   6.333   1.711   0.144 -2.0450  1.1790 -1.5612
 1759TIP3    H226913   6.405   1.831   0.088 -1.2789  1.8779  0.7966
 1760TIP3   OH226914   0.444   3.981   1.777  0.1469  0.2440 -0.0975
 1760TIP3    H126915   0.500   3.939   1.843 -0.3131  0.0360  0.1679
 1760TIP3    H226916   0.355   3.960   1.805 -0.0628  0.5327 -0.5422
 1761TIP3   OH226917   2.957   2.187   8.519  0.2725  0.1780 -0.2460
 1761TIP3    H126918   3.016   2.250   8.560 -0.9931  2.0860 -1.2156
 1761TIP3    H226919   2.959   2.112   8.578  1.0719  1.4995  1.5332
 1762TIP3   OH226920   2.335   1.239   1.723  0.7881  0.2683 -0.2356
 1762TIP3    H126921   2.372   1.262   1.637  0.4729  0.3549 -0.3508
 1762TIP3    H226922   2.407   1.251   1.784  1.2959 -0.6999 -0.6089
 1763TIP3   OH226923   4.254   1.834   6.303 -0.3028 -0.2523  0.4623
 1763TIP3    H126924   4.337   1.803   6.340 -0.5434  0.3754  1.5439
 1763TIP3    H226925   4.199   1.756   6.300  0.4866 -0.8030 -0.7973
 1764TIP3   OH226926   0.147   5.234   8.741 -0.1524 -0.2044 -0.0338
 1764TIP3    H126927   0.122   5.226   8.833  0.2311  1.0602  0.2059
 1764TIP3    H226928   0.064   5.241   8.694 -0.3270  0.4467  0.3642
 1765TIP3   OH226929   5.342   2.209   7.810 -0.2677 -0.0920 -0.1474
 1765TIP3    H126930   5.354   2.136   7.869 -0.5587 -0.5809 -0.6818
 1765TIP3    H226931   5.326   2.284   7.867  3.0412  0.2200  0.5601
 1766TIP3   OH226932   1.543   1.629   1.134 -0.0743 -0.0764  0.1769
 1766TIP3    H126933   1.585   1.617   1.219  0.0102  0.9169  0.2830
 1766TIP3    H226934   1.516   1.720   1.133  1.5653  0.4563 -1.5866
 1767TIP3   OH226935   0.561   5.246   1.673  0.4897  0.2303 -0.1040
 1767TIP3    H126936   0.570   5.342   1.679  0.8553  0.1087  2.2155
 1767TIP3    H226937   0.554   5.229   1.579 -1.3473  2.6792 -0.5117
 1768TIP3   OH226938   3.374   4.046   7.973  0.5488  1.0974  0.3563
 1768TIP3    H126939   3.449   3.989   7.958  0.6483  1.0944  0.8484
 1768TIP3    H226940   3.412   4.133   7.990  0.4158  1.2245  0.0166
 1769TIP3   OH226941   2.615   1.432   0.810  0.3992  0.0684  0.1265
 1769TIP3    H126942   2.704   1.434   0.776  1.0907  0.2717  1.8186
 1769TIP3    H226943   2.598   1.340   0.830 -0.1311 -0.0993 -1.0168
 1770TIP3   OH226944   3.369   4.934   7.218  0.2599  0.2694 -0.2075
 1770TIP3    H126945   3.465   4.930   7.215  0.2470  0.4046 -1.8424
 1770TIP3    H226946   3.340   4.850   7.185 -0.1886  0.4583 -0.2994
 1771TIP3   OH226947   6.592   4.961   1.919 -0.2572  0.2564  0.0587
 1771TIP3    H126948   6.527   4.891   1.916  0.7347 -0.6651 -0.8511
 1771TIP3    H226949   6.588   4.994   2.008 -1.2881 -0.4418  0.2843
 1772TIP3   OH226950   3.378   1.102   1.605  0.2867 -0.4071  0.2726
 1772TIP3    H126951   3.424   1.021   1.628 -1.6926 -1.1466  1.8607
 1772TIP3    H226952   3.427   1.171   1.651  1.1228 -0.8585  0.0934
 1773TIP3   OH226953   2.509   3.049   6.729  0.0079 -0.1040  0.8876
 1773TIP3    H126954   2.470   2.974   6.685  0.0187  0.3047  0.1660
 1773TIP3    H226955   2.545   3.102   6.659 -2.4924  2.0532  1.0538
 1774TIP3   OH226956   1.701   4.633   7.982 -0.3525 -0.3431 -0.3456
 1774TIP3    H126957   1.757   4.667   7.912 -0.0025 -0.4230 -0.1038
 1774TIP3    H226958   1.613   4.633   7.944 -0.1079 -0.7692 -0.9307
 1775TIP3   OH226959   1.282   5.622   0.013 -0.8066 -0.0449  0.2869
 1775TIP3    H126960   1.340   5.670   0.072 -1.0553 -0.7646  1.1323
 1775TIP3    H226961   1.219   5.579   0.071 -0.3585 -1.6990 -0.4155
 1776TIP3   OH226962   1.544   4.790   7.327 -0.4099  0.3185 -0.5496
 1776TIP3    H126963   1.540   4.711   7.273 -1.5789  1.7790 -2.7447
 1776TIP3    H226964   1.493   4.768   7.405 -0.7988 -1.0480 -1.1580
 1777TIP3   OH226965   4.748   3.034   7.721 -0.3795 -0.6309 -0.3178
 1777TIP3    H126966   4.817   3.100   7.712 -0.0253 -0.7857  1.0433
 1777TIP3    H226967   4.699   3.040   7.639  0.7394  0.0586 -0.9744
 1778TIP3   OH226968   3.836   5.845   8.161  0.0378 -0.3188 -0.0607
 1778TIP3    H126969   3.868   5.756   8.175  0.5242  0.0567  1.3886
 1778TIP3    H226970   3.824   5.881   8.249  0.3865  1.2476 -0.6142
 1779TIP3   OH226971   4.002   6.262   0.697 -0.4867  0.0932  0.6965
 1779TIP3    H126972   3.944   6.329   0.734  0.4974  0.6320  1.3346
 1779TIP3    H226973   4.081   6.267   0.752  0.8656  0.6113 -1.1956
 1780TIP3   OH226974   1.494   4.133   1.333  0.0798 -0.1092 -0.2666
 1780TIP3    H126975   1.496   4.217   1.287  2.7391 -0.0594 -0.2283
 1780TIP3    H226976   1.414   4.136   1.385 -0.0170  2.3206 -0.4244
 1781TIP3   OH226977   0.058   1.191   0.086  0.5314 -0.5793  0.0420
 1781TIP3    H126978   0.153   1.190   0.102  0.6909 -0.1852 -0.8398
 1781TIP3    H226979   0.046   1.262   0.023 -0.4948  0.1435  1.0071
 1782TIP3   OH226980   6.741   0.240   0.940 -0.2684 -0.5410 -0.8270
 1782TIP3    H126981   6.711   0.285   1.018 -0.3745 -0.0752 -1.1299
 1782TIP3    H226982   6.731   0.147   0.960  0.4721 -0.4488  0.0057
 1783TIP3   OH226983   4.573   3.966   1.976  0.2935 -0.3485  0.3226
 1783TIP3    H126984   4.570   4.051   2.019  1.0886  0.1403 -0.5483
 1783TIP3    H226985   4.558   3.903   2.046  0.0507  0.4941  1.0383
 1784TIP3   OH226986   3.333   5.284   7.584 -0.0448  0.1290 -0.1713
 1784TIP3    H126987   3.271   5.343   7.628  0.5821 -0.9523  2.3189
 1784TIP3    H226988   3.415   5.334   7.581 -0.4625  0.7662 -1.5385
 1785TIP3   OH226989   4.911   2.126   7.321  0.1645 -0.8399 -0.5119
 1785TIP3    H126990   4.972   2.188   7.282 -0.3720 -0.0717 -0.1492
 1785TIP3    H226991   4.954   2.096   7.401 -0.8149  1.3443  0.8983
 1786TIP3   OH226992   2.531   3.097   0.792 -0.1158 -0.3211  0.1633
 1786TIP3    H126993   2.622   3.123   0.808  0.1770 -1.3908  0.2700
 1786TIP3    H226994   2.480   3.153   0.851  0.1684  2.4938 -2.0451
 1787TIP3   OH226995   6.824   2.944   7.205 -0.0929  1.1029 -0.6113
 1787TIP3    H126996   6.746   2.919   7.255  0.2049  1.7901  0.2190
 1787TIP3    H226997   6.789   2.978   7.122 -0.5851 -0.2516 -0.9917
 1788TIP3   OH226998   5.490   1.600   0.701  0.5077  0.2990  0.0063
 1788TIP3    H126999   5.424   1.634   0.762 -0.9499 -2.1057 -0.1108
 1788TIP3    H227000   5.565   1.579   0.757 -0.2252 -0.4110  0.7500
 1789TIP3   OH227001   1.397   1.809   0.502  0.1588 -0.2316  0.0988
 1789TIP3    H127002   1.324   1.775   0.450  0.7927 -0.4505 -0.6693
 1789TIP3    H227003   1.388   1.904   0.497 -1.8030 -0.1928  2.5084
 1790TIP3   OH227004   6.261   4.120   1.187 -0.3671  0.6853 -0.3475
 1790TIP3    H127005   6.323   4.164   1.129  0.6091  0.4660  0.4839
 1790TIP3    H227006   6.293   4.030   1.191 -1.1049  0.4178 -0.3735
 1791TIP3   OH227007   3.903   0.171   6.782 -0.9844 -0.2584 -0.3070
 1791TIP3    H127008   3.870   0.257   6.756  1.1069  0.6362 -0.2022
 1791TIP3    H227009   3.881   0.163   6.875 -1.4158  0.0279 -0.3837
 1792TIP3   OH227010   6.580   5.407   8.113 -0.5246 -0.2025  0.7251
 1792TIP3    H127011   6.643   5.480   8.112 -0.1337 -0.5315  1.2236
 1792TIP3    H227012   6.495   5.449   8.103 -0.1926  0.2043 -0.7256
 1793TIP3   OH227013   0.295   1.561   8.353 -0.7679 -0.0837  0.1521
 1793TIP3    H127014   0.325   1.518   8.433 -0.6255 -0.2568  0.0086
 1793TIP3    H227015   0.361   1.629   8.337 -1.1204  0.3423  0.5074
 1794TIP3   OH227016   3.759   4.965   7.796 -0.0586 -0.4393 -0.4415
 1794TIP3    H127017   3.683   4.981   7.741  0.0527 -0.2176 -0.5317
 1794TIP3    H227018   3.738   5.007   7.879  0.0729 -0.1524 -0.5519
 1795TIP3   OH227019   2.483   4.491   0.471  0.2399 -0.3196 -0.0685
 1795TIP3    H127020   2.475   4.485   0.566 -0.1375 -2.0719 -0.1811
 1795TIP3    H227021   2.544   4.421   0.447  1.5961  1.1118 -0.9962
 1796TIP3   OH227022   2.153   3.953   1.685 -0.1205 -0.2849 -0.6436
 1796TIP3    H127023   2.176   4.044   1.665  0.2177  0.5205  2.8014
 1796TIP3    H227024   2.073   3.936   1.635 -0.4697  2.0677 -0.9852
 1797TIP3   OH227025   0.194   1.989   7.017 -0.5062 -0.1273 -0.1329
 1797TIP3    H127026   0.168   1.943   6.937  1.1899 -1.2380 -0.0883
 1797TIP3    H227027   0.289   1.990   7.015 -0.4105 -0.1510  1.8633
 1798TIP3   OH227028   5.131   0.183   7.490 -0.6728 -0.6923 -0.3922
 1798TIP3    H127029   5.117   0.267   7.446 -1.0753 -0.3652  0.3350
 1798TIP3    H227030   5.050   0.170   7.541  0.9124  0.4771  2.7252
 1799TIP3   OH227031   2.212   5.816   8.453 -0.5494 -0.2126  0.3665
 1799TIP3    H127032   2.268   5.892   8.465  0.4512 -0.6377 -1.3561
 1799TIP3    H227033   2.272   5.741   8.452 -1.3503 -0.8720  0.4042
 1800TIP3   OH227034   5.796   0.379   8.337 -0.2404 -0.4790 -0.7052
 1800TIP3    H127035   5.740   0.360   8.413 -1.4131 -0.3219 -1.5035
 1800TIP3    H227036   5.875   0.327   8.352  0.5106  1.1905  1.6862
 1801TIP3   OH227037   0.451   2.411   0.788  0.7001 -0.2737 -0.3172
 1801TIP3    H127038   0.470   2.318   0.803  0.2971 -0.5938 -1.6146
 1801TIP3    H227039   0.367   2.426   0.831  1.3853 -0.1448  1.0461
 1802TIP3   OH227040   1.532   2.340   1.519 -0.2450  0.3419  0.5637
 1802TIP3    H127041   1.582   2.291   1.454  0.0563  0.5949  0.6023
 1802TIP3    H227042   1.444   2.304   1.513 -0.0598 -0.1103  0.4982
 1803TIP3   OH227043   2.511   0.251   0.796 -0.1058  0.9703  0.6568
 1803TIP3    H127044   2.592   0.301   0.784  1.2640 -1.2058  0.1576
 1803TIP3    H227045   2.510   0.191   0.721 -2.1467  0.8545  0.7351
 1804TIP3   OH227046   2.666   5.968   8.388  0.7343 -0.1227 -0.2877
 1804TIP3    H127047   2.749   5.921   8.378  1.3740  1.2457 -1.8852
 1804TIP3    H227048   2.614   5.941   8.313  0.7465  0.9856 -0.7045
 1805TIP3   OH227049   2.148   0.599   1.475  0.0567 -0.5295 -0.0367
 1805TIP3    H127050   2.098   0.661   1.423  0.2646 -0.9474 -0.7568
 1805TIP3    H227051   2.146   0.518   1.425  0.3632 -0.9150  0.5528
 1806TIP3   OH227052   5.190   0.276   2.542 -0.1718 -0.0843 -0.4538
 1806TIP3    H127053   5.190   0.314   2.629  2.9497  1.7593 -1.1007
 1806TIP3    H227054   5.124   0.326   2.494 -0.0734  0.6762  0.1836
 1807TIP3   OH227055   6.287   5.626   1.392  0.2483 -0.4030  0.0693
 1807TIP3    H127056   6.230   5.609   1.317  0.9404  0.4230 -0.6693
 1807TIP3    H227057   6.227   5.638   1.466 -0.6531  1.8058 -0.9411
 1808TIP3   OH227058   1.623   1.476   8.107  0.5387  0.6499 -0.6278
 1808TIP3    H127059   1.668   1.557   8.130  0.6379  1.0593 -2.1441
 1808TIP3    H227060   1.644   1.462   8.015 -1.3369  0.1164 -1.0224
 1809TIP3   OH227061   3.856   2.414   0.646 -0.1978 -0.4587 -0.1945
 1809TIP3    H127062   3.843   2.507   0.632 -1.1093 -0.4597  0.5908
 1809TIP3    H227063   3.950   2.401   0.632 -0.3375  0.2516 -2.0200
 1810TIP3   OH227064   4.622   4.883   7.482  0.0217  0.2256  0.0421
 1810TIP3    H127065   4.596   4.954   7.541 -0.7077 -1.0298  1.3004
 1810TIP3    H227066   4.684   4.924   7.422 -0.2496  1.8870  0.8220
 1811TIP3   OH227067   0.972   4.402   7.424 -0.2443 -0.1876  0.3365
 1811TIP3    H127068   1.024   4.325   7.447 -2.3430 -2.2731 -1.4394
 1811TIP3    H227069   1.016   4.438   7.346  0.4369  0.1745  0.8660
 1812TIP3   OH227070   2.798   6.033   0.524 -0.1903  0.7502  0.0633
 1812TIP3    H127071   2.748   6.076   0.454  1.5115  0.3270 -1.4941
 1812TIP3    H227072   2.845   6.104   0.566 -0.5632  0.9027  0.2296
 1813TIP3   OH227073   2.909   2.100   7.607  0.1798  0.1736 -0.4252
 1813TIP3    H127074   2.835   2.052   7.571 -0.9626  2.1755 -0.9071
 1813TIP3    H227075   2.985   2.046   7.587 -1.2051 -2.7478  1.4437
 1814TIP3   OH227076   3.060   1.150   8.763  0.4483 -0.0287  0.2170
 1814TIP3    H127077   3.149   1.183   8.754  1.0291 -1.2427  1.1700
 1814TIP3    H227078   3.069   1.055   8.760 -0.6670 -0.2069  1.4154
 1815TIP3   OH227079   6.095   1.385   8.210  0.1507  0.2049  0.2024
 1815TIP3    H127080   6.148   1.441   8.267  2.5310 -2.4432  0.7849
 1815TIP3    H227081   6.038   1.336   8.269 -0.4856  0.5361 -0.1227
 1816TIP3   OH227082   5.031   4.096   0.220 -0.1427  0.0056 -0.3123
 1816TIP3    H127083   5.035   4.129   0.310 -1.6715  1.1131 -0.6193
 1816TIP3    H227084   5.002   4.171   0.168 -0.5726 -0.9777 -1.5428
 1817TIP3   OH227085   2.710   0.619   7.009  0.6196  0.0476 -0.0313
 1817TIP3    H127086   2.695   0.532   6.971  0.8787  0.2634 -0.6436
 1817TIP3    H227087   2.668   0.679   6.949  1.3270  0.4231 -0.1635
 1818TIP3   OH227088   4.779   6.807   7.105  0.1154 -0.2499 -0.0429
 1818TIP3    H127089   4.738   6.892   7.121 -0.0425 -0.1414 -0.9548
 1818TIP3    H227090   4.729   6.746   7.159  0.3315  0.2499  0.7433
 1819TIP3   OH227091   2.840   2.715   7.277  0.2639  0.7949 -0.0252
 1819TIP3    H127092   2.924   2.680   7.247 -0.4228  0.0589 -1.1475
 1819TIP3    H227093   2.863   2.793   7.328  1.8304 -0.9251  2.1168
 1820TIP3   OH227094   6.416   0.480   8.676  0.5322 -0.6127 -0.7327
 1820TIP3    H127095   6.478   0.411   8.700 -1.4297 -1.6405  1.9570
 1820TIP3    H227096   6.342   0.433   8.636 -0.0989  0.1252 -0.4574
 1821TIP3   OH227097   3.770   3.084   0.578  0.5014 -0.7460 -0.6402
 1821TIP3    H127098   3.784   3.166   0.530 -0.7885 -0.6308 -0.8609
 1821TIP3    H227099   3.858   3.050   0.594  0.9832 -0.8154 -3.1259
 1822TIP3   OH227100   4.744   5.883   8.170 -0.9299 -0.0054 -0.1318
 1822TIP3    H127101   4.828   5.893   8.125 -0.2559 -0.5663  0.9674
 1822TIP3    H227102   4.695   5.962   8.147 -0.0110  0.4328 -0.6139
 1823TIP3   OH227103   3.657   3.591   7.764 -0.1934 -0.2465  0.2685
 1823TIP3    H127104   3.708   3.625   7.837  0.9839 -0.9044 -0.2143
 1823TIP3    H227105   3.582   3.549   7.804  0.8052 -1.2279  1.1736
 1824TIP3   OH227106   4.138   0.055   7.385 -0.5613 -0.2334 -0.3499
 1824TIP3    H127107   4.195   0.096   7.450  1.4200 -2.2583 -0.7037
 1824TIP3    H227108   4.081  -0.003   7.436  1.1555 -2.0069 -0.3612
 1825TIP3   OH227109   5.905   4.071   1.353  0.3980  0.4265  0.0909
 1825TIP3    H127110   5.925   4.154   1.396  2.3312 -1.1604  2.4394
 1825TIP3    H227111   5.876   4.013   1.423  0.9289 -1.4703 -1.1819
 1826TIP3   OH227112   5.649   1.294   0.663 -0.0421  0.2131  0.4455
 1826TIP3    H127113   5.726   1.259   0.708  0.2172  0.0422 -0.1173
 1826TIP3    H227114   5.671   1.385   0.644 -0.7473  0.7474  1.9764
 1827TIP3   OH227115   2.892   2.863   8.523 -0.4650 -0.0310  0.5131
 1827TIP3    H127116   2.908   2.951   8.488 -0.0151 -0.0035  0.7811
 1827TIP3    H227117   2.865   2.878   8.614  0.6311 -0.2195  0.8797
 1828TIP3   OH227118   3.498   4.816   7.683  0.1177 -0.1550  0.6215
 1828TIP3    H127119   3.576   4.777   7.644  0.0197  0.3595 -0.1116
 1828TIP3    H227120   3.513   4.910   7.677  0.4146 -0.0521  2.5048
 1829TIP3   OH227121   2.648   3.538   6.743 -0.6204 -0.4037  0.4338
 1829TIP3    H127122   2.721   3.589   6.778 -0.7988  1.2578 -1.4280
 1829TIP3    H227123   2.689   3.479   6.680 -0.7707 -0.0769  0.0248
 1830TIP3   OH227124   3.123   3.122   0.230 -0.2735  0.8212  0.0129
 1830TIP3    H127125   3.049   3.098   0.285 -0.7329  2.2203  0.0418
 1830TIP3    H227126   3.145   3.042   0.183 -0.9406  0.0434  0.9967
 1831TIP3   OH227127   4.649   0.227   1.340  0.4462 -0.6250  0.0133
 1831TIP3    H127128   4.706   0.301   1.360 -0.1918 -0.3835  1.0223
 1831TIP3    H227129   4.637   0.183   1.425  1.9287 -2.7062 -0.7824
 1832TIP3   OH227130   4.163   6.697   7.130 -0.4745  0.0873  0.3930
 1832TIP3    H127131   4.070   6.686   7.149 -0.5033 -0.2793  0.0617
 1832TIP3    H227132   4.200   6.609   7.137  0.1583  0.4508  2.0582
 1833TIP3   OH227133   3.033   3.129   8.661 -0.3977  0.7498 -0.5885
 1833TIP3    H127134   2.983   3.151   8.582 -2.1693  1.5583  0.7000
 1833TIP3    H227135   3.013   3.200   8.723 -0.1882 -0.5742  1.0708
 1834TIP3   OH227136   2.187   1.706   0.179 -0.4302  0.0649  0.4715
 1834TIP3    H127137   2.215   1.632   0.127 -1.2908 -0.2167  0.3942
 1834TIP3    H227138   2.138   1.762   0.118 -0.6595  0.1825  0.7578
 1835TIP3   OH227139   0.614   2.795   8.271 -0.9421  0.1779 -0.0680
 1835TIP3    H127140   0.670   2.793   8.193  0.2122  0.3016  0.7454
 1835TIP3    H227141   0.546   2.859   8.249 -0.1400  0.8555 -0.6478
 1836TIP3   OH227142   2.421   4.861   7.463 -0.4181  0.6251  0.2645
 1836TIP3    H127143   2.459   4.785   7.507 -1.7260 -0.6451 -0.7000
 1836TIP3    H227144   2.339   4.828   7.426  0.3918  1.6887 -2.7439
 1837TIP3   OH227145   3.743   3.503   8.264 -0.0113 -0.7133  0.0676
 1837TIP3    H127146   3.799   3.445   8.212  0.8910  1.4186 -1.5038
 1837TIP3    H227147   3.800   3.535   8.334  0.0487 -0.3180 -0.1611
 1838TIP3   OH227148   1.336   1.671   0.831  0.5579  0.2262 -0.1031
 1838TIP3    H127149   1.266   1.701   0.889  0.4006  0.6239 -0.4908
 1838TIP3    H227150   1.292   1.615   0.768  0.4092  1.2313 -0.9239
 1839TIP3   OH227151   0.607   1.474   7.606 -0.4223  1.2238 -0.3612
 1839TIP3    H127152   0.680   1.482   7.667 -0.6024  1.0554 -0.1196
 1839TIP3    H227153   0.531   1.457   7.662 -0.4271  0.0588 -0.6922
 1840TIP3   OH227154   3.062   5.992   7.610 -0.7740 -0.6938  0.2435
 1840TIP3    H127155   3.015   5.945   7.541  0.5481 -2.0985  0.2578
 1840TIP3    H227156   3.082   5.925   7.675 -1.3045  0.4610  1.6397
 1841TIP3   OH227157   3.855   4.786   1.049 -0.0117  0.1323  0.0334
 1841TIP3    H127158   3.785   4.843   1.080  0.8426  0.5504  1.2746
 1841TIP3    H227159   3.935   4.836   1.064  0.6170 -0.6202 -0.6951
 1842TIP3   OH227160   4.513   5.816   7.748 -0.1280  0.1912 -0.0345
 1842TIP3    H127161   4.591   5.764   7.767  0.6232  1.2908 -0.0175
 1842TIP3    H227162   4.528   5.850   7.660  0.3047  1.9526  0.6944
 1843TIP3   OH227163   1.752   1.342   8.534 -0.7089  0.2817  0.2996
 1843TIP3    H127164   1.815   1.282   8.574 -1.0346  0.2124  0.7084
 1843TIP3    H227165   1.747   1.312   8.443 -1.1979 -0.5984  0.6032
 1844TIP3   OH227166   5.361   5.672   2.543  0.1692 -0.1101  0.1726
 1844TIP3    H127167   5.369   5.766   2.562 -1.5114  0.3191 -1.0454
 1844TIP3    H227168   5.357   5.667   2.448 -3.3566 -1.0140  0.2397
 1845TIP3   OH227169   6.207   0.324   6.522 -1.0893 -0.2827 -0.1963
 1845TIP3    H127170   6.214   0.404   6.574 -1.6228 -0.6150  0.3855
 1845TIP3    H227171   6.114   0.314   6.506 -1.1128 -1.2653  0.4821
 1846TIP3   OH227172   4.783   2.755   7.885  0.0597 -0.6494 -0.2191
 1846TIP3    H127173   4.871   2.725   7.864  0.5552 -0.2976  1.1806
 1846TIP3    H227174   4.788   2.850   7.877 -0.4982 -0.6859 -1.1377
 1847TIP3   OH227175   1.663   5.733   7.535  0.0304 -0.7880  0.2585
 1847TIP3    H127176   1.729   5.760   7.472 -1.4913  1.2261 -0.5908
 1847TIP3    H227177   1.668   5.798   7.605 -2.6067  0.9490 -1.0144
 1848TIP3   OH227178   6.219   0.152   0.616  0.3022 -0.0470  0.4828
 1848TIP3    H127179   6.295   0.101   0.587 -0.1202 -0.7608  0.6211
 1848TIP3    H227180   6.200   0.119   0.704 -0.1053  0.2067  0.4926
 1849TIP3   OH227181   4.985   2.582   7.419  0.5244  0.5116 -0.0869
 1849TIP3    H127182   4.977   2.503   7.473  0.1493  0.6021 -0.0100
 1849TIP3    H227183   4.944   2.651   7.471  0.2605  0.6205 -0.4406
 1850TIP3   OH227184   1.653   4.374   7.606 -0.4924 -0.5592  0.0426
 1850TIP3    H127185   1.570   4.422   7.603 -0.3180 -0.2377  0.2860
 1850TIP3    H227186   1.637   4.295   7.554 -0.7066 -0.1292 -0.5429
 1851TIP3   OH227187   1.366   4.159   1.786  0.3802  0.0199  0.2255
 1851TIP3    H127188   1.388   4.127   1.874  2.1200 -1.1623 -0.5735
 1851TIP3    H227189   1.447   4.199   1.754 -0.6482  1.7685 -0.3144
 1852TIP3   OH227190   5.225   6.565   7.110  0.1327 -0.0385 -0.3814
 1852TIP3    H127191   5.260   6.511   7.039  2.2548 -0.1276  0.6469
 1852TIP3    H227192   5.272   6.649   7.102 -0.8042  0.5347 -0.0651
 1853TIP3   OH227193   1.055   4.235   0.248 -0.5289 -0.7548 -0.2412
 1853TIP3    H127194   1.080   4.222   0.156  0.2956  0.4093 -0.2006
 1853TIP3    H227195   1.026   4.326   0.253  0.0268 -0.6188  0.7804
 1854TIP3   OH227196   6.469   3.692   0.533  0.1495  0.9422 -0.0211
 1854TIP3    H127197   6.525   3.739   0.471  0.6845  0.4056  0.0389
 1854TIP3    H227198   6.494   3.727   0.618 -0.3323  1.4238 -0.0715
 1855TIP3   OH227199   0.865   0.909   1.552  0.1600 -0.2341  0.3701
 1855TIP3    H127200   0.818   0.972   1.498  3.1745  3.2285  1.4562
 1855TIP3    H227201   0.860   0.945   1.641  5.0955  0.8010  0.4932
 1856TIP3   OH227202   5.548   4.279   1.256  0.2011  0.3846  0.0528
 1856TIP3    H127203   5.622   4.221   1.242 -0.8209 -0.6745 -1.2202
 1856TIP3    H227204   5.515   4.298   1.169 -1.1361  0.6845  0.5979
 1857TIP3   OH227205   5.731   2.162   7.190 -0.7171  0.2259 -0.4228
 1857TIP3    H127206   5.814   2.115   7.185 -1.0350 -0.2936 -0.9569
 1857TIP3    H227207   5.753   2.245   7.233 -0.4113 -0.9989  1.9557
 1858TIP3   OH227208   4.939   0.964   7.143  0.0993  0.4076  0.0831
 1858TIP3    H127209   4.979   0.903   7.081 -2.5967 -1.0274 -0.3981
 1858TIP3    H227210   4.986   0.947   7.225  3.1681  1.7624 -1.2268
 1859TIP3   OH227211   0.570   1.351   0.793  0.3746 -0.1752 -0.4976
 1859TIP3    H127212   0.537   1.296   0.864  0.6202 -2.2952 -1.9201
 1859TIP3    H227213   0.504   1.419   0.782  0.0624 -0.1369  1.3593
 1860TIP3   OH227214   5.480   6.790   2.388  0.0059 -0.1331  0.0095
 1860TIP3    H127215   5.565   6.794   2.344  0.2043 -0.7062  0.3330
 1860TIP3    H227216   5.482   6.709   2.437 -0.5632  0.0662  0.3744
 1861TIP3   OH227217   5.341   5.009   6.974  0.3307 -0.3580 -0.6197
 1861TIP3    H127218   5.268   5.032   6.917  0.3350 -0.4227 -0.6511
 1861TIP3    H227219   5.353   5.086   7.030 -0.1065 -0.5564 -0.2520
 1862TIP3   OH227220   6.206   2.428   7.691 -0.0758 -0.4000 -0.0864
 1862TIP3    H127221   6.299   2.443   7.702 -0.0415 -1.1096  0.7544
 1862TIP3    H227222   6.199   2.366   7.619  0.0631  0.1173 -0.5434
 1863TIP3   OH227223   2.665   2.966   7.112  0.2795 -0.2429 -0.2429
 1863TIP3    H127224   2.659   2.970   7.207  4.1011  0.6158  0.1148
 1863TIP3    H227225   2.612   3.039   7.080  0.9278  0.9818  1.3953
 1864TIP3   OH227226   2.976   4.862   2.151  0.4832  0.4677  0.1784
 1864TIP3    H127227   2.966   4.931   2.085 -0.6041  1.7499  1.5795
 1864TIP3    H227228   3.044   4.805   2.117  0.0443  1.1371 -1.9756
 1865TIP3   OH227229   5.376   3.592   8.488 -0.0907 -0.2404 -0.0579
 1865TIP3    H127230   5.436   3.534   8.441  0.2218 -0.7366  0.9229
 1865TIP3    H227231   5.291   3.547   8.483 -0.0775 -0.2500 -0.2126
 1866TIP3   OH227232   4.851   4.215   1.481 -0.2487 -0.4930 -0.4347
 1866TIP3    H127233   4.929   4.160   1.487 -0.1805 -0.3201  0.4262
 1866TIP3    H227234   4.788   4.172   1.540 -0.2057  0.3150  0.2139
 1867TIP3   OH227235   5.447   1.017   0.346 -0.1069  0.8799  0.3876
 1867TIP3    H127236   5.353   1.029   0.364 -0.5409 -0.6013 -0.7264
 1867TIP3    H227237   5.483   1.105   0.353 -1.5658  1.4823  0.8866
 1868TIP3   OH227238   6.677   4.681   7.705  0.1415 -0.2085  0.2395
 1868TIP3    H127239   6.600   4.734   7.727 -0.4885 -1.3246  0.8533
 1868TIP3    H227240   6.751   4.739   7.719 -0.5293  0.5372  0.8047
 1869TIP3   OH227241   1.166   4.583   0.695  0.2381 -0.1012  0.2030
 1869TIP3    H127242   1.206   4.589   0.609  1.2504  0.3854  0.6996
 1869TIP3    H227243   1.072   4.583   0.677  0.3846  1.7050 -0.8164
 1870TIP3   OH227244   3.682   4.154   0.950  0.5753  0.4878 -0.0938
 1870TIP3    H127245   3.689   4.070   0.906 -0.0778  0.6368 -0.5021
 1870TIP3    H227246   3.588   4.168   0.960  0.7017  0.7386  0.8171
 1871TIP3   OH227247   1.798   5.864   1.321  0.1193 -0.2251 -0.1517
 1871TIP3    H127248   1.829   5.816   1.398 -0.0788 -1.8289 -1.0368
 1871TIP3    H227249   1.859   5.936   1.312 -0.2262  0.3833  1.8757
 1872TIP3   OH227250   5.179   1.022   7.896  0.0160 -0.2412 -0.4679
 1872TIP3    H127251   5.222   0.937   7.906  1.5659  0.5253 -0.3590
 1872TIP3    H227252   5.214   1.075   7.968  1.6130  1.4874 -2.4044
 1873TIP3   OH227253   6.577   6.704   2.285  0.2888  0.2248  0.6110
 1873TIP3    H127254   6.524   6.752   2.221  3.7086  0.7965 -2.0775
 1873TIP3    H227255   6.571   6.613   2.258  0.6014  0.2769  0.3659
 1874TIP3   OH227256   0.229   3.848   1.012  0.4227  0.0553 -0.0455
 1874TIP3    H127257   0.278   3.903   1.072  0.0631 -0.2115  0.5058
 1874TIP3    H227258   0.296   3.798   0.965  0.7063 -2.2013  2.4836
 1875TIP3   OH227259   4.919   2.047   8.566 -0.0336 -0.1075  0.7519
 1875TIP3    H127260   4.952   2.084   8.484 -1.4090 -0.5224 -0.0203
 1875TIP3    H227261   4.997   2.011   8.609  0.9008  1.2166  0.2388
 1876TIP3   OH227262   1.835   3.923   7.704  0.3351  0.9750 -0.1037
 1876TIP3    H127263   1.766   3.973   7.748  0.7356 -0.7686  2.7810
 1876TIP3    H227264   1.915   3.951   7.748  0.9506  0.1245 -0.6719
 1877TIP3   OH227265   4.977   5.219   8.522  0.1291 -0.0501  0.1757
 1877TIP3    H127266   4.948   5.170   8.445 -0.5102  1.4000 -0.5242
 1877TIP3    H227267   5.036   5.158   8.567 -1.4421 -1.8779 -0.0780
 1878TIP3   OH227268   0.264   4.235   7.725  0.1277  0.1205 -0.1499
 1878TIP3    H127269   0.210   4.226   7.646 -0.5380  1.4626  0.1255
 1878TIP3    H227270   0.250   4.153   7.772  1.1185 -1.0351 -1.7370
 1879TIP3   OH227271   2.234   2.860   0.233  0.0551 -0.3083  0.9247
 1879TIP3    H127272   2.189   2.910   0.165 -1.3965 -1.1474  1.2183
 1879TIP3    H227273   2.205   2.770   0.219  2.1270 -1.0004  0.7864
 1880TIP3   OH227274   2.324   4.022   1.902 -0.4744  0.0862  0.6750
 1880TIP3    H127275   2.268   4.058   1.833  0.9397 -0.3534 -0.7831
 1880TIP3    H227276   2.408   4.007   1.858 -0.1995 -2.3960  1.8841
 1881TIP3   OH227277   4.265   4.154   0.831  0.1604  0.2029 -0.2014
 1881TIP3    H127278   4.337   4.217   0.829 -0.1482  0.5597 -0.2604
 1881TIP3    H227279   4.189   4.204   0.800 -0.2699  0.0301  0.5548
 1882TIP3   OH227280   3.623   0.816   8.605 -0.1582  0.0916 -0.3816
 1882TIP3    H127281   3.694   0.751   8.604  1.5250  1.8412  0.2372
 1882TIP3    H227282   3.623   0.850   8.695 -2.0117 -0.0497 -0.2848
 1883TIP3   OH227283   3.944   2.277   7.981  0.6805  0.5692 -0.0065
 1883TIP3    H127284   4.008   2.348   7.988  0.5741  0.5800  0.9260
 1883TIP3    H227285   3.996   2.199   7.959  1.0914  0.4767  1.2331
 1884TIP3   OH227286   2.398   4.608   0.064 -0.0856  0.4049 -0.1907
 1884TIP3    H127287   2.460   4.655   0.120  2.1040 -2.2616 -0.1562
 1884TIP3    H227288   2.419   4.635  -0.025 -1.2475  2.0562 -0.0034
 1885TIP3   OH227289   5.755   0.699   0.889  0.1682 -0.0444 -0.4402
 1885TIP3    H127290   5.806   0.620   0.871 -0.0147  0.1263 -1.8730
 1885TIP3    H227291   5.706   0.714   0.808 -1.9119  0.0050  0.7689
 1886TIP3   OH227292   3.513   5.842   8.506 -0.0761 -0.1370 -0.0518
 1886TIP3    H127293   3.506   5.896   8.427 -0.9776  0.5526  0.4806
 1886TIP3    H227294   3.499   5.904   8.578  2.0885 -0.4724  0.7479
 1887TIP3   OH227295   1.027   3.446   8.717 -0.4149  0.1345 -0.7047
 1887TIP3    H127296   0.989   3.534   8.725 -0.5908  0.1937 -1.9367
 1887TIP3    H227297   1.039   3.417   8.807  1.1899  2.0726 -0.2054
 1888TIP3   OH227298   6.530   2.987   7.672 -0.5297 -0.3167  0.5103
 1888TIP3    H127299   6.467   2.916   7.687 -1.3534  0.4100  0.5935
 1888TIP3    H227300   6.520   3.044   7.749 -1.3777  0.9565 -0.4992
 1889TIP3   OH227301   5.551   6.711   7.033 -0.0541  0.5780 -0.5558
 1889TIP3    H127302   5.556   6.617   7.015 -1.1961  0.3797  0.0436
 1889TIP3    H227303   5.642   6.740   7.033  0.2204 -0.0903 -2.8603
 1890TIP3   OH227304   1.024   2.274   0.128 -0.2139 -0.0340 -0.2665
 1890TIP3    H127305   0.957   2.214   0.097 -0.7094  0.1974  0.3383
 1890TIP3    H227306   1.089   2.275   0.058 -0.8895 -0.1683 -0.9068
 1891TIP3   OH227307   6.684   2.727   8.536 -0.3274  0.3947 -0.4563
 1891TIP3    H127308   6.722   2.815   8.539 -1.6705  0.9782  0.3875
 1891TIP3    H227309   6.618   2.731   8.467  0.3459 -0.2903 -1.1635
 1892TIP3   OH227310   0.724   4.362   8.259 -0.4738  0.5079  0.2218
 1892TIP3    H127311   0.694   4.273   8.278  0.1280  0.4601  1.0269
 1892TIP3    H227312   0.783   4.353   8.185 -1.0425  0.3593 -0.2237
 1893TIP3   OH227313   4.560   6.618   7.177  0.8020  0.4804 -0.1049
 1893TIP3    H127314   4.500   6.659   7.239 -0.4375 -0.5107 -0.6014
 1893TIP3    H227315   4.511   6.543   7.143  1.0101  1.5792 -3.0923
 1894TIP3   OH227316   4.246   4.635   0.509  0.0219 -0.5588  0.5020
 1894TIP3    H127317   4.174   4.668   0.562  0.1355 -1.0554  0.9852
 1894TIP3    H227318   4.215   4.550   0.477 -1.7330  1.3936 -3.7192
 1895TIP3   OH227319   1.050   4.829   7.727  0.3895 -0.2534 -0.2527
 1895TIP3    H127320   1.093   4.858   7.647  0.5657 -1.6715 -0.7021
 1895TIP3    H227321   1.034   4.736   7.713 -0.3253 -0.3441  1.0347
 1896TIP3   OH227322   2.933   3.099   8.394 -0.2537  0.2514  0.1061
 1896TIP3    H127323   3.003   3.071   8.335 -0.4747 -0.9075  0.3781
 1896TIP3    H227324   2.883   3.164   8.343 -0.2994 -0.5471 -0.8880
 1897TIP3   OH227325   6.714   3.858   8.043  0.7342 -0.1302  0.5995
 1897TIP3    H127326   6.678   3.833   8.128 -0.6987 -1.7119 -0.4266
 1897TIP3    H227327   6.798   3.812   8.039 -0.1889 -1.8744  0.2872
 1898TIP3   OH227328   2.465   0.595   7.742 -0.2533 -0.4076 -0.3092
 1898TIP3    H127329   2.499   0.676   7.703  2.1936 -0.8194  0.7571
 1898TIP3    H227330   2.432   0.544   7.668 -0.8954  1.1076 -1.1095
 1899TIP3   OH227331   6.597   1.631   7.465  0.1234  0.5106  0.5515
 1899TIP3    H127332   6.543   1.654   7.540  1.1965  2.6833  0.7335
 1899TIP3    H227333   6.587   1.705   7.405  2.3467  0.6915  0.3257
 1900TIP3   OH227334   2.655   3.119   1.548 -0.5018 -0.2602 -0.5513
 1900TIP3    H127335   2.680   3.175   1.622 -0.1954  0.3752 -1.1243
 1900TIP3    H227336   2.738   3.083   1.516 -0.5434  0.0732 -1.0535
 1901TIP3   OH227337   3.571   5.262   0.367 -0.8038  0.0292  0.6396
 1901TIP3    H127338   3.592   5.355   0.376  1.5843 -0.3485 -0.2910
 1901TIP3    H227339   3.541   5.253   0.276  0.4895 -0.3257  0.2281
 1902TIP3   OH227340   5.335   6.832   7.143 -0.1797 -0.0438  0.2978
 1902TIP3    H127341   5.337   6.927   7.134 -0.1407  0.1178  1.7286
 1902TIP3    H227342   5.408   6.801   7.090 -0.2179  0.7157 -0.2109
 1903TIP3   OH227343   0.538   0.061   8.064 -0.2795 -0.2641 -0.3067
 1903TIP3    H127344   0.511   0.117   7.991 -1.3476 -0.6784 -0.2536
 1903TIP3    H227345   0.620   0.022   8.036  0.0728  0.7060 -0.6773
 1904TIP3   OH227346   1.784   6.201   2.091  0.2047  0.0406  0.5984
 1904TIP3    H127347   1.702   6.175   2.133 -0.4781 -1.2751 -1.3999
 1904TIP3    H227348   1.757   6.252   2.015  1.2741  0.3316  0.3975
 1905TIP3   OH227349   4.604   0.619   6.541  0.2240 -0.4528 -0.5509
 1905TIP3    H127350   4.562   0.544   6.498 -0.2039 -0.4867 -0.0861
 1905TIP3    H227351   4.651   0.581   6.615  2.7929 -0.6823 -2.1861
 1906TIP3   OH227352   4.814   0.309   0.990  0.1790 -0.4064 -0.2240
 1906TIP3    H127353   4.857   0.307   1.076 -1.8646  2.0121  1.0035
 1906TIP3    H227354   4.834   0.396   0.955 -1.1649 -0.3628 -0.9635
 1907TIP3   OH227355   1.086   5.069   8.201  0.1965  0.2072  0.3860
 1907TIP3    H127356   1.153   5.010   8.235  0.8483  0.1308 -0.9679
 1907TIP3    H227357   1.066   5.035   8.114  0.6822  2.0462 -0.4948
 1908TIP3   OH227358   0.288   6.823   7.389  0.0446  0.5917  0.1131
 1908TIP3    H127359   0.379   6.836   7.363 -0.0422 -1.3406 -1.3167
 1908TIP3    H227360   0.282   6.865   7.475  2.3718  0.4276  0.4202
 1909TIP3   OH227361   4.665   3.607   8.388 -0.0304  0.1533 -0.3263
 1909TIP3    H127362   4.624   3.663   8.322  1.4945  0.3844 -1.1428
 1909TIP3    H227363   4.721   3.666   8.438  1.4083 -0.5482 -1.0391
 1910TIP3   OH227364   5.578   5.799   0.485  0.1072 -0.0517 -0.6486
 1910TIP3    H127365   5.579   5.704   0.500 -1.5840 -0.6227 -3.4997
 1910TIP3    H227366   5.670   5.822   0.470  0.5695 -1.1390  0.3096
 1911TIP3   OH227367   4.139   2.383   0.546  0.1446 -0.4404  0.0693
 1911TIP3    H127368   4.232   2.404   0.546 -0.0209  0.3085 -0.3635
 1911TIP3    H227369   4.109   2.407   0.458 -0.6746  0.2952  0.5483
 1912TIP3   OH227370   1.761   6.199   8.025  0.2348 -0.4319  0.0799
 1912TIP3    H127371   1.761   6.208   8.120 -1.9211 -1.3806  0.2350
 1912TIP3    H227372   1.853   6.187   8.002  0.7227 -1.1047  2.1559
 1913TIP3   OH227373   6.357   3.522   8.417  0.3703 -0.4685  0.7522
 1913TIP3    H127374   6.393   3.547   8.333  0.2398  2.1125  1.3978
 1913TIP3    H227375   6.281   3.578   8.430 -0.9039 -2.2743  1.6916
 1914TIP3   OH227376   1.736   4.738   8.514 -0.1545  0.1116  0.3831
 1914TIP3    H127377   1.670   4.702   8.454 -1.5596  3.4563 -0.2674
 1914TIP3    H227378   1.696   4.817   8.549  2.7203  1.1263  1.6740
 1915TIP3   OH227379   3.351   2.587   7.034  0.2344  0.9299 -0.1854
 1915TIP3    H127380   3.326   2.495   7.045  0.1682  0.7974 -1.3493
 1915TIP3    H227381   3.378   2.594   6.943 -3.8842  2.9471 -1.5238
 1916TIP3   OH227382   5.873   3.984   8.381 -0.4901  0.1218  0.0888
 1916TIP3    H127383   5.899   4.035   8.457 -1.3090  1.9068 -0.7689
 1916TIP3    H227384   5.955   3.956   8.341  0.0252  1.5119  0.1230
 1917TIP3   OH227385   2.274   6.451   1.224 -0.5482 -0.4252  0.1991
 1917TIP3    H127386   2.181   6.464   1.243 -0.7301  2.1311 -1.9360
 1917TIP3    H227387   2.279   6.445   1.129  1.5098 -0.4235  0.2525
 1918TIP3   OH227388   3.104   5.501   1.856  0.5484  0.1706  0.3039
 1918TIP3    H127389   3.065   5.514   1.770 -1.1962  0.4100  1.0824
 1918TIP3    H227390   3.151   5.417   1.849 -0.3236 -0.2504 -0.6226
 1919TIP3   OH227391   5.809   2.005   8.244 -0.1105  0.0466 -0.3078
 1919TIP3    H127392   5.899   1.977   8.231  0.6022  2.1999 -0.4226
 1919TIP3    H227393   5.789   2.060   8.168 -0.8420  1.1523  0.6482
 1920TIP3   OH227394   5.076   4.144   0.484  0.1988 -0.1385  0.3237
 1920TIP3    H127395   5.098   4.115   0.573  0.3973  1.0838  0.7042
 1920TIP3    H227396   5.025   4.224   0.498 -0.2137 -0.2200 -0.6665
 1921TIP3   OH227397   5.760   4.651   1.726  0.3237  0.8882 -0.4408
 1921TIP3    H127398   5.665   4.665   1.721 -0.1271 -2.0106 -1.9210
 1921TIP3    H227399   5.776   4.626   1.816 -0.1612  2.0263 -0.0094
 1922TIP3   OH227400   6.128   6.503   1.457 -0.9523 -0.3787 -0.3696
 1922TIP3    H127401   6.156   6.437   1.394  1.7373 -0.5543  0.8746
 1922TIP3    H227402   6.153   6.587   1.419  1.2846 -0.5225  0.6451
 1923TIP3   OH227403   3.391   6.454   6.712  0.1634  0.5731  0.1726
 1923TIP3    H127404   3.388   6.417   6.623 -2.0008 -0.1709  0.5116
 1923TIP3    H227405   3.475   6.423   6.747  0.4461 -0.2567 -1.1476
 1924TIP3   OH227406   5.855   2.851   2.351 -0.3282  0.2335  0.2689
 1924TIP3    H127407   5.924   2.868   2.287 -0.5907 -0.6530 -0.2717
 1924TIP3    H227408   5.868   2.759   2.376  1.4007  1.2428  3.4797
 1925TIP3   OH227409   1.812   6.336   7.628  0.1855 -0.0705 -0.2274
 1925TIP3    H127410   1.822   6.431   7.626  0.3668 -0.0883 -2.0248
 1925TIP3    H227411   1.900   6.303   7.647  1.1894  0.0955 -3.7570
 1926TIP3   OH227412   3.190   1.049   1.361 -0.3129 -0.1559 -0.7063
 1926TIP3    H127413   3.216   1.120   1.303 -1.9031  1.0787  0.0160
 1926TIP3    H227414   3.248   1.057   1.437 -0.9311  0.8050 -0.3300
 1927TIP3   OH227415   5.143   0.311   0.417 -0.7283  0.1762 -0.7548
 1927TIP3    H127416   5.149   0.390   0.364  3.8095  0.6213  0.0044
 1927TIP3    H227417   5.112   0.341   0.502  1.4550  1.4216 -0.3011
 1928TIP3   OH227418   4.519   1.556   0.844 -0.4246  0.8174  0.2628
 1928TIP3    H127419   4.490   1.553   0.935 -0.1884 -0.1586  0.3145
 1928TIP3    H227420   4.599   1.609   0.846  0.6488 -0.7630  0.9431
 1929TIP3   OH227421   0.680   0.810   0.003  0.1297 -0.1134 -0.1746
 1929TIP3    H127422   0.622   0.795  -0.072 -1.0228 -0.3489  0.7298
 1929TIP3    H227423   0.730   0.888  -0.020  0.4335 -0.6890 -1.5566
 1930TIP3   OH227424   4.104   0.477   0.422 -0.2222 -0.0375  0.3863
 1930TIP3    H127425   4.052   0.428   0.485  0.3242  0.0198  0.8880
 1930TIP3    H227426   4.089   0.432   0.339 -0.6674 -0.3277  0.6203
 1931TIP3   OH227427   0.609   2.032   7.692 -0.1399  0.2716  0.6833
 1931TIP3    H127428   0.535   1.972   7.679 -0.7216  1.3339 -1.3296
 1931TIP3    H227429   0.686   1.979   7.672 -0.4746 -0.3943  1.1178
 1932TIP3   OH227430   3.679   0.172   8.209  0.1028  0.0054 -0.4806
 1932TIP3    H127431   3.742   0.227   8.162 -0.5851  0.6245 -0.7031
 1932TIP3    H227432   3.664   0.098   8.151 -2.0932  1.6202 -2.1714
 1933TIP3   OH227433   5.528   0.706   8.520  0.1710 -0.7085  0.1331
 1933TIP3    H127434   5.436   0.680   8.521  0.3459 -1.3696  0.7492
 1933TIP3    H227435   5.572   0.638   8.571  0.6877  0.7426  1.7291
 1934TIP3   OH227436   4.621   2.637   6.846  0.4898 -0.6352  0.0782
 1934TIP3    H127437   4.677   2.561   6.827  0.9844  0.4398 -3.8724
 1934TIP3    H227438   4.675   2.712   6.822 -1.4355  0.6751 -0.3762
 1935TIP3   OH227439   3.786   4.742   0.293 -0.3434 -0.1710 -0.5834
 1935TIP3    H127440   3.788   4.739   0.389  1.6751 -1.2469 -0.6082
 1935TIP3    H227441   3.844   4.815   0.270  0.8726 -1.2474 -0.9965
 1936TIP3   OH227442   2.780   0.932   7.445  0.0126  0.1418 -0.6527
 1936TIP3    H127443   2.746   1.020   7.464  1.7629  0.9836 -1.1910
 1936TIP3    H227444   2.704   0.884   7.411 -0.9117  1.5321 -0.6435
 1937TIP3   OH227445   5.246   3.995   6.095 -0.2629  0.0302 -0.0652
 1937TIP3    H127446   5.257   3.932   6.167  0.1503  0.4575  0.2528
 1937TIP3    H227447   5.307   3.965   6.028  1.2207  1.0571  0.7689
 1938TIP3   OH227448   5.724   5.314   2.045 -0.8491 -0.1808  0.1904
 1938TIP3    H127449   5.804   5.353   2.081 -0.4764 -1.8998  1.3166
 1938TIP3    H227450   5.755   5.239   1.995 -1.7633 -0.9348  0.7392
 1939TIP3   OH227451   5.037   5.062   1.196  0.0930  0.4090 -0.0330
 1939TIP3    H127452   5.054   5.034   1.286  1.3904  0.0473 -0.3751
 1939TIP3    H227453   5.060   5.155   1.195  0.8300  0.2339 -0.1633
 1940TIP3   OH227454   0.197   5.254   1.117 -0.3810 -0.0346 -0.0142
 1940TIP3    H127455   0.277   5.305   1.107 -0.6725  0.2882 -0.8172
 1940TIP3    H227456   0.143   5.305   1.179 -1.3804  1.5864 -2.0781
 1941TIP3   OH227457   4.900   5.729   7.321 -1.0681  0.0622  0.1899
 1941TIP3    H127458   4.837   5.793   7.288 -0.1129  0.3431 -1.1724
 1941TIP3    H227459   4.875   5.647   7.277 -0.2163  0.2803 -0.7227
 1942TIP3   OH227460   1.184   2.433   6.197  0.1253  0.2365  0.3832
 1942TIP3    H127461   1.117   2.490   6.162  0.9649 -0.3141 -2.3403
 1942TIP3    H227462   1.265   2.484   6.191  0.5212 -0.4145  0.0613
 1943TIP3   OH227463   0.545   0.408   1.335  0.4327 -0.0359  0.2277
 1943TIP3    H127464   0.491   0.403   1.256  0.0539  0.6382  0.4338
 1943TIP3    H227465   0.551   0.502   1.354 -0.5629 -0.2407  1.7346
 1944TIP3   OH227466   4.666   6.211   0.528  0.6940  0.0689  0.6155
 1944TIP3    H127467   4.614   6.144   0.571 -0.1199  0.3764  0.1426
 1944TIP3    H227468   4.610   6.289   0.531  0.7978  0.2061 -0.5854
 1945TIP3   OH227469   6.667   0.336   7.018  0.2934  0.4205  1.0500
 1945TIP3    H127470   6.600   0.339   7.086 -0.2980  2.0383  0.4357
 1945TIP3    H227471   6.618   0.340   6.936  1.1066  1.3332  0.5855
 1946TIP3   OH227472   0.481   4.299   6.769 -0.0986 -0.2664  0.0254
 1946TIP3    H127473   0.424   4.222   6.777 -0.5884  0.0063 -0.7500
 1946TIP3    H227474   0.476   4.323   6.676 -2.6265  2.6842  0.7323
 1947TIP3   OH227475   2.785   3.191   0.853 -0.5078 -0.5943  0.0545
 1947TIP3    H127476   2.868   3.145   0.837 -0.1096  0.2954 -0.5324
 1947TIP3    H227477   2.802   3.281   0.824 -2.7467 -1.1391 -3.4399
 1948TIP3   OH227478   3.862   1.822   6.405 -0.2120 -0.1588  0.0057
 1948TIP3    H127479   3.850   1.731   6.378 -1.6436 -0.5481  1.7458
 1948TIP3    H227480   3.934   1.819   6.468 -0.2189 -0.0748  0.0180
 1949TIP3   OH227481   5.460   6.706   0.995 -0.2808 -0.4025 -0.1087
 1949TIP3    H127482   5.403   6.780   0.976 -1.0348 -1.1903 -1.0039
 1949TIP3    H227483   5.434   6.678   1.083 -1.6691 -1.0890 -0.7169
 1950TIP3   OH227484   1.919   4.354   7.710 -0.2153 -0.3435 -0.5433
 1950TIP3    H127485   1.827   4.362   7.684 -0.7582 -0.8968  1.0942
 1950TIP3    H227486   1.942   4.441   7.743  0.0533 -0.0371 -1.4984
 1951TIP3   OH227487   0.241   3.201   0.647  0.2136  0.1253  0.4198
 1951TIP3    H127488   0.318   3.224   0.595  0.7350 -0.7773  0.7879
 1951TIP3    H227489   0.177   3.270   0.625  1.1146  0.8938  0.1253
 1952TIP3   OH227490   5.684   5.834   0.172  0.1247  0.9764  0.0912
 1952TIP3    H127491   5.772   5.873   0.176 -0.1848  1.7060 -0.0845
 1952TIP3    H227492   5.627   5.900   0.211 -0.2088  0.0621  1.2118
 1953TIP3   OH227493   3.322   6.613   1.574 -0.7296  0.2168  0.2957
 1953TIP3    H127494   3.259   6.574   1.513  0.4861  1.8030 -2.1706
 1953TIP3    H227495   3.408   6.587   1.539  0.0133  1.1240  1.3841
 1954TIP3   OH227496   3.199   0.118   1.282 -0.1616  0.2188 -0.0836
 1954TIP3    H127497   3.186   0.152   1.370 -0.2093  2.2767 -0.8206
 1954TIP3    H227498   3.116   0.075   1.260  0.3327 -1.5415  1.3419
 1955TIP3   OH227499   1.063   4.516   8.791  0.0489  0.2032 -0.1198
 1955TIP3    H127500   0.969   4.509   8.803 -0.0725  1.3409 -0.3547
 1955TIP3    H227501   1.084   4.606   8.815  1.5954 -0.9093  3.3409
 1956TIP3   OH227502   4.394   4.352   1.309  0.1007 -0.5330  0.1854
 1956TIP3    H127503   4.314   4.331   1.358  0.8325  1.0798  2.2303
 1956TIP3    H227504   4.366   4.353   1.218 -1.7696 -1.8500  0.6633
 1957TIP3   OH227505   3.451   4.424   6.877  0.2108  0.0461  0.5532
 1957TIP3    H127506   3.457   4.335   6.841 -0.7763  0.4724 -0.7852
 1957TIP3    H227507   3.540   4.445   6.905  0.5562 -1.1815  0.4569
 1958TIP3   OH227508   4.164   3.037   6.549 -0.4923  0.3688 -0.3163
 1958TIP3    H127509   4.251   3.046   6.588 -0.7802 -0.0069  0.4310
 1958TIP3    H227510   4.180   3.044   6.454  0.2194  1.2331 -0.1442
 1959TIP3   OH227511   4.635   2.452   0.929 -0.2587  0.0830  0.3095
 1959TIP3    H127512   4.696   2.442   0.856 -1.7369  1.8672 -1.2639
 1959TIP3    H227513   4.690   2.476   1.003  1.0818  0.3578 -0.7354
 1960TIP3   OH227514   2.833   6.519   1.700 -0.7459 -0.3129 -0.2312
 1960TIP3    H127515   2.750   6.494   1.740 -1.1556  1.5258  0.1845
 1960TIP3    H227516   2.899   6.496   1.765 -1.2100  0.6525  0.6270
 1961TIP3   OH227517   3.633   6.181   6.589  0.3312 -0.4093  0.3566
 1961TIP3    H127518   3.696   6.243   6.552 -0.2097  0.3986  0.7514
 1961TIP3    H227519   3.653   6.098   6.546 -0.4184  0.5099 -1.9546
 1962TIP3   OH227520   0.436   0.546   0.765  0.3494 -0.5135  0.2233
 1962TIP3    H127521   0.520   0.544   0.719  0.0306  0.9885 -0.5071
 1962TIP3    H227522   0.370   0.536   0.696 -0.1096  0.4737  0.5026
 1963TIP3   OH227523   1.651   3.840   7.514 -0.5427  0.4130  0.1352
 1963TIP3    H127524   1.698   3.861   7.595 -0.8508  1.2572  0.1005
 1963TIP3    H227525   1.659   3.745   7.506  2.0363  0.6013 -0.3949
 1964TIP3   OH227526   4.981   0.308   7.735 -0.1329 -0.2579 -0.4414
 1964TIP3    H127527   5.056   0.258   7.769 -0.5387 -1.0313 -0.6501
 1964TIP3    H227528   4.937   0.247   7.676 -1.0032  0.1459 -0.2295
 1965TIP3   OH227529   1.846   4.206   7.929  0.3022  0.9086  0.1850
 1965TIP3    H127530   1.851   4.263   8.006 -1.2243  0.7921  0.4013
 1965TIP3    H227531   1.872   4.262   7.856  1.4402  1.1142  0.7331
 1966TIP3   OH227532   0.762   2.214   1.541 -0.0541 -0.1756 -0.3005
 1966TIP3    H127533   0.725   2.240   1.457 -0.4499  0.4404  0.0551
 1966TIP3    H227534   0.706   2.257   1.606  1.5092  1.0795  0.2553
 1967TIP3   OH227535   1.791   4.591   1.762  0.0829 -0.2194  0.3095
 1967TIP3    H127536   1.760   4.529   1.827 -1.5153  0.8587  0.6342
 1967TIP3    H227537   1.874   4.624   1.798  0.4679 -1.4462  0.5759
 1968TIP3   OH227538   0.210   3.848   7.897  0.0664  0.3310 -0.1134
 1968TIP3    H127539   0.301   3.820   7.902  0.1340  0.6942  0.9147
 1968TIP3    H227540   0.180   3.815   7.813  0.9137 -0.4988 -0.1158
 1969TIP3   OH227541   3.158   6.435   7.472 -0.1439  0.1102 -0.0281
 1969TIP3    H127542   3.128   6.375   7.540 -1.1794  0.1694 -0.4026
 1969TIP3    H227543   3.165   6.520   7.517  2.7408 -0.5139  0.8504
 1970TIP3   OH227544   3.086   6.528   1.441 -0.2868 -0.2130 -0.7700
 1970TIP3    H127545   2.994   6.547   1.424 -0.2023 -0.2352 -1.2495
 1970TIP3    H227546   3.129   6.538   1.357 -0.0328 -1.3016 -0.7920
 1971TIP3   OH227547   2.836   3.051   0.400  0.2058 -0.0734  0.2779
 1971TIP3    H127548   2.859   3.140   0.427 -1.0813  0.2774  0.2679
 1971TIP3    H227549   2.744   3.042   0.424 -0.2163 -0.7177 -1.4531
 1972TIP3   OH227550   1.588   4.204   7.206  0.5602  0.2508 -0.5927
 1972TIP3    H127551   1.507   4.240   7.242 -0.5191 -1.2446 -1.4339
 1972TIP3    H227552   1.635   4.170   7.282 -0.7268 -1.0065 -0.3287
 1973TIP3   OH227553   6.146   1.710   7.084 -0.8930 -0.1379 -0.5655
 1973TIP3    H127554   6.183   1.639   7.136 -2.1193 -0.5614 -0.2274
 1973TIP3    H227555   6.207   1.783   7.096  0.4407 -1.1430 -0.9920
 1974TIP3   OH227556   2.722   2.639   8.232 -0.2105 -0.1357  0.5135
 1974TIP3    H127557   2.630   2.619   8.220 -0.5456  0.7801  1.4031
 1974TIP3    H227558   2.767   2.589   8.164 -1.3438 -0.6662  0.1330
 1975TIP3   OH227559   5.340   3.309   7.217  0.2732  0.3426  0.0714
 1975TIP3    H127560   5.312   3.400   7.208  0.1824  0.5871  2.2048
 1975TIP3    H227561   5.435   3.314   7.230  0.0149  0.3717  2.3023
 1976TIP3   OH227562   3.690   0.480   7.068 -0.1114  0.4042  0.2686
 1976TIP3    H127563   3.651   0.422   7.134  1.0230 -0.6686  0.0432
 1976TIP3    H227564   3.623   0.547   7.052 -1.3237 -0.6264  0.8171
 1977TIP3   OH227565   1.990   1.569   6.853 -0.3929 -0.0219 -0.4560
 1977TIP3    H127566   2.085   1.566   6.836 -0.5294  1.4226 -1.7649
 1977TIP3    H227567   1.953   1.509   6.789 -0.3341 -1.0382  0.4506
 1978TIP3   OH227568   1.655   3.156   7.004 -0.5411  0.0385 -0.0988
 1978TIP3    H127569   1.576   3.203   6.978 -0.7754 -0.7440 -0.8754
 1978TIP3    H227570   1.691   3.206   7.077 -0.7161  1.4622 -0.9636
 1979TIP3   OH227571   5.926   6.013   2.430  0.5236 -0.0741  0.2993
 1979TIP3    H127572   5.977   5.989   2.353 -0.3703  2.0230 -1.0239
 1979TIP3    H227573   5.987   6.060   2.487  0.2909  1.7724 -0.9326
 1980TIP3   OH227574   1.339   2.790   8.321  0.1753 -0.3292 -0.5180
 1980TIP3    H127575   1.256   2.754   8.352 -0.3144 -0.0694 -1.4800
 1980TIP3    H227576   1.377   2.721   8.267 -0.9576  0.6507 -2.7002
 1981TIP3   OH227577   6.052   3.406   0.862  0.2691 -0.2202 -0.1283
 1981TIP3    H127578   6.040   3.494   0.897 -1.3515 -0.3829 -0.1857
 1981TIP3    H227579   6.146   3.397   0.849  0.6273  0.8953  1.4622
 1982TIP3   OH227580   2.067   6.429   7.398  0.5162 -0.5529 -0.0534
 1982TIP3    H127581   2.077   6.463   7.487 -1.9110 -0.5366  0.2634
 1982TIP3    H227582   2.138   6.470   7.349  0.6923  1.0288  1.4355
 1983TIP3   OH227583   3.574   2.683   6.857 -0.2148  0.4359  0.0505
 1983TIP3    H127584   3.556   2.652   6.768 -1.7118 -0.6480  0.6918
 1983TIP3    H227585   3.600   2.604   6.905 -0.5709  0.7910  0.8467
 1984TIP3   OH227586   1.628   5.774   1.947  0.6266  0.8329 -0.7477
 1984TIP3    H127587   1.696   5.706   1.944 -0.1441 -0.0154  0.1117
 1984TIP3    H227588   1.617   5.792   2.041 -0.0073  1.2890 -0.9011
 1985TIP3   OH227589   4.132   5.382   0.142 -0.2898  0.2735 -0.0853
 1985TIP3    H127590   4.192   5.439   0.190  1.1984  0.1974 -1.7643
 1985TIP3    H227591   4.095   5.438   0.074  1.4016 -0.7265 -1.9318
 1986TIP3   OH227592   6.470   1.819   7.146  0.2833  0.7406 -0.3299
 1986TIP3    H127593   6.514   1.739   7.116  0.6013  0.4153  0.9346
 1986TIP3    H227594   6.420   1.849   7.070 -0.0145 -0.7857 -0.7715
 1987TIP3   OH227595   5.738   0.330   6.690 -0.3416  0.2266 -0.0498
 1987TIP3    H127596   5.684   0.320   6.612  0.3148  2.1469 -0.8373
 1987TIP3    H227597   5.762   0.241   6.715 -1.4015 -0.4878 -1.4420
 1988TIP3   OH227598   2.960   5.997   0.855 -0.1925  0.2140 -0.3154
 1988TIP3    H127599   2.934   5.974   0.944  1.5819 -2.4330 -0.3769
 1988TIP3    H227600   3.045   6.040   0.866  0.2075 -0.4614 -0.7398
 1989TIP3   OH227601   2.208   4.221   7.960 -0.1335  0.2636  0.2084
 1989TIP3    H127602   2.128   4.169   7.973 -0.9871  1.3291 -0.5131
 1989TIP3    H227603   2.191   4.302   8.010  0.7573  0.2583  0.5258
 1990TIP3   OH227604   6.065   3.043   0.167 -0.3615 -0.2392  0.1339
 1990TIP3    H127605   6.105   3.029   0.253  0.2363  1.4617  0.1804
 1990TIP3    H227606   6.046   3.137   0.165 -4.0718 -0.8282 -0.0459
 1991TIP3   OH227607   4.748   2.228   7.151  0.1745  0.7396 -0.4789
 1991TIP3    H127608   4.702   2.285   7.213  0.7690  0.9835 -0.2466
 1991TIP3    H227609   4.792   2.164   7.207  0.8072  1.0278 -0.6319
 1992TIP3   OH227610   1.389   4.476   8.208  0.3920  0.0103  0.2428
 1992TIP3    H127611   1.394   4.402   8.148 -0.3904  1.5304 -1.8331
 1992TIP3    H227612   1.349   4.546   8.156 -0.4446  1.4078  2.6016
 1993TIP3   OH227613   5.694   2.902   1.501  0.1498 -0.0267  0.7050
 1993TIP3    H127614   5.737   2.851   1.432  0.3318 -0.7092  1.3122
 1993TIP3    H227615   5.604   2.913   1.471  0.3768  0.1783  0.0899
 1994TIP3   OH227616   5.947   3.392   1.334  0.2016  0.1347 -0.3433
 1994TIP3    H127617   5.889   3.361   1.403  1.0894 -0.3753  0.1888
 1994TIP3    H227618   5.979   3.313   1.292 -0.1225  0.4335 -1.1771
 1995TIP3   OH227619   5.398   5.156   1.861 -0.4721  0.4360 -0.7356
 1995TIP3    H127620   5.396   5.102   1.940  2.1545  0.4991 -0.5549
 1995TIP3    H227621   5.435   5.099   1.794  0.1586  1.2926 -1.1281
 1996TIP3   OH227622   4.463   5.071   8.075  0.2662  0.1322 -0.1148
 1996TIP3    H127623   4.407   5.030   8.142 -0.7035  0.3436 -0.7763
 1996TIP3    H227624   4.496   4.997   8.024  2.8302 -0.2575  1.8812
 1997TIP3   OH227625   1.837   5.987   0.607 -0.1143 -0.2651  0.1503
 1997TIP3    H127626   1.932   5.997   0.615 -0.1723  1.4349 -0.7901
 1997TIP3    H227627   1.816   6.021   0.520 -1.8868  2.2496  1.3953
 1998TIP3   OH227628   4.867   5.826   0.043  0.0579  0.1626  0.4561
 1998TIP3    H127629   4.867   5.913   0.004  1.2530  0.0677  0.1871
 1998TIP3    H227630   4.959   5.810   0.065  0.3655 -2.1570 -2.0531
 1999TIP3   OH227631   0.370   1.151   7.605  0.5120  0.1054  0.2471
 1999TIP3    H127632   0.426   1.074   7.606 -0.0103 -0.3117  2.2233
 1999TIP3    H227633   0.415   1.215   7.660  0.9634  1.2693 -1.4087
 2000TIP3   OH227634   3.134   2.070   8.721 -0.4324 -0.7617  0.5582
 2000TIP3    H127635   3.200   2.024   8.774  0.6003  0.1100  0.0750
 2000TIP3    H227636   3.185   2.129   8.665 -1.6295 -0.1401  0.0802
 2001TIP3   OH227637   1.803   1.445   2.323 -0.0313  0.1761  0.4805
 2001TIP3    H127638   1.755   1.407   2.397 -1.3521  1.0976  0.1362
 2001TIP3    H227639   1.803   1.376   2.257  1.8960 -0.9778  1.5755
 2002TIP3   OH227640   4.277   2.939   8.773 -1.1130 -0.2133  0.2322
 2002TIP3    H127641   4.288   2.901   8.860 -0.4790  1.4383  0.9209
 2002TIP3    H227642   4.191   2.981   8.777 -0.4103  1.2615  0.6696
 2003TIP3   OH227643   2.207   4.774   0.619  0.0759 -1.4061  0.3745
 2003TIP3    H127644   2.277   4.837   0.633  0.2462 -1.5632  0.2470
 2003TIP3    H227645   2.137   4.801   0.678 -0.6385  0.0810 -1.0840
 2004TIP3   OH227646   1.421   1.277   7.455  0.3632  0.2178  0.0729
 2004TIP3    H127647   1.398   1.290   7.547 -0.3010 -1.8505  0.2320
 2004TIP3    H227648   1.361   1.334   7.407  0.2633  0.8059  0.8741
 2005TIP3   OH227649   2.198   5.416   1.987  0.4302  0.0402  0.9237
 2005TIP3    H127650   2.189   5.401   2.082  3.2661 -3.2821  0.8761
 2005TIP3    H227651   2.289   5.442   1.976  0.7399 -1.6951 -1.0381
 2006TIP3   OH227652   4.553   5.328   0.035 -0.4074 -0.4450  0.1007
 2006TIP3    H127653   4.527   5.393  -0.031 -0.6703  1.0382  1.5868
 2006TIP3    H227654   4.648   5.321   0.025 -0.0613  1.7207  1.1692
 2007TIP3   OH227655   5.954   3.721   2.437  0.9497 -0.0836  0.0067
 2007TIP3    H127656   5.994   3.647   2.391  1.8638  0.2492  0.2345
 2007TIP3    H227657   5.900   3.764   2.371  0.2490 -1.0575 -0.0759
 2008TIP3   OH227658   4.581   0.994   0.487  0.0345 -0.0395  0.0484
 2008TIP3    H127659   4.488   1.016   0.485 -0.5608 -2.2933 -0.1350
 2008TIP3    H227660   4.592   0.945   0.569  1.1443  0.4357  0.2010
 2009TIP3   OH227661   3.936   6.049   0.880 -0.1148  0.2930  0.5446
 2009TIP3    H127662   3.866   5.990   0.854 -0.6411  0.1219  2.2006
 2009TIP3    H227663   4.002   6.042   0.811 -0.7376 -1.2442  0.0820
 2010TIP3   OH227664   2.739   6.235   1.876  0.1290 -0.1563 -0.4904
 2010TIP3    H127665   2.808   6.201   1.819  1.2046  0.1073  0.6218
 2010TIP3    H227666   2.769   6.216   1.965 -0.8024  0.7771  0.0498
 2011TIP3   OH227667   5.553   2.869   0.207 -0.4939 -0.0468 -0.4169
 2011TIP3    H127668   5.467   2.878   0.167  0.4608 -0.3814 -2.7454
 2011TIP3    H227669   5.613   2.861   0.132  1.6740  1.1417  1.0775
 2012TIP3   OH227670   0.268   5.191   8.051 -0.0809 -0.4261 -0.1933
 2012TIP3    H127671   0.245   5.099   8.066 -2.0888  0.3408  2.0852
 2012TIP3    H227672   0.228   5.213   7.967 -0.8618 -1.2522 -0.0480
 2013TIP3   OH227673   6.465   4.418   2.092  0.2812  0.1581 -0.3385
 2013TIP3    H127674   6.411   4.464   2.156  0.5791 -0.6441  0.4979
 2013TIP3    H227675   6.429   4.330   2.089  0.5419  0.0662 -0.9683
 2014TIP3   OH227676   1.396   6.357   1.836 -0.4857 -0.1950  0.0561
 2014TIP3    H127677   1.319   6.411   1.852  0.0766  0.4749  0.5920
 2014TIP3    H227678   1.404   6.353   1.741  0.1880  1.7796 -0.0279
 2015TIP3   OH227679   2.220   1.148   6.967  0.1799 -0.1505  0.4437
 2015TIP3    H127680   2.156   1.079   6.985 -0.6513 -0.3578 -2.6827
 2015TIP3    H227681   2.304   1.103   6.960 -0.1649 -0.6893 -0.3613
 2016TIP3   OH227682   4.025   5.060   6.824 -0.0070  0.3352 -0.2334
 2016TIP3    H127683   4.091   5.126   6.845  0.3119 -0.1395  0.2877
 2016TIP3    H227684   3.952   5.110   6.788  0.8921  0.8034 -1.4541
 2017TIP3   OH227685   3.638   2.188   0.425  0.5098  0.0841 -0.4329
 2017TIP3    H127686   3.602   2.103   0.402 -0.6024  0.1480  0.9126
 2017TIP3    H227687   3.720   2.169   0.471 -0.8303 -0.4484  1.8962
 2018TIP3   OH227688   4.220   4.964   0.302 -0.1747  0.3776 -0.1071
 2018TIP3    H127689   4.281   4.898   0.334 -0.5429 -1.5105 -2.9133
 2018TIP3    H227690   4.275   5.031   0.263  0.1549  0.9576  1.2874
 2019TIP3   OH227691   3.609   6.341   1.142 -0.1423  0.4352 -0.1283
 2019TIP3    H127692   3.657   6.309   1.066 -1.2861  0.3424 -0.8477
 2019TIP3    H227693   3.542   6.275   1.157  0.3565  0.2219  1.2742
 2020TIP3   OH227694   1.587   1.151   1.847 -0.1229  0.0277 -0.2704
 2020TIP3    H127695   1.624   1.097   1.916 -0.4160  1.2875  0.9312
 2020TIP3    H227696   1.637   1.233   1.851 -2.0607  1.2489  0.4780
 2021TIP3   OH227697   2.356   5.720   6.536 -0.0370 -0.4468 -0.4416
 2021TIP3    H127698   2.279   5.700   6.483 -0.7720  1.0134  0.0485
 2021TIP3    H227699   2.353   5.656   6.607 -1.6690  0.5370  0.4210
 2022TIP3   OH227700   3.296   1.855   0.855  0.5661  0.0010  0.7249
 2022TIP3    H127701   3.325   1.798   0.783 -1.1784 -0.6037  0.4686
 2022TIP3    H227702   3.374   1.906   0.877  2.3759 -2.7599  1.2602
 2023TIP3   OH227703   5.955   2.871   0.844 -0.4335  0.0354  0.2457
 2023TIP3    H127704   6.010   2.949   0.834 -0.5500 -0.1441 -2.7592
 2023TIP3    H227705   6.008   2.800   0.810 -1.5596 -0.6133 -0.1972
 2024TIP3   OH227706   2.995   1.499   7.419 -0.5054 -0.1696 -0.7491
 2024TIP3    H127707   3.082   1.483   7.456 -0.6033 -1.7511 -1.1285
 2024TIP3    H227708   3.004   1.582   7.372  1.4748 -1.3661 -2.6832
 2025TIP3   OH227709   3.116   4.949   8.333 -0.1415 -0.1168  0.3548
 2025TIP3    H127710   3.152   4.952   8.244 -3.3351  2.1712 -1.0258
 2025TIP3    H227711   3.119   5.039   8.363 -2.0665 -0.3201  1.2719
 2026TIP3   OH227712   5.728   0.021   8.368 -0.1413 -0.6310 -0.0599
 2026TIP3    H127713   5.799  -0.004   8.427 -0.3934 -1.4171 -0.0782
 2026TIP3    H227714   5.685   0.094   8.412  1.5585  0.8771 -0.7229
 2027TIP3   OH227715   2.308   3.892   0.089 -0.3862  0.2110  0.3673
 2027TIP3    H127716   2.322   3.911  -0.004 -0.4883 -0.3538  0.2315
 2027TIP3    H227717   2.220   3.925   0.107  0.1862  1.6811  0.6482
 2028TIP3   OH227718   5.717   0.664   8.759 -0.6884  0.0830 -0.1603
 2028TIP3    H127719   5.715   0.730   8.828  3.5786 -0.8143  1.1137
 2028TIP3    H227720   5.683   0.584   8.800 -0.6209  0.1850  0.0934
 2029TIP3   OH227721   1.284   2.234   8.792 -0.1574  0.5804 -0.0576
 2029TIP3    H127722   1.371   2.248   8.830  0.3084  3.7749 -1.9174
 2029TIP3    H227723   1.302   2.203   8.703 -0.9555  0.1905 -0.0880
 2030TIP3   OH227724   0.359   6.128   1.272  0.1825  0.4032 -0.2985
 2030TIP3    H127725   0.423   6.158   1.337  0.8524 -0.0582 -0.7267
 2030TIP3    H227726   0.361   6.195   1.204  1.3893 -0.3872 -1.0671
 2031TIP3   OH227727   1.896   6.023   8.465  0.0735  0.2079  0.5519
 2031TIP3    H127728   1.862   5.937   8.442  2.1174 -0.5743  0.2669
 2031TIP3    H227729   1.893   6.026   8.561 -1.1629  0.3448  0.5197
 2032TIP3   OH227730   6.621   3.994   1.735 -0.0449  0.1157  0.1345
 2032TIP3    H127731   6.548   3.973   1.677  0.4583  0.5917 -0.6740
 2032TIP3    H227732   6.580   4.040   1.809 -0.5676  0.3402 -0.2891
 2033TIP3   OH227733   4.387   2.743   6.828 -0.2066  0.0986  0.1567
 2033TIP3    H127734   4.470   2.698   6.839 -0.7647 -1.2530 -0.8441
 2033TIP3    H227735   4.354   2.754   6.917  0.2739 -0.8628  0.4649
 2034TIP3   OH227736   1.849   1.942   7.280 -0.4263 -0.9256 -0.1168
 2034TIP3    H127737   1.833   1.919   7.188 -0.7115  0.3512 -0.4035
 2034TIP3    H227738   1.769   1.914   7.326 -1.1524  0.2645 -0.6089
 2035TIP3   OH227739   3.974   4.499   2.334 -0.0557  0.4023  0.0792
 2035TIP3    H127740   4.051   4.521   2.387  0.3718 -0.2148 -0.2732
 2035TIP3    H227741   3.920   4.445   2.391 -0.0413  0.5057  0.1915
 2036TIP3   OH227742   4.885   2.306   0.380  0.4010  0.0252 -0.4199
 2036TIP3    H127743   4.846   2.393   0.390 -0.5465 -0.4342  0.0059
 2036TIP3    H227744   4.907   2.300   0.287 -1.2231  0.0380 -0.8317
 2037TIP3   OH227745   4.643   5.676   0.019 -0.6175  0.5701  0.4331
 2037TIP3    H127746   4.724   5.727   0.018  0.3489 -0.8981 -0.3407
 2037TIP3    H227747   4.628   5.653  -0.073 -0.0821 -1.8736  0.8884
 2038TIP3   OH227748   1.035   2.280   6.891 -0.0380  0.1213 -0.6459
 2038TIP3    H127749   0.973   2.223   6.937  0.3068  1.3688  1.4801
 2038TIP3    H227750   0.980   2.346   6.849 -0.2353  0.4840  0.1675
 2039TIP3   OH227751   2.375   1.360   7.919  0.2269  0.0714 -0.0134
 2039TIP3    H127752   2.387   1.444   7.962  0.8901 -0.5715  1.1248
 2039TIP3    H227753   2.281   1.343   7.923  0.3795 -0.5658  2.4534
 2040TIP3   OH227754   0.249   0.541   8.249  0.0975  0.7327 -0.3571
 2040TIP3    H127755   0.165   0.522   8.290  0.9742 -1.5221  0.5531
 2040TIP3    H227756   0.297   0.590   8.316  0.2574  0.1145 -0.0034
 2041TIP3   OH227757   4.747   0.746   0.436  0.4442 -0.3763 -0.2383
 2041TIP3    H127758   4.741   0.796   0.517  2.8594 -0.5195  0.0904
 2041TIP3    H227759   4.659   0.751   0.399 -0.5853  0.1594  2.0864
 2042TIP3   OH227760   0.506   2.747   7.676  0.0597  0.0192  0.2930
 2042TIP3    H127761   0.438   2.790   7.623  2.1672  1.8847 -1.0712
 2042TIP3    H227762   0.522   2.664   7.630 -1.0093 -0.2991  0.4484
 2043TIP3   OH227763   0.666   4.122   0.128 -0.1029  0.2664 -0.0956
 2043TIP3    H127764   0.718   4.134   0.048 -1.7399  0.3373 -1.1835
 2043TIP3    H227765   0.675   4.028   0.148 -1.0473 -0.1237 -1.3640
 2044TIP3   OH227766   0.869   2.206   1.222 -0.7139  0.2578  0.0044
 2044TIP3    H127767   0.856   2.124   1.269  2.7616 -1.0217 -0.9964
 2044TIP3    H227768   0.848   2.185   1.131 -1.3145  0.9643 -0.0347
 2045TIP3   OH227769   5.456   3.152   1.761 -0.0346  0.0972  0.5862
 2045TIP3    H127770   5.398   3.219   1.726  1.1590  0.2927 -1.1271
 2045TIP3    H227771   5.406   3.071   1.754  0.0094  0.1769 -1.3855
 2046TIP3   OH227772   5.141   5.326   1.164 -0.3821  0.1826 -0.0569
 2046TIP3    H127773   5.108   5.376   1.089 -1.0086  0.2403  0.2476
 2046TIP3    H227774   5.200   5.386   1.208 -2.1348  1.1767  1.0571
 2047TIP3   OH227775   1.584   2.878   0.090 -0.5470  0.8517 -0.4278
 2047TIP3    H127776   1.632   2.921   0.160 -2.3929  2.6045 -0.1582
 2047TIP3    H227777   1.652   2.848   0.029  1.0564 -0.1724  1.7458
 2048TIP3   OH227778   0.815   6.573   0.120  0.2443 -0.1450 -0.0236
 2048TIP3    H127779   0.723   6.601   0.120  0.3091  0.1438 -1.3914
 2048TIP3    H227780   0.863   6.650   0.149  0.0572 -0.2866  0.6676
 2049TIP3   OH227781   6.391   6.810   1.268 -0.4985  0.4345  0.4883
 2049TIP3    H127782   6.458   6.743   1.287  0.2255  0.9923 -0.0419
 2049TIP3    H227783   6.422   6.888   1.314  0.4444  1.3562 -1.5725
 2050TIP3   OH227784   6.662   2.440   8.377  0.0059  0.8423  0.6638
 2050TIP3    H127785   6.724   2.409   8.443 -0.2135  0.4337  0.6824
 2050TIP3    H227786   6.687   2.531   8.361  0.0126  0.9721  1.3714
 2051TIP3   OH227787   2.766   5.343   2.501 -0.5176  0.8067 -0.7536
 2051TIP3    H127788   2.803   5.258   2.524  3.1129  2.5504  0.6770
 2051TIP3    H227789   2.671   5.329   2.502 -0.1508 -2.7627  1.2544
 2052TIP3   OH227790   4.156   2.786   1.003  0.0873  0.9151  0.2654
 2052TIP3    H127791   4.140   2.829   0.919  2.9704  0.4725 -0.6209
 2052TIP3    H227792   4.105   2.705   0.998 -0.3685  1.2439 -0.7605
 2053TIP3   OH227793   2.242   4.564   2.100  0.0625 -0.6668  0.4188
 2053TIP3    H127794   2.186   4.633   2.136  0.6970  0.8534 -1.3324
 2053TIP3    H227795   2.315   4.557   2.162  0.4376  0.8915  0.1855
 2054TIP3   OH227796   6.709   2.663   7.129  0.5890  0.0135 -0.3951
 2054TIP3    H127797   6.782   2.604   7.141  0.0013 -0.5887  0.3073
 2054TIP3    H227798   6.725   2.704   7.044  1.6449 -0.2221 -0.3214
 2055TIP3   OH227799   4.208   5.527   8.553 -0.2145 -0.1293 -0.2958
 2055TIP3    H127800   4.193   5.460   8.487 -2.3421  1.3929 -1.4722
 2055TIP3    H227801   4.135   5.517   8.615  1.1775 -0.8620  1.3089
 2056TIP3   OH227802   5.011   3.047   6.708 -0.2693 -0.2455  0.7245
 2056TIP3    H127803   4.953   3.052   6.632 -0.9282  1.1616  1.2844
 2056TIP3    H227804   5.089   3.001   6.676 -0.4625  0.4525 -0.8381
 2057TIP3   OH227805   2.537   3.531   8.306 -0.2749  0.0546 -0.4998
 2057TIP3    H127806   2.477   3.501   8.374 -1.9075 -1.5746 -2.5587
 2057TIP3    H227807   2.534   3.626   8.312 -2.4120  0.0019  0.0461
 2058TIP3   OH227808   1.939   3.752   7.461 -0.4714  0.2282 -0.5613
 2058TIP3    H127809   1.919   3.824   7.521  0.9114  1.1301 -1.1132
 2058TIP3    H227810   1.857   3.703   7.453 -1.4728  1.7707 -0.1959
 2059TIP3   OH227811   6.192   5.550   7.914 -0.1585  0.1390  0.4874
 2059TIP3    H127812   6.107   5.569   7.953 -0.2776  1.4642 -0.3636
 2059TIP3    H227813   6.254   5.560   7.986 -0.5721  0.6849  0.7755
 2060TIP3   OH227814   4.093   0.495   7.947  0.0738  0.8770  0.0823
 2060TIP3    H127815   4.114   0.461   7.860  2.2512  0.4036  0.7459
 2060TIP3    H227816   4.059   0.583   7.930 -1.7431 -0.0187 -1.3720
 2061TIP3   OH227817   6.696   0.751   6.491  0.0153 -0.5473  0.0161
 2061TIP3    H127818   6.624   0.699   6.526  1.2910 -1.9559  0.6418
 2061TIP3    H227819   6.733   0.797   6.566 -1.2579  1.5778 -0.5616
 2062TIP3   OH227820   6.123   4.477   1.140  0.3195 -0.3318  0.3611
 2062TIP3    H127821   6.036   4.439   1.148  0.5546 -0.6950  1.2800
 2062TIP3    H227822   6.182   4.402   1.137  0.6608 -0.0710  0.4762
 2063TIP3   OH227823   4.396   0.472   8.746 -0.1560  0.4482 -0.3397
 2063TIP3    H127824   4.351   0.436   8.823 -0.9951  0.0200 -1.0116
 2063TIP3    H227825   4.479   0.425   8.742  2.1785  3.6840  3.0108
 2064TIP3   OH227826   1.381   3.054   1.182 -0.0739 -0.5168 -0.3228
 2064TIP3    H127827   1.363   3.025   1.093  0.5936  0.2046 -0.7040
 2064TIP3    H227828   1.475   3.069   1.184  0.0767 -1.3894  0.7771
 2065TIP3   OH227829   0.043   4.941   0.235  0.2514 -0.2450  0.6988
 2065TIP3    H127830   0.129   4.902   0.215  0.3082  0.1670  0.1148
 2065TIP3    H227831   0.018   4.985   0.154 -0.2254  0.1754  1.0753
 2066TIP3   OH227832   5.040   4.371   6.599  0.7236 -0.1211 -0.4512
 2066TIP3    H127833   5.057   4.433   6.669  1.6165  0.4299 -1.1427
 2066TIP3    H227834   5.106   4.303   6.610 -0.2364 -0.9765  0.2919
 2067TIP3   OH227835   4.622   3.612   7.696  0.3389  0.0870  0.2420
 2067TIP3    H127836   4.692   3.606   7.761  1.0561  2.6330 -0.1826
 2067TIP3    H227837   4.543   3.585   7.743  1.4206 -2.2583  0.9078
 2068TIP3   OH227838   4.213   2.067   1.332 -0.5770  0.1995  0.6479
 2068TIP3    H127839   4.131   2.112   1.348  0.3137  1.7192  1.1994
 2068TIP3    H227840   4.257   2.120   1.266  0.6637  0.3923  1.5844
 2069TIP3   OH227841   3.847   1.684   7.281  0.0305  1.1223 -0.2356
 2069TIP3    H127842   3.911   1.696   7.211 -0.1745  0.4686 -0.5386
 2069TIP3    H227843   3.900   1.673   7.360  0.3669 -0.9336 -0.7022
 2070TIP3   OH227844   0.683   4.177   7.869  0.1461 -0.0250 -0.0211
 2070TIP3    H127845   0.606   4.212   7.824 -0.9392  0.0776  1.8293
 2070TIP3    H227846   0.707   4.100   7.818 -0.3545  0.6838 -1.3904
 2071TIP3   OH227847   4.027   6.735   0.981 -0.4717  0.1440  0.2806
 2071TIP3    H127848   4.099   6.775   1.031  0.0532  0.4963 -0.7188
 2071TIP3    H227849   3.980   6.810   0.943  1.0107 -0.1114 -2.2832
 2072TIP3   OH227850   3.400   0.925   0.406 -0.0280  0.2483 -0.3931
 2072TIP3    H127851   3.407   1.002   0.462  0.2839 -0.7536  1.0135
 2072TIP3    H227852   3.484   0.920   0.361 -0.0032  0.6618 -0.3894
 2073TIP3   OH227853   1.235   1.425   1.479 -0.1464  0.1294  0.2385
 2073TIP3    H127854   1.218   1.519   1.476 -0.3678  0.0801 -0.1041
 2073TIP3    H227855   1.314   1.413   1.427  1.2427  0.4111  2.1682
 2074TIP3   OH227856   3.855   2.342   8.235  0.3794  0.5571  0.1434
 2074TIP3    H127857   3.884   2.308   8.150 -2.0895 -1.1063 -0.1248
 2074TIP3    H227858   3.859   2.437   8.225  1.2937  0.4022 -1.3784
 2075TIP3   OH227859   2.415   2.718   6.187  0.1897 -0.5496  0.0491
 2075TIP3    H127860   2.432   2.745   6.096  0.1449 -2.2568 -0.4880
 2075TIP3    H227861   2.500   2.722   6.229  0.1968  0.3448 -0.0127
 2076TIP3   OH227862   5.193   6.534   0.531  0.5559 -0.5805 -0.1979
 2076TIP3    H127863   5.207   6.547   0.625 -0.0012  0.0256 -0.1898
 2076TIP3    H227864   5.279   6.551   0.491  0.4952  0.4705  0.0884
 2077TIP3   OH227865   0.140   1.099   7.917  0.0968 -0.1602 -0.0132
 2077TIP3    H127866   0.175   1.155   7.848  2.4625 -0.2445  1.0303
 2077TIP3    H227867   0.141   1.011   7.880 -1.7565  0.1745 -0.9627
 2078TIP3   OH227868   0.046   5.788   7.805 -0.7612  0.7507 -0.2920
 2078TIP3    H127869   0.130   5.745   7.790 -2.1521 -1.7951 -1.5521
 2078TIP3    H227870   0.026   5.832   7.723  0.2378  3.1890  0.7015
 2079TIP3   OH227871   3.500   1.936   0.444 -0.2827  0.6346 -0.1552
 2079TIP3    H127872   3.481   1.912   0.535 -3.3812  0.6080 -0.7075
 2079TIP3    H227873   3.561   1.869   0.414  0.7472  0.5984  1.8404
 2080TIP3   OH227874   2.048   5.930   6.388  0.1443  0.2562  0.1291
 2080TIP3    H127875   1.984   5.859   6.383 -0.1462  0.5102  0.1983
 2080TIP3    H227876   2.008   5.993   6.448  0.9382 -0.0802  1.0469
 2081TIP3   OH227877   0.279   6.723   0.151 -0.1364  0.0658  0.3123
 2081TIP3    H127878   0.294   6.672   0.230 -0.1458  0.5015  0.5989
 2081TIP3    H227879   0.325   6.806   0.166  1.0215 -0.3648 -0.7047
 2082TIP3   OH227880   3.165   1.917   7.485 -0.0217 -0.2000 -0.7704
 2082TIP3    H127881   3.195   2.007   7.492  0.2067 -0.3165 -0.1759
 2082TIP3    H227882   3.236   1.865   7.521 -0.8743 -0.4925  0.5425
 2083TIP3   OH227883   4.321   0.283   8.530 -0.6102 -0.5304  0.7783
 2083TIP3    H127884   4.294   0.373   8.513 -1.1493 -0.8491 -0.1120
 2083TIP3    H227885   4.333   0.279   8.625 -0.9870  0.3644  0.8722
 2084TIP3   OH227886   1.111   0.372   8.535  0.5300 -0.8147  0.3258
 2084TIP3    H127887   1.195   0.394   8.575 -0.1297  1.3603  0.6418
 2084TIP3    H227888   1.048   0.374   8.607  0.1300 -2.1087  0.0400
 2085TIP3   OH227889   0.245   2.075   7.843  0.1707 -0.5917 -0.0170
 2085TIP3    H127890   0.161   2.062   7.887  0.5296  0.3472  1.0021
 2085TIP3    H227891   0.228   2.144   7.779  0.0461 -0.7529 -0.1576
 2086TIP3   OH227892   6.541   2.427   2.284  0.5118 -0.4319 -1.1050
 2086TIP3    H127893   6.599   2.420   2.361  0.7533  2.0945 -0.9490
 2086TIP3    H227894   6.469   2.482   2.314 -0.6411 -1.3811 -2.0558
 2087TIP3   OH227895   0.386   5.457   7.611  0.5308  0.2724 -0.1853
 2087TIP3    H127896   0.342   5.488   7.532  1.9869  0.1681 -1.0815
 2087TIP3    H227897   0.390   5.362   7.601  1.4844  0.3235 -0.4395
 2088TIP3   OH227898   1.611   3.888   2.301  0.5581 -0.3691  0.3712
 2088TIP3    H127899   1.700   3.906   2.271 -0.0107  1.1292 -0.5216
 2088TIP3    H227900   1.596   3.796   2.278  1.7550 -0.5537  0.2557
 2089TIP3   OH227901   0.157   6.234   6.749 -0.1861 -0.0244 -0.3691
 2089TIP3    H127902   0.085   6.239   6.685  0.9001  1.9035 -1.5164
 2089TIP3    H227903   0.188   6.324   6.757  1.5420 -0.6810  0.7776
 2090TIP3   OH227904   4.471   5.768   8.229  0.1273  0.4954 -0.1781
 2090TIP3    H127905   4.557   5.810   8.230  0.8785 -0.9571 -0.2302
 2090TIP3    H227906   4.409   5.839   8.244  1.3368  1.5710 -0.0811
 2091TIP3   OH227907   6.186   3.608   0.307 -0.6939  0.1941 -0.2555
 2091TIP3    H127908   6.097   3.629   0.278 -0.2504  0.0839 -1.8368
 2091TIP3    H227909   6.243   3.655   0.245  0.3408 -0.1059  0.4419
 2092TIP3   OH227910   0.066   4.459   0.240  0.6902 -0.0143  0.6449
 2092TIP3    H127911  -0.018   4.472   0.196  0.9889  1.3873  0.4234
 2092TIP3    H227912   0.058   4.375   0.284 -0.2898 -0.5912 -0.5773
 2093TIP3   OH227913   1.154   1.424   6.706 -0.5395  0.7661  0.2644
 2093TIP3    H127914   1.139   1.519   6.711 -2.8186  0.4210  1.3880
 2093TIP3    H227915   1.168   1.407   6.613 -0.2202  2.1782  0.0247
 2094TIP3   OH227916   5.773   2.958   7.470 -0.3817  0.4414  0.3075
 2094TIP3    H127917   5.788   3.052   7.459 -1.0052  0.3532 -1.8571
 2094TIP3    H227918   5.844   2.929   7.528  2.5176  1.5413 -2.3550
 2095TIP3   OH227919   1.829   4.054   6.619 -0.1153  0.4092  0.5746
 2095TIP3    H127920   1.846   4.145   6.593  0.8244 -0.2447 -1.2944
 2095TIP3    H227921   1.751   4.030   6.570 -0.9459  0.4817  1.8310
 2096TIP3   OH227922   3.959   0.490   2.012 -0.2530 -0.4453 -0.0973
 2096TIP3    H127923   3.958   0.557   1.944 -1.6090 -1.5723 -1.2234
 2096TIP3    H227924   3.959   0.540   2.094  0.6332  0.9246 -0.8943
 2097TIP3   OH227925   1.222   6.107   2.228  0.1870 -1.2237 -0.0965
 2097TIP3    H127926   1.182   6.192   2.245  1.5054 -0.5502 -0.2828
 2097TIP3    H227927   1.251   6.077   2.314  1.7331 -0.4366 -0.3203
 2098TIP3   OH227928   5.358   3.014   2.309 -0.0486 -0.0782  0.4429
 2098TIP3    H127929   5.424   2.948   2.331  1.5590  1.4905  0.5693
 2098TIP3    H227930   5.366   3.080   2.378  0.5867  1.7542 -1.2693
 2099TIP3   OH227931   5.045   5.922   0.373 -0.6592 -0.5327  0.2820
 2099TIP3    H127932   5.127   5.909   0.422  0.1063  1.9139 -0.1707
 2099TIP3    H227933   4.986   5.962   0.437  0.1977  2.2530 -0.4968
 2100TIP3   OH227934   2.474   4.658   0.734  0.2486  0.1314  0.0808
 2100TIP3    H127935   2.397   4.670   0.790  0.5081 -0.3150  0.5449
 2100TIP3    H227936   2.523   4.740   0.743  0.1824  0.1454  0.3486
 2101TIP3   OH227937   3.717   0.530   2.350  0.1048  0.1237 -0.3529
 2101TIP3    H127938   3.694   0.439   2.371  0.8970 -0.0784 -0.3449
 2101TIP3    H227939   3.671   0.581   2.417  0.2067 -0.3182  0.0656
 2102TIP3   OH227940   2.984   0.193   0.674 -0.5779 -0.0026  0.3493
 2102TIP3    H127941   2.996   0.243   0.593  0.8369 -2.7025 -1.2559
 2102TIP3    H227942   3.072   0.182   0.709 -1.0484  0.0359  1.5818
 2103TIP3   OH227943   4.993   5.546   0.505  0.2638  0.2180 -0.3080
 2103TIP3    H127944   5.003   5.620   0.564  1.2273 -0.3978  0.3376
 2103TIP3    H227945   4.908   5.508   0.528 -0.9826  1.9773 -1.6884
 2104TIP3   OH227946   5.953   3.587   8.214  0.4038  0.4560  0.1124
 2104TIP3    H127947   6.007   3.641   8.156 -0.0150 -0.2425 -0.9540
 2104TIP3    H227948   5.946   3.503   8.169  0.1554 -0.1447  1.2410
 2105TIP3   OH227949   3.268   1.388   0.945 -0.4801  0.1267  0.3693
 2105TIP3    H127950   3.200   1.431   0.998 -0.5420 -0.9204  1.1709
 2105TIP3    H227951   3.262   1.431   0.860 -1.9979  0.2162  0.4902
 2106TIP3   OH227952   2.731   3.817   7.687  0.2219 -0.5506  0.2353
 2106TIP3    H127953   2.714   3.867   7.767  2.8481 -1.1973  1.2972
 2106TIP3    H227954   2.806   3.761   7.708 -0.0194 -1.9574 -2.1873
 2107TIP3   OH227955   2.974   3.725   8.790 -0.4524 -0.2907 -0.4582
 2107TIP3    H127956   2.924   3.785   8.735 -2.1438 -1.8094 -0.6971
 2107TIP3    H227957   3.027   3.674   8.729  0.8041  0.7716 -0.2765
 2108TIP3   OH227958   4.489   4.935   1.561  0.7011  0.1313 -0.3862
 2108TIP3    H127959   4.437   5.014   1.549 -0.4783 -0.7040 -1.0156
 2108TIP3    H227960   4.560   4.961   1.620 -0.4488  1.3072  0.5400
 2109TIP3   OH227961   0.546   1.141   8.469  0.0054  0.1645  0.5977
 2109TIP3    H127962   0.537   1.084   8.544  1.0710  0.4412  0.9475
 2109TIP3    H227963   0.604   1.094   8.409 -0.3862  0.1910  0.1920
 2110TIP3   OH227964   4.912   3.869   8.323 -0.3689  0.0516 -0.2610
 2110TIP3    H127965   4.885   3.808   8.391  0.1893 -0.7880 -0.7667
 2110TIP3    H227966   4.983   3.823   8.277  0.1187  1.1177 -0.6006
 2111TIP3   OH227967   1.938   0.615   8.805  0.1671 -0.1779  0.2586
 2111TIP3    H127968   1.883   0.680   8.848  0.2808  1.1981 -1.5602
 2111TIP3    H227969   1.888   0.587   8.728  2.0329  1.3786 -1.6609
 2112TIP3   OH227970   4.618   6.502   2.086  0.5098 -0.0414 -0.1729
 2112TIP3    H127971   4.565   6.520   2.008 -0.7364 -0.1283  0.6217
 2112TIP3    H227972   4.642   6.589   2.119 -1.2243  0.1121  0.8117
 2113TIP3   OH227973   0.763   5.279   7.994  0.5037  0.3609 -0.0234
 2113TIP3    H127974   0.793   5.307   8.080 -0.0263  2.4605 -0.4659
 2113TIP3    H227975   0.814   5.332   7.933  2.0888 -2.2681 -1.1310
 2114TIP3   OH227976   2.362   0.079   1.517  0.0805  0.4068 -0.0936
 2114TIP3    H127977   2.425   0.007   1.527  0.2916  0.7507  1.3635
 2114TIP3    H227978   2.417   0.157   1.506  0.0326  0.9084  2.5263
 2115TIP3   OH227979   4.524   4.017   0.554  0.1930 -0.3115  0.1679
 2115TIP3    H127980   4.566   4.092   0.511  1.6264 -0.5306  1.1452
 2115TIP3    H227981   4.434   4.047   0.571 -0.1166  0.1540 -1.9880
 2116TIP3   OH227982   1.727   2.750   7.348  0.0743 -0.2080 -0.2596
 2116TIP3    H127983   1.753   2.794   7.268 -0.2540  1.4160  0.4889
 2116TIP3    H227984   1.702   2.821   7.408  2.3067 -1.2028  2.0106
 2117TIP3   OH227985   3.953   3.040   0.898  0.0253  0.0614  0.6281
 2117TIP3    H127986   3.958   3.128   0.860 -1.1847 -0.8951 -1.9958
 2117TIP3    H227987   3.866   3.035   0.937  0.0989  0.0158  0.7895
 2118TIP3   OH227988   4.065   0.676   8.602 -0.2931  0.1514 -0.6537
 2118TIP3    H127989   4.121   0.721   8.665 -0.3633  1.8778 -1.7810
 2118TIP3    H227990   4.126   0.638   8.539 -0.3145  1.2063 -1.3368
 2119TIP3   OH227991   3.362   6.828   0.141  0.6780  0.2137  0.1324
 2119TIP3    H127992   3.307   6.897   0.103  0.7723  0.1270 -0.1605
 2119TIP3    H227993   3.386   6.773   0.067  1.9904  0.8123  0.0956
 2120TIP3   OH227994   6.280   1.447   1.817  0.0911  0.8245  0.2065
 2120TIP3    H127995   6.279   1.408   1.904  1.4185  1.4700  0.5357
 2120TIP3    H227996   6.228   1.526   1.825 -0.3024  0.5653  0.2459
 2121TIP3   OH227997   5.150   4.814   0.370 -0.0906 -0.0671 -0.3640
 2121TIP3    H127998   5.173   4.827   0.462  1.1664  0.8531 -0.7918
 2121TIP3    H227999   5.055   4.823   0.368 -0.0202  1.2194  0.6443
 2122TIP3   OH228000   3.441   6.404   2.319 -0.7046  0.3624  0.2558
 2122TIP3    H128001   3.359   6.446   2.344  0.1839  1.6268  1.1683
 2122TIP3    H228002   3.478   6.461   2.251 -0.5715 -0.2018 -0.1540
 2123TIP3   OH228003   3.801   0.717   2.137 -0.3233 -0.0910 -0.0057
 2123TIP3    H128004   3.779   0.660   2.211 -0.1911  0.9245  0.8354
 2123TIP3    H228005   3.737   0.694   2.069 -0.3838 -1.1060  0.3835
 2124TIP3   OH228006   0.662   5.574   1.522 -0.0267 -0.6004 -0.0453
 2124TIP3    H128007   0.627   5.642   1.464 -0.0470 -1.1823 -0.7286
 2124TIP3    H228008   0.677   5.619   1.605 -0.4686  0.1332 -0.3515
 2125TIP3   OH228009   5.480   5.936   7.683 -0.3780 -0.2339 -0.1117
 2125TIP3    H128010   5.404   5.984   7.716  1.2344  2.7183 -0.2928
 2125TIP3    H228011   5.466   5.932   7.588  0.2408  1.5928 -0.3335
 2126TIP3   OH228012   5.618   0.398   1.831 -0.1067 -0.2411 -0.0857
 2126TIP3    H128013   5.645   0.358   1.914 -4.1602 -1.2457  0.9961
 2126TIP3    H228014   5.697   0.396   1.777  2.2097 -1.4844  2.9798
 2127TIP3   OH228015   3.919   3.292   8.022  0.1618 -0.3955  0.0439
 2127TIP3    H128016   3.991   3.308   8.083 -0.5326  2.5581  0.2650
 2127TIP3    H228017   3.961   3.288   7.936  0.6411  1.9209  0.0936
 2128TIP3   OH228018   1.759   6.075   1.055 -0.1433 -0.5615 -0.2340
 2128TIP3    H128019   1.733   6.151   1.002  0.0019  0.8295  1.5739
 2128TIP3    H228020   1.680   6.021   1.061 -1.6803  1.7198  2.0967
 2129TIP3   OH228021   4.896   6.790   6.868  0.6432 -0.0234 -0.4277
 2129TIP3    H128022   4.874   6.783   6.961 -0.6859 -0.3137 -0.7406
 2129TIP3    H228023   4.825   6.843   6.831  1.3571  0.4122 -1.2209
 2130TIP3   OH228024   3.766   5.639   1.606 -0.4777 -0.2417 -0.0805
 2130TIP3    H128025   3.685   5.599   1.636  0.2488 -0.3096  1.9044
 2130TIP3    H228026   3.834   5.575   1.628  0.5170  1.3365  1.6524
 2131TIP3   OH228027   5.566   2.769   8.757 -0.0400 -0.5511  0.4316
 2131TIP3    H128028   5.508   2.716   8.812  0.6211 -0.9945  0.7067
 2131TIP3    H228029   5.648   2.721   8.754  0.1571 -0.1842 -0.3877
 2132TIP3   OH228030   6.311   0.948   0.306 -0.0576 -0.2233 -0.2406
 2132TIP3    H128031   6.285   0.976   0.394  1.0533  2.2809 -0.6114
 2132TIP3    H228032   6.370   0.875   0.321 -0.5271 -0.3732  1.0388
 2133TIP3   OH228033   1.491   0.952   0.613  0.2384  0.3112  0.1595
 2133TIP3    H128034   1.433   0.879   0.587 -2.9937  2.7073  0.0106
 2133TIP3    H228035   1.520   0.990   0.530  0.3505  0.3380  0.2111
 2134TIP3   OH228036   1.259   0.666   7.281  0.5304 -0.2688 -0.5090
 2134TIP3    H128037   1.350   0.640   7.299  0.6562 -1.3192 -2.3898
 2134TIP3    H228038   1.254   0.669   7.185 -1.3659  0.0344 -0.4297
 2135TIP3   OH228039   0.878   1.840   0.957  0.4851  0.2303  0.2953
 2135TIP3    H128040   0.928   1.918   0.982 -1.1601  0.9483  1.4560
 2135TIP3    H228041   0.812   1.830   1.025  0.7858 -2.3366  0.3087
 2136TIP3   OH228042   3.975   1.580   0.606  0.2142 -0.2774 -0.3525
 2136TIP3    H128043   3.973   1.674   0.589  1.5526 -0.4623 -1.7484
 2136TIP3    H228044   4.028   1.571   0.685 -1.8423  0.2491  1.1794
 2137TIP3   OH228045   4.446   1.075   6.656 -0.2541  0.1724 -0.3082
 2137TIP3    H128046   4.444   0.989   6.614  0.9711  0.2180 -0.4775
 2137TIP3    H228047   4.533   1.082   6.694 -0.6972  0.9115  0.6386
 2138TIP3   OH228048   5.496   3.028   1.181  0.3881 -0.7337  0.4532
 2138TIP3    H128049   5.523   2.996   1.267  1.9483 -3.3425 -0.9121
 2138TIP3    H228050   5.401   3.021   1.182  0.2931  0.1597  2.2402
 2139TIP3   OH228051   6.755   3.660   0.683  0.7430 -0.5770  0.3855
 2139TIP3    H128052   6.772   3.696   0.596  0.0570 -2.7013 -0.6989
 2139TIP3    H228053   6.695   3.722   0.724  0.7355  0.2446 -0.8345
 2140TIP3   OH228054   3.857   3.727   7.586 -0.0860 -0.4496 -0.1816
 2140TIP3    H128055   3.942   3.708   7.626 -0.0446 -0.4303 -0.2596
 2140TIP3    H228056   3.794   3.676   7.637  0.1008 -1.3404 -0.8136
 2141TIP3   OH228057   6.311   5.136   7.943  0.4506 -0.1603 -0.0053
 2141TIP3    H128058   6.338   5.227   7.937  2.7594 -0.6746  1.2972
 2141TIP3    H228059   6.341   5.096   7.862  0.4944  0.0039 -0.0705
 2142TIP3   OH228060   4.389   0.947   0.834 -0.2820 -0.6378 -0.2219
 2142TIP3    H128061   4.313   0.995   0.800 -0.9461 -0.2289  1.6888
 2142TIP3    H228062   4.460   1.011   0.834 -0.6195 -0.2514  0.3466
 2143TIP3   OH228063   6.280   1.631   7.567 -0.6146  0.1166  0.7825
 2143TIP3    H128064   6.325   1.583   7.637  1.0877  0.2374 -0.1635
 2143TIP3    H228065   6.187   1.622   7.587 -0.2119 -0.8799  2.3731
 2144TIP3   OH228066   2.421   5.341   1.273 -0.4856  0.2219  0.1690
 2144TIP3    H128067   2.347   5.403   1.272 -0.5367  0.1575 -0.2983
 2144TIP3    H228068   2.479   5.374   1.341 -0.8967  0.3363  0.4652
 2145TIP3   OH228069   2.146   6.823   0.541 -0.5889 -0.2158  0.4254
 2145TIP3    H128070   2.105   6.795   0.459 -0.7779 -0.2652  0.5360
 2145TIP3    H228071   2.076   6.866   0.590 -0.7227 -1.0530  0.9769
 2146TIP3   OH228072   3.767   4.089   1.215 -0.1773 -0.3569 -0.2353
 2146TIP3    H128073   3.787   4.107   1.124  0.9748 -0.3887  0.0032
 2146TIP3    H228074   3.730   4.000   1.215 -2.4840  0.5192 -0.9451
 2147TIP3   OH228075   1.864   3.729   1.073  0.2052  0.0589 -0.1457
 2147TIP3    H128076   1.889   3.820   1.058  0.9197  0.3660  2.3843
 2147TIP3    H228077   1.785   3.717   1.021 -0.4370  2.4273  0.1540
 2148TIP3   OH228078   5.261   5.621   7.355 -1.0644  0.1288 -0.1470
 2148TIP3    H128079   5.296   5.541   7.315 -0.0372  0.3623  0.2410
 2148TIP3    H228080   5.328   5.687   7.336 -0.7386  0.3366  1.6113
 2149TIP3   OH228081   1.333   2.572   0.663 -0.0087  0.0588  0.2375
 2149TIP3    H128082   1.291   2.531   0.587 -0.5896 -1.1635  1.2031
 2149TIP3    H228083   1.359   2.659   0.631 -1.4448  0.0807 -0.9746
 2150TIP3   OH228084   2.473   1.575   1.002 -0.3454  0.1171  0.7989
 2150TIP3    H128085   2.433   1.492   1.027  1.5770 -0.6302  1.6137
 2150TIP3    H228086   2.525   1.554   0.924 -0.2204  0.6724  0.7318
 2151TIP3   OH228087   3.464   2.377   1.993 -0.2481  0.2970 -0.7047
 2151TIP3    H128088   3.376   2.397   2.024  0.4039 -0.2620  1.7182
 2151TIP3    H228089   3.454   2.366   1.898 -2.7464  0.3553 -0.5139
 2152TIP3   OH228090   2.150   5.875   7.397 -0.0886 -0.0782 -0.0245
 2152TIP3    H128091   2.225   5.919   7.439 -1.8040  1.1502  1.9339
 2152TIP3    H228092   2.096   5.947   7.364 -0.3276 -0.9621 -1.6404
 2153TIP3   OH228093   5.322   3.906   7.672 -0.1422 -0.0796 -0.1519
 2153TIP3    H128094   5.238   3.952   7.663 -0.0150  0.2651  0.3844
 2153TIP3    H228095   5.327   3.883   7.765 -0.4312 -1.6363 -0.4905
 2154TIP3   OH228096   5.368   5.966   7.424 -0.3632 -0.0270 -0.0814
 2154TIP3    H128097   5.273   5.968   7.425 -0.3654  0.2622 -0.5673
 2154TIP3    H228098   5.393   6.039   7.367  0.1255 -0.6930 -0.7484
 2155TIP3   OH228099   2.423   1.549   2.032  0.1888 -0.3495 -0.2602
 2155TIP3    H128100   2.389   1.521   2.117  1.2348  0.2492  0.3811
 2155TIP3    H228101   2.479   1.624   2.052  1.2670 -0.8309 -1.3425
 2156TIP3   OH228102   0.530   5.730   1.354 -0.0712 -0.0175 -0.0228
 2156TIP3    H128103   0.478   5.680   1.291 -0.2864  0.1565  0.0168
 2156TIP3    H228104   0.582   5.790   1.300  0.0359 -0.1408 -0.0578
 2157TIP3   OH228105   5.644   1.186   8.422 -0.3520 -0.2887  0.5712
 2157TIP3    H128106   5.632   1.106   8.473 -1.0968 -1.2101 -0.9566
 2157TIP3    H228107   5.623   1.160   8.332  1.4632  1.1067 -0.3260
 2158TIP3   OH228108   5.269   6.348   2.461  0.6887  0.2248  0.3124
 2158TIP3    H128109   5.342   6.288   2.478 -0.7386 -2.2074 -1.3827
 2158TIP3    H228110   5.203   6.293   2.418 -1.5056  2.6644  0.3129
 2159TIP3   OH228111   4.240   5.540   1.020 -0.0963  0.4441  0.1144
 2159TIP3    H128112   4.205   5.455   0.992 -0.9449  0.2039  1.7700
 2159TIP3    H228113   4.212   5.548   1.111  0.8545  2.0535  0.2924
 2160TIP3   OH228114   0.333   2.464   7.346 -0.2933 -0.1406  0.6652
 2160TIP3    H128115   0.346   2.527   7.275 -1.2186  1.1492  1.6041
 2160TIP3    H228116   0.259   2.411   7.317  0.6579 -1.0265 -0.2496
 2161TIP3   OH228117   0.923   6.777   0.905 -0.0148 -0.6129  0.0104
 2161TIP3    H128118   0.887   6.857   0.942  0.1671 -1.1883  1.5353
 2161TIP3    H228119   0.947   6.724   0.982 -0.5748 -2.3177 -0.9273
 2162TIP3   OH228120   2.727   0.595   7.322 -0.2594 -0.1358  0.0477
 2162TIP3    H128121   2.696   0.519   7.273 -0.7888 -0.7374  1.2587
 2162TIP3    H228122   2.647   0.639   7.352  0.0461  0.4395  0.0475
 2163TIP3   OH228123   0.481   6.168   0.006  0.6921 -0.1666  0.0785
 2163TIP3    H128124   0.442   6.159  -0.081  0.4887 -1.5116  0.2856
 2163TIP3    H228125   0.502   6.078   0.033 -1.4246 -0.1012  2.3737
 2164TIP3   OH228126   0.827   3.093   0.077 -1.0688 -0.3022  0.4265
 2164TIP3    H128127   0.735   3.096   0.104 -0.9467  0.3329  0.7983
 2164TIP3    H228128   0.831   3.153   0.002 -0.9370 -0.2428  0.4808
 2165TIP3   OH228129   0.211   4.638   0.674  0.5743  0.8473  0.0234
 2165TIP3    H128130   0.215   4.566   0.738  3.8660  0.2369 -0.7060
 2165TIP3    H228131   0.248   4.601   0.594 -3.3433  1.6091 -2.4018
 2166TIP3   OH228132   1.174   6.572   0.353 -0.0127  0.1266  0.0095
 2166TIP3    H128133   1.228   6.651   0.358 -0.4627  0.5363 -1.0671
 2166TIP3    H228134   1.176   6.548   0.260 -0.1532 -0.9475  0.2704
 2167TIP3   OH228135   6.534   4.326   8.632  0.1455  0.5076  0.5231
 2167TIP3    H128136   6.579   4.266   8.691  0.7115  0.8198  0.4140
 2167TIP3    H228137   6.591   4.402   8.627 -0.4360  0.9479  0.4451
 2168TIP3   OH228138   5.648   5.010   7.134  0.0344 -0.1386  0.5460
 2168TIP3    H128139   5.647   5.087   7.078  0.4012  0.3848  1.2565
 2168TIP3    H228140   5.736   4.973   7.123  0.0296 -0.1678  0.6039
 2169TIP3   OH228141   4.963   4.071   6.577  0.3570  0.6570 -0.1965
 2169TIP3    H128142   5.059   4.067   6.577  0.5746 -0.3099  4.6527
 2169TIP3    H228143   4.934   3.983   6.554  0.7037  0.5654 -0.2788
 2170TIP3   OH228144   1.999   0.772   7.599 -0.1035 -0.0821  0.0521
 2170TIP3    H128145   1.997   0.789   7.505  0.5857  0.8961  0.2032
 2170TIP3    H228146   1.962   0.851   7.639 -0.0458 -0.3392  0.6248
 2171TIP3   OH228147   2.056   4.627   7.998  0.6931  0.3770  0.1686
 2171TIP3    H128148   2.079   4.719   7.981 -0.2262  1.1247  2.5232
 2171TIP3    H228149   1.983   4.610   7.939  0.5493  1.3363  0.0442
 2172TIP3   OH228150   4.673   5.569   8.092  0.0857  0.0200 -0.5770
 2172TIP3    H128151   4.592   5.525   8.116  0.9651 -1.4890 -0.2802
 2172TIP3    H228152   4.685   5.636   8.159 -1.4135  0.9594 -1.1925
 2173TIP3   OH228153   4.596   0.015   8.095  0.1363  0.6470 -0.3582
 2173TIP3    H128154   4.670  -0.045   8.101  0.4481  0.9889 -0.7518
 2173TIP3    H228155   4.573   0.033   8.187  0.8685  0.9316 -0.2191
 2174TIP3   OH228156   2.433   4.092   8.072  0.0938  1.0055 -0.2247
 2174TIP3    H128157   2.352   4.115   8.026  1.2000  3.0737 -1.2829
 2174TIP3    H228158   2.496   4.072   8.003  0.6220 -0.2246  0.5750
 2175TIP3   OH228159   1.690   0.139   1.738  0.7615 -0.3209 -0.4179
 2175TIP3    H128160   1.699   0.045   1.729  2.3955 -0.1261 -1.0097
 2175TIP3    H228161   1.679   0.153   1.832 -0.2921 -1.1418 -0.4032
 2176TIP3   OH228162   0.907   1.368   8.233  0.4597  0.3705  0.1041
 2176TIP3    H128163   0.891   1.307   8.161 -0.1919  0.4260  0.1932
 2176TIP3    H228164   0.840   1.435   8.222  1.2482  1.1431 -0.0627
 2177TIP3   OH228165   0.913   3.217   1.579  0.0652 -0.1053 -0.7464
 2177TIP3    H128166   0.978   3.152   1.549  0.8513 -0.9904  2.5333
 2177TIP3    H228167   0.853   3.167   1.634 -0.1491  1.6935  0.7287
 2178TIP3   OH228168   1.649   6.428   1.967 -0.5016 -0.1589  0.4759
 2178TIP3    H128169   1.577   6.432   1.905 -1.2100 -0.2132  1.2682
 2178TIP3    H228170   1.607   6.411   2.052  0.5043 -1.0243  0.8346
 2179TIP3   OH228171   2.543   5.099   7.081 -0.3632  0.9425  0.6530
 2179TIP3    H128172   2.548   5.076   6.989 -0.7660  1.2633  0.5473
 2179TIP3    H228173   2.628   5.141   7.100  0.2709 -0.3677  0.7872
 2180TIP3   OH228174   5.112   3.841   0.264 -0.3141 -0.4615  0.8252
 2180TIP3    H128175   5.196   3.827   0.221 -0.4660 -0.9746  0.6930
 2180TIP3    H228176   5.085   3.928   0.235 -0.1795 -0.5997  0.2755
 2181TIP3   OH228177   4.840   4.787   7.713 -0.2346 -0.0815  0.3140
 2181TIP3    H128178   4.853   4.801   7.807 -2.3338 -2.2433  1.0488
 2181TIP3    H228179   4.745   4.783   7.703 -0.0449 -0.1608 -1.8835
 2182TIP3   OH228180   6.835   1.123   1.737 -0.5481  0.2883 -0.0299
 2182TIP3    H128181   6.867   1.186   1.672  0.8262 -0.5370 -0.2150
 2182TIP3    H228182   6.869   1.156   1.820  0.5177 -0.3888 -0.1780
 2183TIP3   OH228183   1.614   1.595   1.416  0.3601 -0.5564  0.2677
 2183TIP3    H128184   1.703   1.629   1.419 -0.9819  3.3695  1.9381
 2183TIP3    H228185   1.590   1.585   1.508 -1.3793 -0.1619 -0.1180
 2184TIP3   OH228186   1.295   5.869   7.906 -0.2707  0.6169 -0.3273
 2184TIP3    H128187   1.231   5.913   7.962 -0.0962  1.5076 -0.8213
 2184TIP3    H228188   1.378   5.879   7.953 -0.3351  0.2357 -0.1243
 2185TIP3   OH228189   6.541   5.237   0.760 -0.2394  0.2542 -0.6292
 2185TIP3    H128190   6.527   5.235   0.665 -0.2836 -0.3750 -0.6194
 2185TIP3    H228191   6.617   5.179   0.774 -1.2173 -0.9729 -0.1423
 2186TIP3   OH228192   3.577   3.719   0.596 -0.4008 -0.1869 -0.1643
 2186TIP3    H128193   3.651   3.776   0.577  0.7640 -1.4819  0.2800
 2186TIP3    H228194   3.543   3.695   0.510 -0.7664  0.9647 -0.3560
 2187TIP3   OH228195   4.160   3.451   7.532 -0.0688  0.0623  0.5334
 2187TIP3    H128196   4.253   3.432   7.543 -0.0244  0.0526  0.1682
 2187TIP3    H228197   4.158   3.538   7.493 -0.1103 -0.8470 -1.6456
 2188TIP3   OH228198   1.973   1.228   0.016 -0.2320  0.1034 -0.2619
 2188TIP3    H128199   1.925   1.168  -0.040 -0.8797 -2.4729  2.7622
 2188TIP3    H228200   2.025   1.282  -0.044 -1.6761 -1.6519 -3.2826
 2189TIP3   OH228201   6.692   5.411   2.308  0.2819  0.8783 -0.3097
 2189TIP3    H128202   6.780   5.385   2.335 -0.2984 -0.7372  0.1091
 2189TIP3    H228203   6.674   5.490   2.360  1.5009  1.3008 -0.4904
 2190TIP3   OH228204   5.117   0.248   8.326 -0.3737 -0.2223 -0.6619
 2190TIP3    H128205   5.121   0.157   8.356  1.0841  0.0581  0.0893
 2190TIP3    H228206   5.127   0.243   8.231 -0.3479 -0.8464 -0.6321
 2191TIP3   OH228207   4.981   5.968   1.341  0.3915  0.6778  0.6403
 2191TIP3    H128208   4.911   6.020   1.302  0.0421 -0.7290 -0.7309
 2191TIP3    H228209   4.954   5.955   1.432 -0.7467  0.8076  0.3365
 2192TIP3   OH228210   1.208   3.958   6.885 -0.2016  0.1770 -0.4274
 2192TIP3    H128211   1.276   3.909   6.931 -1.9055 -1.4698  0.4584
 2192TIP3    H228212   1.126   3.927   6.923 -1.4331  3.0133 -0.5736
 2193TIP3   OH228213   4.749   5.148   0.594  0.1211  0.0395 -0.5258
 2193TIP3    H128214   4.774   5.234   0.627  2.6514 -1.1747  1.0678
 2193TIP3    H228215   4.831   5.109   0.564  0.0772 -3.5250  3.1577
 2194TIP3   OH228216   4.205   1.422   7.219 -0.9229  0.3746  0.4825
 2194TIP3    H128217   4.167   1.399   7.134 -1.1345  2.0123  0.0887
 2194TIP3    H228218   4.279   1.363   7.229 -2.1118 -1.2391  0.1417
 2195TIP3   OH228219   5.590   3.317   6.896  0.3824 -0.1198 -0.3028
 2195TIP3    H128220   5.606   3.389   6.956  0.8024 -1.2043  0.9436
 2195TIP3    H228221   5.620   3.348   6.811  0.6942  1.0976  0.2389
 2196TIP3   OH228222   2.597   6.284   8.196 -0.2130 -0.1628 -0.3911
 2196TIP3    H128223   2.539   6.208   8.187  1.2910 -1.5339  0.8572
 2196TIP3    H228224   2.684   6.251   8.172  0.5053  1.1021  0.3812
 2197TIP3   OH228225   0.085   3.741   8.135 -0.5562 -0.2859  0.5792
 2197TIP3    H128226   0.142   3.670   8.166 -0.9440 -0.4754  0.8626
 2197TIP3    H228227   0.145   3.802   8.091 -0.2525 -0.9224  0.0866
 2198TIP3   OH228228   0.152   5.214   0.214 -0.0564 -0.0982  0.6364
 2198TIP3    H128229   0.097   5.291   0.227  0.1646  0.0552  0.6532
 2198TIP3    H228230   0.097   5.141   0.243 -1.3094 -0.2660 -1.9206
 2199TIP3   OH228231   1.381   5.741   1.373  0.4857 -0.1299 -0.2312
 2199TIP3    H128232   1.295   5.719   1.337  0.8584 -0.5298 -0.8975
 2199TIP3    H228233   1.389   5.685   1.450  0.7164 -1.1273 -0.9603
 2200TIP3   OH228234   6.723   1.365   7.167  0.1871 -0.0348  0.1582
 2200TIP3    H128235   6.763   1.339   7.084  1.5273 -2.3943  1.4253
 2200TIP3    H228236   6.766   1.448   7.189  0.9444 -0.1620 -0.7755
 2201TIP3   OH228237   3.775   1.116   7.197  0.0553 -0.1050 -0.5635
 2201TIP3    H128238   3.846   1.094   7.138  2.0695 -0.2764  1.7493
 2201TIP3    H228239   3.787   1.209   7.216  0.9562 -0.5380  1.3077
 2202TIP3   OH228240   0.838   6.162   2.922  0.6296 -0.0158  0.4707
 2202TIP3    H128241   0.882   6.100   2.863  0.7304  0.9871 -0.5595
 2202TIP3    H228242   0.886   6.244   2.910  0.1416  0.4146  1.3638
 2203TIP3   OH228243   6.255   6.263   6.102 -0.4054  0.5225  0.0359
 2203TIP3    H128244   6.165   6.231   6.092 -0.2041 -0.7061  1.6886
 2203TIP3    H228245   6.245   6.350   6.141 -0.9102  1.8828 -2.8863
 2204TIP3   OH228246   2.324   2.390   1.375 -0.6767 -0.3491  0.2139
 2204TIP3    H128247   2.240   2.344   1.370 -0.9034  0.0450  0.3459
 2204TIP3    H228248   2.358   2.386   1.285 -1.4107  0.5402 -0.1191
 2205TIP3   OH228249   4.153   4.374   7.968 -0.0266  0.2699  0.3580
 2205TIP3    H128250   4.208   4.340   8.039 -0.2977  0.7014  0.7871
 2205TIP3    H228251   4.205   4.362   7.889 -0.1456 -1.1923  0.4740
 2206TIP3   OH228252   0.922   0.858   7.156 -0.4946 -0.0299 -0.5086
 2206TIP3    H128253   0.937   0.818   7.242 -2.4985 -1.5973 -0.8294
 2206TIP3    H228254   0.972   0.803   7.095 -1.5431 -0.7929 -0.6948
 2207TIP3   OH228255   4.557   1.584   8.222 -0.1667  0.4103  0.0773
 2207TIP3    H128256   4.571   1.500   8.179  1.7977 -0.3790  2.0373
 2207TIP3    H228257   4.557   1.564   8.315  2.0103  2.6830  0.7103
 2208TIP3   OH228258   4.319   5.551   8.301 -0.1648  0.0920 -0.4817
 2208TIP3    H128259   4.308   5.529   8.394  0.1351  0.4361 -0.3638
 2208TIP3    H228260   4.378   5.626   8.301  0.2932 -0.2598 -0.9844
 2209TIP3   OH228261   6.230   1.502   8.429 -0.1890  0.3710 -0.4222
 2209TIP3    H128262   6.194   1.472   8.512 -1.6424 -0.8092 -1.4261
 2209TIP3    H228263   6.325   1.495   8.439 -0.1911  2.4129  1.8925
 2210TIP3   OH228264   6.570   5.556   7.694  0.2558  0.2410  0.0934
 2210TIP3    H128265   6.486   5.521   7.724 -0.0463 -0.4897 -1.4781
 2210TIP3    H228266   6.582   5.637   7.744 -1.3866  0.3658  0.3368
 2211TIP3   OH228267   2.902   4.103   8.537  0.0365  0.1854 -0.1098
 2211TIP3    H128268   2.948   4.045   8.476  0.9940  1.4030 -0.5792
 2211TIP3    H228269   2.810   4.089   8.517  0.1272 -2.2507  0.7925
 2212TIP3   OH228270   4.165   6.614   0.766  0.1613 -0.2937 -0.1296
 2212TIP3    H128271   4.110   6.612   0.844 -0.3904 -0.6999 -0.5299
 2212TIP3    H228272   4.255   6.609   0.800 -0.0918 -0.9732  0.4488
 2213TIP3   OH228273   2.086   2.579   0.771 -0.1516  0.2699  0.5178
 2213TIP3    H128274   2.049   2.493   0.790 -0.2846  0.0749 -0.5813
 2213TIP3    H228275   2.014   2.628   0.730  0.0897  0.7149  0.6115
 2214TIP3   OH228276   2.944   2.097   0.868 -0.3974 -0.3676 -0.3889
 2214TIP3    H128277   2.909   2.107   0.780 -0.8310 -1.1543 -0.3151
 2214TIP3    H228278   3.039   2.097   0.856 -0.4606 -1.2876 -0.9549
 2215TIP3   OH228279   4.546   2.908   6.314  0.0763  0.0469 -1.1019
 2215TIP3    H128280   4.627   2.957   6.331  0.7770 -1.3196 -0.3247
 2215TIP3    H228281   4.504   2.900   6.399  0.7913 -2.0368 -0.8793
 2216TIP3   OH228282   2.307   4.221   7.539 -0.0184  0.0716  0.0113
 2216TIP3    H128283   2.221   4.182   7.553  0.5923 -1.3513  0.0223
 2216TIP3    H228284   2.326   4.204   7.447  0.9759 -1.2180  0.4241
 2217TIP3   OH228285   2.117   6.021   0.656  0.1133 -0.0076 -0.1003
 2217TIP3    H128286   2.172   6.093   0.627  0.4086  0.2567  1.0659
 2217TIP3    H228287   2.132   6.015   0.750  0.8360 -2.2135 -0.2949
 2218TIP3   OH228288   3.744   1.653   8.657  0.1205 -0.4972  0.3693
 2218TIP3    H128289   3.742   1.673   8.750 -0.8247 -1.3831  0.5572
 2218TIP3    H228290   3.697   1.726   8.616  0.7034 -0.0114  0.5619
 2219TIP3   OH228291   0.716   4.362   7.426 -0.1707  0.5387  0.2111
 2219TIP3    H128292   0.668   4.444   7.415 -0.0573  0.6336  0.4268
 2219TIP3    H228293   0.808   4.388   7.429 -0.0056  0.2626 -1.3266
 2220TIP3   OH228294   2.137   6.137   7.170 -0.4184  0.3617  0.5844
 2220TIP3    H128295   2.084   6.201   7.122  0.5207 -0.3040 -1.4291
 2220TIP3    H228296   2.088   6.122   7.251 -3.1213  0.0990 -0.9603
 2221TIP3   OH228297   0.837   3.866   1.617 -0.1876 -0.4384 -0.1605
 2221TIP3    H128298   0.840   3.850   1.711 -0.8066  2.7969  0.5172
 2221TIP3    H228299   0.763   3.814   1.586 -1.6501  0.4651  1.6491
 2222TIP3   OH228300   4.406   0.952   8.108 -0.0392 -0.2078 -0.4804
 2222TIP3    H128301   4.460   0.909   8.042  1.3504  2.9284 -1.5905
 2222TIP3    H228302   4.462   0.957   8.186  0.3078  0.6642 -0.7721
 2223TIP3   OH228303   6.053   3.641   7.975  0.0534  0.0485  0.1513
 2223TIP3    H128304   6.012   3.627   7.890 -1.6797 -2.6423  1.3112
 2223TIP3    H228305   6.124   3.577   7.978  1.8016  1.8790 -0.1949
 2224TIP3   OH228306   4.653   6.456   8.806  0.0577  0.3322  0.0963
 2224TIP3    H128307   4.567   6.417   8.822  0.2290 -0.8071 -1.5176
 2224TIP3    H228308   4.704   6.433   8.885 -0.5813 -0.5848  0.2664
 2225TIP3   OH228309   1.224   3.393   1.273  0.2848  0.0066  0.3371
 2225TIP3    H128310   1.172   3.313   1.261  1.2502 -0.6319  0.3408
 2225TIP3    H228311   1.185   3.434   1.351 -1.2871  0.4226 -0.6228
 2226TIP3   OH228312   4.163   1.967   1.950 -0.5667 -0.1585  0.1409
 2226TIP3    H128313   4.193   1.886   1.990  3.3930  1.3360  0.6630
 2226TIP3    H228314   4.157   2.029   2.023  0.5710  1.0102 -0.7060
 2227TIP3   OH228315   2.317   2.682   6.713  0.4910 -0.1141 -0.7256
 2227TIP3    H128316   2.276   2.602   6.747 -1.2824  0.5659 -1.1212
 2227TIP3    H228317   2.341   2.732   6.791  1.0794 -0.7733 -0.4811
 2228TIP3   OH228318   3.159   0.569   8.382 -0.3246 -0.0722  0.1278
 2228TIP3    H128319   3.179   0.639   8.320 -2.4054 -0.1673 -0.7433
 2228TIP3    H228320   3.117   0.502   8.328 -1.4842 -0.5011  1.5243
 2229TIP3   OH228321   6.373   3.427   1.627  0.0053  0.1993  0.3861
 2229TIP3    H128322   6.298   3.487   1.627  1.4684  2.1021 -0.3997
 2229TIP3    H228323   6.367   3.381   1.544  0.5071  1.4235 -0.3471
 2230TIP3   OH228324   5.894   2.389   2.097 -0.0421  0.2884  0.1500
 2230TIP3    H128325   5.841   2.469   2.090 -1.4796 -0.5255  1.2083
 2230TIP3    H228326   5.884   2.362   2.189  2.3145  0.1329  0.4207
 2231TIP3   OH228327   4.237   1.316   7.720 -0.3513  0.1960  0.0132
 2231TIP3    H128328   4.225   1.407   7.745 -0.7302  0.1553 -0.0245
 2231TIP3    H228329   4.150   1.278   7.723 -0.3400  0.0747 -0.9059
 2232TIP3   OH228330   5.318   0.977   1.119 -0.5890  0.0631 -0.4114
 2232TIP3    H128331   5.353   1.065   1.104  1.3331 -0.5909  0.0148
 2232TIP3    H228332   5.370   0.921   1.062  0.6496 -1.2571  1.9117
 2233TIP3   OH228333   3.830   2.701   6.986  0.5612 -0.0176 -0.1554
 2233TIP3    H128334   3.860   2.615   7.013  0.0056  0.3217  1.6618
 2233TIP3    H228335   3.766   2.683   6.917  0.1923 -1.0863  0.4469
 2234TIP3   OH228336   2.484   2.431   1.050  0.6944 -1.2162  0.7461
 2234TIP3    H128337   2.420   2.481   1.000  2.9038  2.2859  1.0849
 2234TIP3    H228338   2.531   2.380   0.984  0.6286 -0.1304 -0.1740
 2235TIP3   OH228339   4.235   0.729   8.090  0.3228  0.1485 -0.2321
 2235TIP3    H128340   4.305   0.793   8.074  1.6651 -1.2988 -0.4236
 2235TIP3    H228341   4.282   0.647   8.106 -1.3763 -1.4496 -2.7736
 2236TIP3   OH228342   2.891   6.263   0.686 -0.0913  0.4407 -0.5694
 2236TIP3    H128343   2.892   6.196   0.754  0.4890 -0.7168 -1.6613
 2236TIP3    H228344   2.814   6.316   0.704 -0.8335 -0.8189  0.0610
 2237TIP3   OH228345   3.753   1.399   7.297 -0.2980 -0.0815 -0.5673
 2237TIP3    H128346   3.739   1.378   7.389 -1.4250  1.6606 -0.2714
 2237TIP3    H228347   3.755   1.495   7.295 -0.0121 -0.0925 -2.3240
 2238TIP3   OH228348   3.361   4.795   0.599  0.0043 -0.2190  0.7060
 2238TIP3    H128349   3.387   4.772   0.510 -0.4827 -0.0361  0.5118
 2238TIP3    H228350   3.281   4.848   0.588  0.3069  0.3613  1.2143
 2239TIP3   OH228351   3.343   4.909   8.775  0.7194 -0.6196 -0.2252
 2239TIP3    H128352   3.267   4.854   8.754 -0.2843  1.0905 -1.3026
 2239TIP3    H228353   3.309   4.998   8.775  2.0130 -0.0257  2.7880
 2240TIP3   OH228354   4.052   0.393   8.731 -0.4195  0.4055 -0.1472
 2240TIP3    H128355   4.022   0.463   8.674 -2.7921 -0.5099 -0.1576
 2240TIP3    H228356   4.047   0.314   8.676 -0.6167 -0.1764  0.6859
 2241TIP3   OH228357   1.399   5.268   0.638  0.7649  0.1450  0.0212
 2241TIP3    H128358   1.315   5.271   0.591  1.7456  0.7866 -1.7762
 2241TIP3    H228359   1.375   5.247   0.728 -1.2794 -0.2752 -0.5657
 2242TIP3   OH228360   5.526   4.127   7.679  0.4048  0.2475 -0.0504
 2242TIP3    H128361   5.573   4.124   7.596  2.0884 -0.8109  0.8974
 2242TIP3    H228362   5.439   4.092   7.658  0.6369  0.4627 -1.4612
 2243TIP3   OH228363   5.973   3.644   0.690 -0.0744  0.0077  0.0360
 2243TIP3    H128364   5.971   3.662   0.784 -0.5221  1.6846 -0.2572
 2243TIP3    H228365   6.065   3.628   0.670 -0.0776 -1.2078  0.8818
 2244TIP3   OH228366   4.814   5.298   0.905  0.4711  0.1147 -0.1721
 2244TIP3    H128367   4.820   5.389   0.876  1.9674  0.0206 -0.2201
 2244TIP3    H228368   4.786   5.304   0.996 -0.8096  0.5426 -0.5637
 2245TIP3   OH228369   0.792   1.522   7.814 -1.0504  0.2337  0.1927
 2245TIP3    H128370   0.882   1.515   7.846 -0.4987 -0.2841 -1.3468
 2245TIP3    H228371   0.741   1.546   7.891  0.5985  1.9792  0.8242
 2246TIP3   OH228372   1.461   0.247   0.128  0.1457  0.3121 -0.0800
 2246TIP3    H128373   1.555   0.257   0.145  0.7073 -1.4346 -1.8691
 2246TIP3    H228374   1.446   0.295   0.047 -0.3798 -0.0178 -0.1822
 2247TIP3   OH228375   4.841   3.651   1.471  0.3423  0.2702  0.0395
 2247TIP3    H128376   4.796   3.572   1.440  1.1049 -0.6135  1.1299
 2247TIP3    H228377   4.895   3.621   1.544  3.4909  1.0493 -1.7538
 2248TIP3   OH228378   2.508   2.832   5.946 -0.2860 -0.1844 -0.1658
 2248TIP3    H128379   2.502   2.805   5.854  0.8819  0.7165 -0.5326
 2248TIP3    H228380   2.519   2.927   5.943 -0.8378 -0.0649  0.9438
 2249TIP3   OH228381   5.680   6.640   1.315 -0.2764  0.0614  0.3841
 2249TIP3    H128382   5.723   6.707   1.262 -1.6536  1.2280  0.7008
 2249TIP3    H228383   5.752   6.595   1.359  0.8190 -0.1396 -1.5150
 2250TIP3   OH228384   4.974   3.377   2.631 -0.1201  1.0398 -0.0624
 2250TIP3    H128385   5.053   3.324   2.642  0.8495  2.3692 -0.3717
 2250TIP3    H228386   4.957   3.376   2.537 -0.4397  0.7915 -0.0009
 2251TIP3   OH228387   0.814   5.261   7.371  0.7070 -0.2887 -0.1645
 2251TIP3    H128388   0.870   5.334   7.398 -2.5747  2.3844  0.0706
 2251TIP3    H228389   0.823   5.257   7.276  0.6985  0.6766 -0.2166
 2252TIP3   OH228390   4.681   5.676   8.529  0.3234 -0.5306 -0.0705
 2252TIP3    H128391   4.742   5.625   8.583 -0.3963  0.3292  1.6506
 2252TIP3    H228392   4.737   5.726   8.471  1.1466 -1.4158 -0.0709
 2253TIP3   OH228393   1.646   6.781   0.105 -0.2838 -0.6903 -0.3669
 2253TIP3    H128394   1.716   6.716   0.104  0.6023  0.2462 -1.3657
 2253TIP3    H228395   1.620   6.790   0.013  0.2157  0.9691 -0.3756
 2254TIP3   OH228396   0.359   5.518   1.877  0.1712 -0.5560 -0.1323
 2254TIP3    H128397   0.356   5.498   1.971 -0.5959  0.8168  0.1645
 2254TIP3    H228398   0.451   5.512   1.854  0.2232 -2.2286  0.3919
 2255TIP3   OH228399   6.405   1.735   0.752 -0.5310  0.2829  0.0678
 2255TIP3    H128400   6.464   1.681   0.699 -0.1942 -0.1527  0.8634
 2255TIP3    H228401   6.431   1.825   0.733  1.3676  0.0956  1.4238
 2256TIP3   OH228402   5.735   1.149   7.463 -0.7361  0.3314 -0.2745
 2256TIP3    H128403   5.804   1.189   7.410 -0.3633 -0.2128 -0.2074
 2256TIP3    H228404   5.721   1.210   7.535  0.8554 -0.3356  0.6358
 2257TIP3   OH228405   6.680   5.044   7.806 -0.0508 -0.7827  0.3036
 2257TIP3    H128406   6.594   5.003   7.813  0.0022 -0.8542  0.5400
 2257TIP3    H228407   6.681   5.110   7.876 -0.2062 -0.2495 -0.1875
 2258TIP3   OH228408   0.554   1.185   7.085  0.8936 -0.1191 -0.0351
 2258TIP3    H128409   0.622   1.159   7.022  0.7741 -0.8363  0.1245
 2258TIP3    H228410   0.548   1.280   7.075 -1.1269 -0.4332 -3.1905
 2259TIP3   OH228411   4.084   0.121   7.139  0.2553  0.2383 -0.2943
 2259TIP3    H128412   3.993   0.092   7.133  0.2752  0.3195 -1.0935
 2259TIP3    H228413   4.116   0.081   7.220 -0.4413  0.0781 -0.0859
 2260TIP3   OH228414   4.694   0.818   1.416 -0.3830 -0.7374 -0.7918
 2260TIP3    H128415   4.720   0.864   1.337  0.7075  0.1189  0.0308
 2260TIP3    H228416   4.645   0.883   1.467 -0.8689 -1.2093 -0.6392
 2261TIP3   OH228417   0.445   2.943   1.591 -0.3245  0.3803  0.1882
 2261TIP3    H128418   0.374   2.888   1.556 -0.0204 -0.9667  1.6139
 2261TIP3    H228419   0.443   2.928   1.685  0.4963  1.9977  0.4992
 2262TIP3   OH228420   5.370   4.040   7.367 -0.0116 -0.0216  0.2104
 2262TIP3    H128421   5.308   4.003   7.305 -1.2228 -1.3305  2.0712
 2262TIP3    H228422   5.320   4.109   7.412  0.0553 -0.6649  1.2973
 2263TIP3   OH228423   1.763   5.712   1.062 -0.4477  0.1939  0.2996
 2263TIP3    H128424   1.712   5.729   0.982 -0.4092  0.5330  0.3420
 2263TIP3    H228425   1.748   5.790   1.116 -1.1053 -0.3781  0.9602
 2264TIP3   OH228426   2.517   2.012   0.144 -0.2754  0.2554 -0.2214
 2264TIP3    H128427   2.496   1.991   0.053 -0.8399  0.2922 -0.1039
 2264TIP3    H228428   2.467   1.949   0.195  0.6581 -0.2895  0.0540
 2265TIP3   OH228429   6.513   3.715   7.337 -0.3469 -0.7148 -0.2949
 2265TIP3    H128430   6.539   3.769   7.262 -0.8859  1.2633  0.8455
 2265TIP3    H228431   6.418   3.726   7.342 -0.1632  0.4613  1.5338
 2266TIP3   OH228432   3.236   3.187   6.893  0.0274 -0.1103 -0.5621
 2266TIP3    H128433   3.307   3.177   6.956  0.1904 -1.9074 -0.9731
 2266TIP3    H228434   3.166   3.131   6.927 -0.9466  1.0841 -0.5400
 2267TIP3   OH228435   5.937   6.289   2.184 -0.0197  0.2223 -0.1049
 2267TIP3    H128436   5.896   6.208   2.216  0.8493 -0.0192  0.4482
 2267TIP3    H228437   5.907   6.356   2.245  1.1132 -0.1220  0.8821
 2268TIP3   OH228438   0.668   6.467   0.878  0.1062 -0.2767  0.4391
 2268TIP3    H128439   0.665   6.415   0.958  0.5081 -0.7534  0.1483
 2268TIP3    H228440   0.621   6.548   0.900 -1.8470 -1.3448  0.4736
 2269TIP3   OH228441   4.337   2.887   2.011  0.1995  0.0651  0.1410
 2269TIP3    H128442   4.419   2.935   2.025  0.3128 -0.3159  0.8405
 2269TIP3    H228443   4.269   2.947   2.041  0.2516  0.2359 -0.0812
 2270TIP3   OH228444   5.479   3.746   8.229  0.0074 -0.0092  0.5372
 2270TIP3    H128445   5.387   3.737   8.252 -0.0194  0.9062  0.8387
 2270TIP3    H228446   5.514   3.806   8.295  0.1565  1.9478 -1.2227
 2271TIP3   OH228447   1.058   6.711   8.362  0.6274 -0.2992 -0.5166
 2271TIP3    H128448   0.985   6.684   8.306 -0.5703  0.7941  0.4378
 2271TIP3    H228449   1.027   6.792   8.402  1.1920 -1.3046  2.1353
 2272TIP3   OH228450   3.321   0.301   0.238 -0.5850 -0.7773 -0.1580
 2272TIP3    H128451   3.243   0.265   0.281 -1.4369 -0.0515 -1.0638
 2272TIP3    H228452   3.301   0.394   0.226  0.5207 -0.5315 -0.1973
 2273TIP3   OH228453   4.597   6.273   6.868  0.0725 -0.4205  0.3581
 2273TIP3    H128454   4.585   6.281   6.773 -0.2346 -0.8101  0.3589
 2273TIP3    H228455   4.653   6.346   6.891 -0.0043 -0.2100 -0.0983
 2274TIP3   OH228456   4.582   4.260   7.658 -0.3360 -0.4171  0.2295
 2274TIP3    H128457   4.542   4.173   7.645  0.0065 -0.4374 -0.7459
 2274TIP3    H228458   4.551   4.312   7.584  1.8019 -0.5747 -0.8512
 2275TIP3   OH228459   1.890   4.464   7.216 -0.5847  0.4990 -0.4540
 2275TIP3    H128460   1.954   4.399   7.188 -1.7796 -0.4198 -1.2172
 2275TIP3    H228461   1.835   4.477   7.138 -1.9822  0.4035  0.4694
 2276TIP3   OH228462   2.096   5.639   1.383  0.3103  0.6202  0.3115
 2276TIP3    H128463   2.021   5.634   1.442 -0.4104  1.0387 -0.5646
 2276TIP3    H228464   2.094   5.727   1.348 -0.1926 -0.0830 -1.5247
 2277TIP3   OH228465   2.396   6.690   8.358  0.5379  0.3374 -0.0814
 2277TIP3    H128466   2.436   6.655   8.278 -2.8184  0.0245 -1.7988
 2277TIP3    H228467   2.333   6.755   8.326 -0.6857  0.4560  2.3716
 2278TIP3   OH228468   2.318   6.176   1.223 -0.6628  0.1372 -0.3234
 2278TIP3    H128469   2.286   6.262   1.249  0.4762  0.9439 -1.4643
 2278TIP3    H228470   2.413   6.182   1.231 -0.5846 -1.1734  0.0094
 2279TIP3   OH228471   2.615   5.919   0.676  0.3423 -0.2414  0.0132
 2279TIP3    H128472   2.691   5.964   0.639  0.8397 -0.3248  0.8924
 2279TIP3    H228473   2.541   5.951   0.625  1.1447 -1.4639 -2.0129
 2280TIP3   OH228474   1.781   4.831   0.642 -0.2072 -0.1946  0.1487
 2280TIP3    H128475   1.812   4.741   0.645  1.4244  0.2914 -0.9132
 2280TIP3    H228476   1.693   4.827   0.680 -1.3358 -2.6935 -2.3729
 2281TIP3   OH228477   6.707   2.834   7.529  0.5276 -0.0605  0.6948
 2281TIP3    H128478   6.647   2.865   7.597 -0.7060 -0.3525 -0.2280
 2281TIP3    H228479   6.765   2.907   7.512 -1.0622  1.0949 -0.0343
 2282TIP3   OH228480   6.708   6.440   2.172  0.2285  0.4781  0.1620
 2282TIP3    H128481   6.739   6.357   2.208 -1.4052  0.0787  0.7696
 2282TIP3    H228482   6.618   6.421   2.144  0.0915  1.8471 -0.3905
 2283TIP3   OH228483   6.089   4.553   8.622  0.4050 -0.5731  0.0314
 2283TIP3    H128484   6.057   4.598   8.700  2.1643  2.4502 -0.8012
 2283TIP3    H228485   6.169   4.509   8.651 -0.8070 -2.5077  0.6291
 2284TIP3   OH228486   0.963   5.384   8.541 -0.7583 -0.2740 -0.4592
 2284TIP3    H128487   0.930   5.422   8.460 -1.0810  0.0633 -0.1751
 2284TIP3    H228488   1.031   5.444   8.571 -2.6173  1.2483  1.0405
 2285TIP3   OH228489   5.721   5.780   8.264 -0.0698  0.1652  0.3914
 2285TIP3    H128490   5.677   5.862   8.288 -0.2865  0.2209 -0.1836
 2285TIP3    H228491   5.770   5.802   8.185  0.4111 -0.0892  0.6155
 2286TIP3   OH228492   4.052   3.020   6.962  0.3875 -0.6795 -0.1080
 2286TIP3    H128493   3.977   3.044   7.016 -0.5814 -1.3264 -1.1310
 2286TIP3    H228494   4.015   2.966   6.892  1.8930 -1.5368 -0.2850
 2287TIP3   OH228495   3.010   4.673   0.259 -0.2319 -0.7903  0.5137
 2287TIP3    H128496   2.985   4.607   0.324  1.5059 -1.8670  0.1594
 2287TIP3    H228497   3.070   4.731   0.306  0.2853 -1.0162  0.1481
 2288TIP3   OH228498   3.505   2.547   0.689 -0.1058  0.2434  0.2522
 2288TIP3    H128499   3.519   2.481   0.757 -0.7714 -0.0884  0.0746
 2288TIP3    H228500   3.457   2.500   0.620 -0.3505  0.8499  0.0108
 2289TIP3   OH228501   3.326   2.314   7.039  0.6790  0.2648 -0.8249
 2289TIP3    H128502   3.375   2.238   7.071  0.8481 -0.1421 -1.9694
 2289TIP3    H228503   3.353   2.322   6.947  0.1448  1.2997 -0.9039
 2290TIP3   OH228504   1.063   6.515   1.697  0.1188  0.4549 -0.1149
 2290TIP3    H128505   1.084   6.470   1.779  0.1551 -2.2120 -1.4712
 2290TIP3    H228506   1.144   6.561   1.673  0.4013  0.4809  0.8595
 2291TIP3   OH228507   6.266   4.805   2.510 -0.1365 -0.2223  0.2718
 2291TIP3    H128508   6.256   4.750   2.588  0.5722 -0.7537 -0.0093
 2291TIP3    H228509   6.269   4.894   2.545 -0.0456 -0.4389  0.8307
 2292TIP3   OH228510   6.372   4.700   8.635 -0.0408 -0.2098 -0.2474
 2292TIP3    H128511   6.351   4.618   8.681  1.7499 -0.9623 -0.7027
 2292TIP3    H228512   6.394   4.672   8.546  2.6668  0.4803  0.1437
 2293TIP3   OH228513   4.636   0.078   7.751  0.6409 -0.6943  0.4806
 2293TIP3    H128514   4.709   0.021   7.774  0.7145 -1.2390 -1.0095
 2293TIP3    H228515   4.568   0.057   7.815  1.1281 -1.5216  0.7343
 2294TIP3   OH228516   2.947   5.783   0.564  0.1673  0.1843 -0.1153
 2294TIP3    H128517   2.998   5.813   0.489 -1.8699 -0.0255 -1.6524
 2294TIP3    H228518   2.883   5.852   0.579 -0.0437 -0.2052  0.8576
 2295TIP3   OH228519   6.834   0.860   6.728 -0.3353 -0.0634  0.1496
 2295TIP3    H128520   6.890   0.874   6.804 -0.0729  0.7666 -0.1954
 2295TIP3    H228521   6.804   0.947   6.703  0.5645 -0.1690 -1.4457
 2296TIP3   OH228522   1.714   5.520   1.292 -0.5683 -0.2580 -0.2131
 2296TIP3    H128523   1.706   5.606   1.250 -0.7263  0.3160  0.9660
 2296TIP3    H228524   1.649   5.521   1.361  0.6366 -0.6324  0.9714
 2297TIP3   OH228525   2.351   1.794   7.658  0.3542  0.0048  0.1073
 2297TIP3    H128526   2.311   1.869   7.614 -0.5149 -0.2723  0.4081
 2297TIP3    H228527   2.313   1.795   7.746 -2.2881 -2.6866 -0.8417
 2298TIP3   OH228528   2.552   4.117   6.686 -0.1909 -0.5316 -0.2809
 2298TIP3    H128529   2.633   4.120   6.634  1.0522  0.3076  1.6131
 2298TIP3    H228530   2.501   4.192   6.656  0.6487  0.1246 -0.0992
 2299TIP3   OH228531   6.789   6.616   1.987  0.5299  0.4273 -0.1378
 2299TIP3    H128532   6.800   6.688   2.049  0.4743  0.6498 -0.3841
 2299TIP3    H228533   6.743   6.548   2.037  0.1985  0.7305 -0.0319
 2300TIP3   OH228534   0.001   4.848   7.799  0.3757 -0.3245 -0.9803
 2300TIP3    H128535   0.072   4.907   7.822  1.1747 -1.3945 -0.6432
 2300TIP3    H228536  -0.078   4.904   7.801  0.2805 -0.1431  4.1738
 2301TIP3   OH228537   1.006   2.103   0.565  0.3394 -0.2331  0.1945
 2301TIP3    H128538   1.076   2.086   0.503 -0.7703 -1.9652 -0.6470
 2301TIP3    H228539   1.025   2.046   0.640 -0.2303 -0.8299 -0.1047
 2302TIP3   OH228540   0.203   4.408   0.856  0.6377 -0.1272 -0.4289
 2302TIP3    H128541   0.155   4.331   0.887  1.6677 -0.2876  0.8374
 2302TIP3    H228542   0.280   4.413   0.913  2.6395 -0.4107 -2.9371
 2303TIP3   OH228543   6.173   2.521   7.999  0.1954 -0.1014 -1.2226
 2303TIP3    H128544   6.221   2.502   8.080 -0.6896  0.4931 -0.5402
 2303TIP3    H228545   6.240   2.523   7.931  0.8819 -1.1645 -0.6011
 2304TIP3   OH228546   5.014   5.094   1.846  0.4537  0.3442 -0.3027
 2304TIP3    H128547   5.019   5.178   1.802 -1.6221 -0.0088 -1.3231
 2304TIP3    H228548   5.033   5.114   1.938  1.0670  1.7181 -0.7056
 2305TIP3   OH228549   6.291   2.246   1.435 -0.0856  0.0927  0.3707
 2305TIP3    H128550   6.211   2.299   1.435 -0.7686 -0.8786 -0.5964
 2305TIP3    H228551   6.362   2.309   1.444 -0.7214  1.4465 -2.6812
 2306TIP3   OH228552   0.118   2.881   1.514  0.1033  0.7617 -0.1899
 2306TIP3    H128553   0.087   2.960   1.558  0.7257  2.4880 -2.6459
 2306TIP3    H228554   0.082   2.887   1.425  0.8477 -1.3050 -0.6784
 2307TIP3   OH228555   2.570   0.445   2.672 -0.1376 -0.6326 -0.6662
 2307TIP3    H128556   2.580   0.381   2.743 -0.2010  1.2884  1.1907
 2307TIP3    H228557   2.636   0.420   2.607 -0.7663 -3.0791 -0.4698
 2308TIP3   OH228558   3.024   5.267   1.548 -0.4576  0.8090  0.0142
 2308TIP3    H128559   2.959   5.197   1.539  0.4114  0.0551 -0.5277
 2308TIP3    H228560   2.972   5.348   1.547 -1.3637  0.2388 -0.7737
 2309TIP3   OH228561   6.843   2.244   8.775 -0.3323 -0.0542  0.2646
 2309TIP3    H128562   6.795   2.281   8.701 -0.1763  0.4693  0.4202
 2309TIP3    H228563   6.934   2.270   8.760  0.1002 -1.9638 -0.6049
 2310TIP3   OH228564   3.824   3.761   6.971 -0.1220  0.0763 -0.2356
 2310TIP3    H128565   3.826   3.765   6.875  0.1903 -1.1475 -0.3005
 2310TIP3    H228566   3.897   3.817   6.998 -1.1901  1.7193 -0.6300
 2311TIP3   OH228567   1.320   2.604   2.268  0.0126 -0.0489 -0.0674
 2311TIP3    H128568   1.361   2.533   2.219  0.5317 -0.1324  0.4811
 2311TIP3    H228569   1.372   2.611   2.349 -0.8744  0.0284  0.5106
 2312TIP3   OH228570   4.107   6.278   8.633 -0.4991  0.1760 -0.4338
 2312TIP3    H128571   4.066   6.322   8.707  0.4474  0.9929 -0.3701
 2312TIP3    H228572   4.069   6.320   8.556 -1.7563 -0.9240 -0.4511
 2313TIP3   OH228573   2.924   3.393   6.677 -0.2342  0.1181  0.6485
 2313TIP3    H128574   2.990   3.457   6.655  0.4613 -0.4661  1.0037
 2313TIP3    H228575   2.859   3.401   6.607  1.8986 -1.6775 -1.7424
 2314TIP3   OH228576   3.219   3.393   0.204  0.5054  0.4821 -0.8015
 2314TIP3    H128577   3.163   3.319   0.182 -0.5634  1.7341 -2.5297
 2314TIP3    H228578   3.173   3.439   0.274  0.8367 -0.0798 -0.2027
 2315TIP3   OH228579   4.788   5.343   8.076  0.5330  0.2808  0.0728
 2315TIP3    H128580   4.776   5.437   8.086  1.6247  0.8342 -2.7870
 2315TIP3    H228581   4.871   5.324   8.119  1.1141  0.9655 -0.7248
 2316TIP3   OH228582   2.010   2.854   7.931 -0.5375 -0.9068 -0.0947
 2316TIP3    H128583   1.962   2.882   8.009  0.0481  0.6789 -0.2465
 2316TIP3    H228584   2.019   2.759   7.940 -0.2680 -0.7398  1.9104
 2317TIP3   OH228585   3.952   1.447   1.010  0.6366  0.0564  0.7711
 2317TIP3    H128586   3.947   1.481   1.099  0.8496 -0.2834  0.9128
 2317TIP3    H228587   3.883   1.382   1.005  0.3979  0.3240  0.5794
 2318TIP3   OH228588   3.063   4.528   7.499 -0.7307  0.2126 -0.5232
 2318TIP3    H128589   3.124   4.602   7.489  0.6265 -0.9565 -1.2705
 2318TIP3    H228590   3.007   4.553   7.572 -0.2827  1.9615 -0.7263
 2319TIP3   OH228591   2.480   6.623   1.290  0.0869  0.1252  0.1982
 2319TIP3    H128592   2.408   6.583   1.241  0.4420  0.4865 -0.6278
 2319TIP3    H228593   2.507   6.554   1.351 -0.7320 -0.1340  0.2892
 2320TIP3   OH228594   0.310   6.160   2.285  0.2444 -0.3564 -0.1225
 2320TIP3    H128595   0.310   6.108   2.205 -0.2138  1.5361 -1.4239
 2320TIP3    H228596   0.251   6.233   2.267 -0.5429 -0.3137  2.2751
 2321TIP3   OH228597   2.226   2.830   6.968 -0.8375  0.0339 -0.4291
 2321TIP3    H128598   2.276   2.801   7.043 -0.3769 -0.7759 -1.0321
 2321TIP3    H228599   2.175   2.905   7.000  1.4811  1.5686 -0.0306
 2322TIP3   OH228600   5.595   2.031   7.654 -0.3010 -0.0151  0.4442
 2322TIP3    H128601   5.657   2.050   7.584 -0.4715  0.6941  0.4722
 2322TIP3    H228602   5.632   1.956   7.700 -0.3135 -0.6500 -0.5516
 2323TIP3   OH228603   1.391   1.215   0.101  0.3220  0.1958 -0.2150
 2323TIP3    H128604   1.317   1.175   0.055  0.7463  1.1809 -1.8537
 2323TIP3    H228605   1.468   1.189   0.050  0.9449  0.4263  0.5803
 2324TIP3   OH228606   1.870   1.382   6.671 -0.8388  0.0567 -0.0008
 2324TIP3    H128607   1.776   1.385   6.655 -0.9358 -0.9780  0.3524
 2324TIP3    H228608   1.894   1.290   6.662  0.6550  0.6179 -2.9448
 2325TIP3   OH228609   6.403   6.384   0.017  0.8256  0.4856 -0.2005
 2325TIP3    H128610   6.485   6.335   0.025  1.1371  1.0461  0.0813
 2325TIP3    H228611   6.427   6.465  -0.027  0.7750  1.4690  1.5036
 2326TIP3   OH228612   5.791   6.444   0.667  0.0804 -1.0500 -0.4415
 2326TIP3    H128613   5.806   6.539   0.660 -0.6726 -0.7734  1.2893
 2326TIP3    H228614   5.784   6.415   0.576  3.1527  0.0562 -1.1503
 2327TIP3   OH228615   5.977   4.618   7.555 -0.3602  0.1716 -0.0167
 2327TIP3    H128616   5.889   4.582   7.562 -0.7198  1.2216  1.3096
 2327TIP3    H228617   6.020   4.564   7.489 -1.6992 -0.9408 -0.0229
 2328TIP3   OH228618   2.063   4.979   0.082  0.5891  0.1903  0.1165
 2328TIP3    H128619   2.123   5.024   0.142  1.8206  0.1956 -1.0724
 2328TIP3    H228620   2.087   4.887   0.090  0.1222  0.0815  0.3044
 2329TIP3   OH228621   0.437   4.733   2.388 -0.0760  0.0468  0.5239
 2329TIP3    H128622   0.473   4.647   2.365 -0.3463  0.4703 -1.7018
 2329TIP3    H228623   0.346   4.715   2.413 -0.2211 -0.3095 -0.2226
 2330TIP3   OH228624   5.942   1.694   6.743 -0.5414 -0.0116  0.2259
 2330TIP3    H128625   5.958   1.600   6.746 -0.4433 -0.0405 -0.9365
 2330TIP3    H228626   5.886   1.707   6.666 -1.6182  0.7345  1.0932
 2331TIP3   OH228627   0.049   4.080   1.237  0.3978  0.2713  0.3116
 2331TIP3    H128628   0.031   4.049   1.325  1.0270  0.9379  0.6895
 2331TIP3    H228629  -0.037   4.100   1.200  0.0543 -1.0417  0.3699
 2332TIP3   OH228630   4.077   4.925   1.122  0.5182 -0.0591 -0.2951
 2332TIP3    H128631   4.085   4.979   1.201 -0.7201  0.0327 -0.2078
 2332TIP3    H228632   4.057   4.988   1.052 -0.0007 -0.2922 -0.3658
 2333TIP3   OH228633   6.492   4.177   7.207  0.3805 -0.7724  0.1569
 2333TIP3    H128634   6.420   4.228   7.244 -0.8275 -2.1862 -0.1490
 2333TIP3    H228635   6.541   4.239   7.154 -1.6946 -0.1356 -1.1136
 2334TIP3   OH228636   3.360   1.092   8.166  0.0516 -0.4425 -0.5402
 2334TIP3    H128637   3.400   1.113   8.250 -0.4839  0.2094 -0.4386
 2334TIP3    H228638   3.323   1.175   8.136  1.5150 -0.3056 -2.1299
 2335TIP3   OH228639   4.863   6.337   1.577  0.3161 -0.1152  0.3733
 2335TIP3    H128640   4.891   6.354   1.667 -0.5390  0.8405  0.4696
 2335TIP3    H228641   4.800   6.406   1.558  0.6266 -0.2004 -1.0358
 2336TIP3   OH228642   3.400   0.693   7.276 -0.4250  0.1509  0.2763
 2336TIP3    H128643   3.478   0.675   7.329  0.3952  1.2890 -0.4814
 2336TIP3    H228644   3.375   0.608   7.241  0.5507 -0.2301  0.4500
 2337TIP3   OH228645   1.291   5.579   8.380  0.8089 -0.1401  0.0595
 2337TIP3    H128646   1.256   5.514   8.441  1.0452  0.4998  0.9028
 2337TIP3    H228647   1.219   5.596   8.319 -0.4320  1.2191  1.8102
 2338TIP3   OH228648   4.514   4.762   7.735 -0.1984  0.4442 -0.4663
 2338TIP3    H128649   4.425   4.741   7.706  0.5454 -1.0858 -1.7751
 2338TIP3    H228650   4.536   4.844   7.689 -0.2484 -0.2045 -1.6872
 2339TIP3   OH228651   0.676   2.786   1.708  0.3299  0.3775 -0.0028
 2339TIP3    H128652   0.765   2.755   1.727  0.5707 -0.2031 -1.9090
 2339TIP3    H228653   0.687   2.880   1.690  0.7704  0.0847 -1.3684
 2340TIP3   OH228654   2.355   2.530   8.417 -0.1473 -0.0998  0.1193
 2340TIP3    H128655   2.381   2.438   8.415 -1.3730 -0.4553 -1.4158
 2340TIP3    H228656   2.376   2.563   8.330 -1.8881  0.4154 -0.1514
 2341TIP3   OH228657   3.488   3.015   1.225  0.3747  0.1746 -0.0086
 2341TIP3    H128658   3.395   2.999   1.213  0.3492 -0.7865  1.2476
 2341TIP3    H228659   3.497   3.036   1.318  1.4531 -0.1075 -0.0309
 2342TIP3   OH228660   6.576   2.001   0.056  0.0143 -0.0758 -0.0308
 2342TIP3    H128661   6.604   2.055  -0.019 -0.7312  0.3057 -0.0377
 2342TIP3    H228662   6.522   2.059   0.109  0.4388 -0.3805  0.7550
 2343TIP3   OH228663   0.619   1.936   8.053  0.4663  0.1462 -0.4670
 2343TIP3    H128664   0.686   1.988   8.008 -0.0852  1.4327  0.1407
 2343TIP3    H228665   0.538   1.986   8.039  0.1397  0.1294  1.2158
 2344TIP3   OH228666   4.318   2.589   6.390  0.3663 -0.0071 -0.1614
 2344TIP3    H128667   4.412   2.604   6.380  0.0865  1.8220 -0.3628
 2344TIP3    H228668   4.278   2.641   6.321 -0.7925 -1.1026 -0.3458
 2345TIP3   OH228669   4.190   0.426   2.313 -0.1704 -0.3952 -0.3665
 2345TIP3    H128670   4.180   0.343   2.266  2.8559 -1.1390  0.0960
 2345TIP3    H228671   4.255   0.475   2.262  1.0482 -0.0315  1.4391
 2346TIP3   OH228672   0.658   6.009   6.513  0.5527 -0.0238  0.9270
 2346TIP3    H128673   0.708   5.929   6.495  0.8967  0.6975 -1.7005
 2346TIP3    H228674   0.567   5.984   6.500  0.6830  0.0665 -0.2356
 2347TIP3   OH228675   0.382   2.965   8.219 -0.2856 -0.5311  0.4309
 2347TIP3    H128676   0.302   2.988   8.171  0.4269 -0.2437 -0.6737
 2347TIP3    H228677   0.432   3.046   8.221  0.6119 -1.0432 -0.1978
 2348TIP3   OH228678   3.651   4.251   1.524 -0.4375 -0.5636 -0.4291
 2348TIP3    H128679   3.682   4.265   1.435 -2.3820 -0.7216 -1.1752
 2348TIP3    H228680   3.597   4.328   1.542  0.2078 -0.3644  0.7646
 2349TIP3   OH228681   6.792   1.333   1.316 -0.0828 -0.3239 -0.0420
 2349TIP3    H128682   6.762   1.421   1.339 -0.9797 -0.7009  0.2906
 2349TIP3    H228683   6.874   1.322   1.364  0.4362  0.6017 -0.6819
 2350TIP3   OH228684   5.125   0.628   7.252 -0.2019 -0.6743 -0.1507
 2350TIP3    H128685   5.194   0.654   7.190  1.4583 -0.9126  1.4877
 2350TIP3    H228686   5.093   0.710   7.288 -0.4443 -0.5834 -0.5622
 2351TIP3   OH228687   0.122   1.227   1.116  0.3732  0.2171  0.3458
 2351TIP3    H128688   0.029   1.248   1.102  0.5052  0.7402  0.2359
 2351TIP3    H228689   0.169   1.302   1.080  0.8605 -0.2964 -0.1051
 2352TIP3   OH228690   5.774   5.630   7.258 -0.5381 -0.3153  0.1960
 2352TIP3    H128691   5.721   5.601   7.184  1.7920 -1.4256 -1.1554
 2352TIP3    H228692   5.759   5.564   7.326  0.6351 -1.8274 -0.9413
 2353TIP3   OH228693   6.095   0.182   7.563 -0.4102  0.2316  0.1321
 2353TIP3    H128694   6.107   0.276   7.556  0.1428  0.2162  0.7719
 2353TIP3    H228695   6.025   0.171   7.627 -0.2591  0.2056  0.2946
 2354TIP3   OH228696   5.163   5.429   7.121 -0.3018  0.0347 -0.0353
 2354TIP3    H128697   5.190   5.353   7.173  0.9288  0.5076  0.0454
 2354TIP3    H228698   5.067   5.430   7.128 -0.2322 -0.4946  1.3967
 2355TIP3   OH228699   4.574   5.412   7.368 -0.6351  0.1620 -0.1344
 2355TIP3    H128700   4.611   5.378   7.449 -0.1465 -0.0203 -0.4317
 2355TIP3    H228701   4.649   5.443   7.318 -0.9973  0.8961 -0.2315
 2356TIP3   OH228702   1.767   6.524   8.083 -0.3717  0.1835  0.4907
 2356TIP3    H128703   1.750   6.431   8.092 -1.7747  0.2838 -0.5932
 2356TIP3    H228704   1.725   6.548   8.000  0.2144  1.7176  0.5951
 2357TIP3   OH228705   0.691   1.606   0.695  0.3384 -0.0011 -0.2804
 2357TIP3    H128706   0.771   1.558   0.672  1.6125  2.2995 -0.9178
 2357TIP3    H228707   0.675   1.584   0.787  3.0896  1.2719  0.5926
 2358TIP3   OH228708   2.045   3.420   1.697  0.3143 -0.1929  0.1649
 2358TIP3    H128709   2.022   3.365   1.623  0.4771 -0.0501  0.0069
 2358TIP3    H228710   2.139   3.432   1.690  0.3440 -0.2516  0.4457
 2359TIP3   OH228711   3.754   3.111   8.133 -0.3995  0.7384  0.1991
 2359TIP3    H128712   3.802   3.187   8.098  0.2435  0.1091 -0.3279
 2359TIP3    H228713   3.781   3.107   8.225  1.9649 -0.5762 -0.4475
 2360TIP3   OH228714   2.949   2.119   7.897 -0.5889 -0.1971  0.1100
 2360TIP3    H128715   2.864   2.160   7.913 -1.3558 -2.3462  2.1828
 2360TIP3    H228716   2.947   2.095   7.804 -0.5578  3.1731 -0.8907
 2361TIP3   OH228717   5.778   0.272   2.127  0.1709  0.2121 -0.2130
 2361TIP3    H128718   5.774   0.187   2.083 -0.2516  0.4440 -0.6267
 2361TIP3    H228719   5.864   0.306   2.105  0.4594 -0.2308  0.1938
 2362TIP3   OH228720   0.360   0.953   1.817  0.0600 -0.1941 -0.3309
 2362TIP3    H128721   0.379   1.029   1.762  1.1760 -0.1954  0.0102
 2362TIP3    H228722   0.272   0.926   1.793  0.2950  0.1703 -1.6835
 2363TIP3   OH228723   0.300   6.693   8.675  0.0729  0.1260 -0.4632
 2363TIP3    H128724   0.290   6.788   8.677 -1.2439  0.0001  1.5184
 2363TIP3    H228725   0.296   6.666   8.767 -0.4072 -1.9238 -1.0305
 2364TIP3   OH228726   3.634   3.319   0.914  0.6399 -0.0374 -0.2283
 2364TIP3    H128727   3.673   3.232   0.912 -2.8233 -1.8326  1.0860
 2364TIP3    H228728   3.653   3.357   0.829  1.6332 -2.3829 -1.1188
 2365TIP3   OH228729   4.248   3.036   0.796 -0.6000  0.5001  0.0855
 2365TIP3    H128730   4.329   3.016   0.845 -1.3641 -0.8407  0.8565
 2365TIP3    H228731   4.247   2.971   0.725 -0.2570  1.4867 -0.8441
 2366TIP3   OH228732   5.474   4.289   0.986  0.3564 -0.0112  0.0079
 2366TIP3    H128733   5.439   4.332   0.908 -1.8110 -0.2377  0.7881
 2366TIP3    H228734   5.470   4.196   0.965  2.1717 -0.0085 -0.5222
 2367TIP3   OH228735   3.881   6.644   7.169  0.1209  0.0150  0.5089
 2367TIP3    H128736   3.812   6.580   7.150  1.6365 -2.3779  2.5144
 2367TIP3    H228737   3.858   6.679   7.256  0.5678  0.4580  0.4543
 2368TIP3   OH228738   6.650   5.216   2.606 -0.0567 -0.0082  0.2255
 2368TIP3    H128739   6.565   5.235   2.645 -0.3429 -1.3164  0.2843
 2368TIP3    H228740   6.630   5.161   2.531  0.7938 -1.2508  0.8826
 2369TIP3   OH228741   0.744   5.661   8.501  0.0605 -0.1776 -0.0193
 2369TIP3    H128742   0.704   5.575   8.516 -0.1406 -0.2750 -1.0702
 2369TIP3    H228743   0.672   5.717   8.474  0.0412  0.5638  1.4662
 2370TIP3   OH228744   2.822   0.392   1.092 -0.3882  0.4847 -1.0130
 2370TIP3    H128745   2.816   0.300   1.119 -0.9517  0.6385 -0.5919
 2370TIP3    H228746   2.914   0.406   1.073 -0.3568 -0.2796 -1.4595
 2371TIP3   OH228747   6.629   3.714   1.700  0.1603 -0.3134 -0.1449
 2371TIP3    H128748   6.702   3.666   1.660  0.6594 -0.2566  0.6765
 2371TIP3    H228749   6.664   3.802   1.715  0.0166 -0.3581  0.4896
 2372TIP3   OH228750   3.553   2.588   6.261 -0.4121  0.1539  0.8132
 2372TIP3    H128751   3.517   2.507   6.299 -2.5919  0.4320 -0.4918
 2372TIP3    H228752   3.625   2.558   6.206 -1.4681 -1.0137 -0.0096
 2373TIP3   OH228753   0.735   2.015   0.770  0.2260 -0.0888  0.1737
 2373TIP3    H128754   0.742   1.944   0.834  0.6627 -0.4718 -0.2882
 2373TIP3    H228755   0.709   1.971   0.689  3.3233 -0.1673 -0.8722
 2374TIP3   OH228756   0.168   5.927   8.055  0.4623  0.2274 -0.4270
 2374TIP3    H128757   0.192   6.016   8.081  1.4373 -0.5497  1.5566
 2374TIP3    H228758   0.232   5.903   7.988  0.7564  0.7069 -0.3215
 2375TIP3   OH228759   4.695   3.959   7.853  0.0024  0.8803 -0.0498
 2375TIP3    H128760   4.747   4.038   7.839  1.0161  0.1079 -0.8350
 2375TIP3    H228761   4.760   3.889   7.863 -0.8708 -0.1056 -0.9702
 2376TIP3   OH228762   0.778   0.374   7.923  0.0127  0.4051  0.3658
 2376TIP3    H128763   0.805   0.356   7.833  1.6447  0.4881  0.8053
 2376TIP3    H228764   0.804   0.465   7.938  0.7432  0.0705  1.2463
 2377TIP3   OH228765   6.562   0.699   7.641 -0.1317 -0.6142  0.0834
 2377TIP3    H128766   6.513   0.619   7.623 -0.6203 -0.4301  0.5554
 2377TIP3    H228767   6.506   0.769   7.608 -0.2131 -0.4013  0.6598
 2378TIP3   OH228768   3.112   2.610   0.719 -0.1896 -0.3704  0.3154
 2378TIP3    H128769   3.160   2.527   0.721  0.5788  0.0635  2.2518
 2378TIP3    H228770   3.102   2.630   0.626  3.3675 -0.5020 -0.2318
 2379TIP3   OH228771   5.643   5.011   7.503 -0.0922 -0.0432  0.5404
 2379TIP3    H128772   5.605   5.048   7.423 -2.2481 -0.1999  1.4265
 2379TIP3    H228773   5.689   4.933   7.473 -0.4297  0.1785 -0.6202
 2380TIP3   OH228774   6.818   2.417   0.876  0.2980  0.1804 -0.1320
 2380TIP3    H128775   6.777   2.455   0.799 -0.7759 -0.0986  0.2847
 2380TIP3    H228776   6.798   2.478   0.947 -2.2691 -1.5254  0.7414
 2381TIP3   OH228777   6.258   2.676   2.097  0.7746 -0.3815 -0.2414
 2381TIP3    H128778   6.271   2.702   2.005 -2.1862  0.6329 -0.4811
 2381TIP3    H228779   6.171   2.709   2.119  2.0241  0.9065  3.5105
 2382TIP3   OH228780   3.073   2.086   8.145 -0.0539  0.0279 -0.0169
 2382TIP3    H128781   3.047   2.087   8.053  0.3923 -1.1187 -0.1757
 2382TIP3    H228782   3.011   2.146   8.188 -0.7550 -0.0100 -0.9290
 2383TIP3   OH228783   2.609   3.693   0.520  0.2484  0.3422  0.0921
 2383TIP3    H128784   2.674   3.764   0.517 -0.3103  0.9355  1.4141
 2383TIP3    H228785   2.544   3.716   0.453  1.3290 -0.2430 -1.2286
 2384TIP3   OH228786   2.219   5.171   1.867  0.0805  0.2612  0.8305
 2384TIP3    H128787   2.210   5.255   1.911 -1.0960  1.0805 -0.8830
 2384TIP3    H228788   2.192   5.187   1.777  1.6103 -1.5380 -0.0295
 2385TIP3   OH228789   1.639   5.312   0.871 -0.0050 -0.1153 -0.2068
 2385TIP3    H128790   1.692   5.317   0.792  1.4721  1.0312  0.7975
 2385TIP3    H228791   1.556   5.353   0.847  1.7205  3.8375 -0.2315
 2386TIP3   OH228792   1.050   0.916   1.167  0.4399  0.0229  0.1582
 2386TIP3    H128793   1.044   0.954   1.254 -0.1482 -0.3476  0.2873
 2386TIP3    H228794   0.962   0.925   1.131  0.6640  0.1235 -0.3787
 2387TIP3   OH228795   0.668   6.463   1.425  0.8187  0.0223  0.3059
 2387TIP3    H128796   0.754   6.499   1.400  0.6520 -0.1342 -0.5194
 2387TIP3    H228797   0.658   6.488   1.517  2.3885 -1.1740  0.8581
 2388TIP3   OH228798   4.965   4.234   2.126 -0.3729  0.4858 -0.0542
 2388TIP3    H128799   4.964   4.139   2.115 -2.3300  0.6222 -1.6963
 2388TIP3    H228800   5.047   4.262   2.085 -0.0955 -0.4431 -0.1679
 2389TIP3   OH228801   1.203   0.869   7.792  0.5645 -0.0491  0.0924
 2389TIP3    H128802   1.298   0.864   7.803  0.6191 -0.6313 -0.5962
 2389TIP3    H228803   1.191   0.881   7.698 -0.0883 -1.4723 -0.0258
 2390TIP3   OH228804   1.436   5.192   8.526 -0.3078  0.1858 -0.0260
 2390TIP3    H128805   1.496   5.264   8.509 -0.3817  0.1719 -0.3514
 2390TIP3    H228806   1.427   5.190   8.622  0.7213 -0.2238  0.0789
 2391TIP3   OH228807   0.039   0.465   7.076 -0.1756  0.0098  0.5682
 2391TIP3    H128808   0.003   0.552   7.096 -0.2028  0.6678 -1.9986
 2391TIP3    H228809  -0.036   0.415   7.043  0.4063  0.0809 -0.9622
 2392TIP3   OH228810   4.982   0.750   6.981 -0.3672  0.0214  0.7696
 2392TIP3    H128811   5.038   0.705   6.918 -0.9471  0.4374 -0.0710
 2392TIP3    H228812   4.988   0.698   7.061 -0.4573 -1.1404  0.0486
 2393TIP3   OH228813   2.198   3.087   7.937  0.6138 -0.0738  0.1556
 2393TIP3    H128814   2.111   3.123   7.918 -0.2514 -2.5858 -1.1933
 2393TIP3    H228815   2.259   3.153   7.904 -0.8218  0.7600 -0.9555
 2394TIP3   OH228816   4.530   1.075   7.390 -0.1073 -0.1684 -0.0808
 2394TIP3    H128817   4.590   1.091   7.318  0.1488  0.2748  0.2251
 2394TIP3    H228818   4.586   1.062   7.466 -0.3986  1.1011  0.3755
 2395TIP3   OH228819   2.762   0.178   7.537 -0.4111  0.1540 -0.2553
 2395TIP3    H128820   2.801   0.143   7.617 -1.6789 -0.3303  0.1665
 2395TIP3    H228821   2.820   0.250   7.512 -1.3456  2.0048  2.4968
 2396TIP3   OH228822   2.339   0.405   8.177 -0.4997  0.5325  0.1238
 2396TIP3    H128823   2.392   0.484   8.173  1.3528 -0.4378  2.5171
 2396TIP3    H228824   2.266   0.428   8.235  1.1948  0.0072  2.6052
 2397TIP3   OH228825   2.409   4.873   1.374  0.4837 -0.1997 -0.3656
 2397TIP3    H128826   2.396   4.873   1.279  0.3869  1.0932 -0.3670
 2397TIP3    H228827   2.492   4.826   1.386  0.2862 -0.7549 -1.0450
 2398TIP3   OH228828   0.399   0.924   7.096 -0.1523  0.0769 -0.6264
 2398TIP3    H128829   0.340   0.997   7.078 -1.4827 -1.0764 -1.0913
 2398TIP3    H228830   0.483   0.953   7.059 -0.1884  2.0197  0.6557
 2399TIP3   OH228831   4.225   4.110   0.401 -0.2493 -0.2638  0.0907
 2399TIP3    H128832   4.268   4.195   0.412 -1.3957  0.4971 -1.1092
 2399TIP3    H228833   4.261   4.075   0.320 -0.0987 -0.7502  0.3589
 2400TIP3   OH228834   0.653   4.882   7.283 -0.4627  0.1774 -0.1077
 2400TIP3    H128835   0.583   4.840   7.233  0.0422 -1.8856  0.8260
 2400TIP3    H228836   0.687   4.949   7.225 -0.1683 -1.8347 -2.3989
 2401TIP3   OH228837   1.805   5.072   0.178  0.0814  0.3742 -0.0889
 2401TIP3    H128838   1.894   5.042   0.198 -0.2940 -1.7022 -1.2930
 2401TIP3    H228839   1.806   5.088   0.084 -0.9763 -0.1901 -0.2009
 2402TIP3   OH228840   5.031   3.523   0.019 -0.3705 -0.1822 -0.4169
 2402TIP3    H128841   5.091   3.591  -0.011  0.8094 -1.6754 -1.6407
 2402TIP3    H228842   5.006   3.549   0.108  1.2033  1.0745 -0.3099
 2403TIP3   OH228843   0.217   0.898   8.486  0.0859 -0.0286 -0.4051
 2403TIP3    H128844   0.152   0.844   8.530 -1.4551  2.0528  0.0634
 2403TIP3    H228845   0.183   0.909   8.397  0.0209  0.6884 -0.2980
 2404TIP3   OH228846   2.078   2.371   1.670  0.4978 -0.2080  0.2380
 2404TIP3    H128847   2.021   2.327   1.733  1.2787 -1.5540  0.0295
 2404TIP3    H228848   2.019   2.422   1.616 -0.5100 -1.4386  0.1349
 2405TIP3   OH228849   1.762   2.956   0.784  0.2168 -0.4299 -0.1371
 2405TIP3    H128850   1.763   3.043   0.745 -0.4779 -1.6689 -3.1934
 2405TIP3    H228851   1.812   2.902   0.723  1.3040 -2.0969  2.0681
 2406TIP3   OH228852   4.657   2.506   0.309  0.2872 -0.2427  0.7892
 2406TIP3    H128853   4.621   2.594   0.310 -1.3632 -0.8229 -1.1846
 2406TIP3    H228854   4.632   2.468   0.393 -0.7868  0.5062  0.8249
 2407TIP3   OH228855   0.887   6.217   0.523 -0.6419 -0.2531 -0.4681
 2407TIP3    H128856   0.952   6.170   0.576 -0.2609  0.0494 -0.6670
 2407TIP3    H228857   0.838   6.269   0.587  0.4129  0.8170 -0.5013
 2408TIP3   OH228858   4.543   5.045   7.704  0.3908 -0.0156 -0.1479
 2408TIP3    H128859   4.455   5.082   7.716  0.2657  0.3813 -2.0144
 2408TIP3    H228860   4.598   5.093   7.765 -0.4950  0.5277  0.2454
 2409TIP3   OH228861   0.896   0.978   2.891 -0.2503  0.1752  0.3176
 2409TIP3    H128862   0.925   0.998   2.802  0.2162 -0.4557  0.3155
 2409TIP3    H228863   0.879   1.063   2.931  1.4996  0.5875  0.2695
 2410TIP3   OH228864   3.453   3.567   8.221  0.0095 -0.4616  0.6618
 2410TIP3    H128865   3.460   3.619   8.302 -0.4425 -0.3554  0.6357
 2410TIP3    H228866   3.543   3.558   8.191  0.0092  1.4611 -0.0519
 2411TIP3   OH228867   1.897   6.747   1.118 -0.5979 -0.3846 -0.0763
 2411TIP3    H128868   1.959   6.777   1.051 -2.0462  0.4881 -1.0854
 2411TIP3    H228869   1.884   6.654   1.098  0.2071 -0.5254  0.0163
 2412TIP3   OH228870   5.343   3.174   0.397  0.4917 -0.3038  0.2796
 2412TIP3    H128871   5.414   3.113   0.416  0.4894  0.0546  1.4780
 2412TIP3    H228872   5.268   3.117   0.376  1.4328 -0.7110 -2.5136
 2413TIP3   OH228873   5.724   5.206   6.863 -0.5881  0.2185 -0.0762
 2413TIP3    H128874   5.767   5.277   6.910 -0.3930  0.1818 -0.2001
 2413TIP3    H228875   5.726   5.233   6.771 -0.5149  0.0568 -0.1228
 2414TIP3   OH228876   4.713   0.632   7.211  0.2234 -0.2642 -0.0812
 2414TIP3    H128877   4.766   0.571   7.263 -0.1339 -0.7450 -0.2756
 2414TIP3    H228878   4.716   0.597   7.122  1.1843  0.7954 -0.4834
 2415TIP3   OH228879   3.417   6.313   6.490 -0.4857 -0.3961 -0.2706
 2415TIP3    H128880   3.426   6.313   6.394 -1.8473 -3.4160 -0.5347
 2415TIP3    H228881   3.473   6.241   6.519 -1.4766 -0.7117  0.9628
 2416TIP3   OH228882   4.602   4.574   8.116 -0.4272  0.2887 -0.1973
 2416TIP3    H128883   4.614   4.534   8.030 -2.3274 -0.2189 -0.2537
 2416TIP3    H228884   4.691   4.602   8.141  0.8565 -2.9572 -0.6117
 2417TIP3   OH228885   4.716   6.501   6.581 -0.1365 -0.3505 -0.7377
 2417TIP3    H128886   4.672   6.582   6.606  0.0885  0.4667 -2.7591
 2417TIP3    H228887   4.659   6.431   6.612 -2.8812  0.6523 -3.0924
 2418TIP3   OH228888   3.496   4.486   0.009 -0.1582  0.3654 -0.7119
 2418TIP3    H128889   3.511   4.579   0.026  0.1731 -0.0445  1.6358
 2418TIP3    H228890   3.421   4.463   0.064  0.1497 -0.8602 -0.7554
 2419TIP3   OH228891   5.210   4.893   1.806 -0.2431 -0.2213 -0.3890
 2419TIP3    H128892   5.300   4.873   1.829 -1.1770 -1.3024  2.8542
 2419TIP3    H228893   5.201   4.987   1.822 -0.4292 -0.6614  2.5951
 2420TIP3   OH228894   2.058   4.073   0.513  0.1516  0.2567 -0.5105
 2420TIP3    H128895   2.078   4.001   0.572 -0.1925  0.7006  0.1555
 2420TIP3    H228896   2.143   4.097   0.475  0.4143  0.1422  0.0049
 2421TIP3   OH228897   2.684   1.564   7.124  0.4380 -0.2295 -0.2738
 2421TIP3    H128898   2.727   1.520   7.197  1.8949  0.3541 -0.7474
 2421TIP3    H228899   2.689   1.657   7.146 -1.4178 -0.1654  0.0808
 2422TIP3   OH228900   1.873   2.639   0.234 -0.1016 -0.2958 -0.0288
 2422TIP3    H128901   1.849   2.549   0.210  1.7090 -1.1501  1.1351
 2422TIP3    H228902   1.967   2.643   0.221 -0.0989  1.3454  0.2929
 2423TIP3   OH228903   5.997   4.498   8.160 -0.2794 -0.1777 -0.2560
 2423TIP3    H128904   5.954   4.483   8.245  1.2626 -0.8948  0.4290
 2423TIP3    H228905   5.941   4.455   8.096  0.8764 -3.7971  0.9572
 2424TIP3   OH228906   5.968   6.453   7.766 -0.2573  0.0227 -0.1127
 2424TIP3    H128907   5.927   6.396   7.701 -0.3850  0.4766 -0.4341
 2424TIP3    H228908   6.042   6.492   7.719 -0.1710  0.1226  0.1057
 2425TIP3   OH228909   5.075   2.834   8.389 -0.4546 -0.1273  0.1060
 2425TIP3    H128910   5.151   2.777   8.375 -0.8146 -1.0170  1.4974
 2425TIP3    H228911   5.089   2.909   8.331  1.4266 -0.3292  0.2523
 2426TIP3   OH228912   5.976   4.703   0.019  0.1697  0.1852  0.4544
 2426TIP3    H128913   6.053   4.757   0.005  0.1109  0.4219  1.0054
 2426TIP3    H228914   5.941   4.733   0.104 -1.0782  0.7645 -0.2368
 2427TIP3   OH228915   6.751   2.495   1.614  0.1873  0.0558  0.1793
 2427TIP3    H128916   6.764   2.401   1.616  2.8039  0.3552  0.1885
 2427TIP3    H228917   6.817   2.528   1.552  0.6979  2.0457  1.6742
 2428TIP3   OH228918   4.138   1.248   0.539  0.2933  0.1845 -0.2035
 2428TIP3    H128919   4.140   1.195   0.458  0.5114  0.2341 -0.2316
 2428TIP3    H228920   4.048   1.279   0.545  0.5730  1.2444 -1.1208
 2429TIP3   OH228921   2.257   4.903   1.953  0.1786  0.1235 -0.1689
 2429TIP3    H128922   2.227   4.894   2.043  1.7067  0.2641  0.3762
 2429TIP3    H228923   2.221   4.986   1.923 -1.7845 -0.7242 -0.2990
 2430TIP3   OH228924   3.094   2.734   0.477 -0.1262 -0.2907 -0.0043
 2430TIP3    H128925   3.097   2.824   0.508 -0.0970 -0.2633 -0.0877
 2430TIP3    H228926   3.176   2.721   0.431  0.0164 -0.4639  0.2950
 2431TIP3   OH228927   0.281   2.922   0.720 -0.6890  0.1299 -0.3574
 2431TIP3    H128928   0.296   2.847   0.662 -0.6374  0.6858 -1.0916
 2431TIP3    H228929   0.298   2.998   0.664 -0.1481  0.6834  0.5282
 2432TIP3   OH228930   0.181   0.817   2.460 -0.2736  0.3223  0.4207
 2432TIP3    H128931   0.114   0.868   2.505 -0.4931  0.5511 -0.1599
 2432TIP3    H228932   0.136   0.738   2.430  0.1270 -0.3689  1.5553
 2433TIP3   OH228933   0.354   6.136   8.587  0.2175  0.1719  0.2306
 2433TIP3    H128934   0.287   6.070   8.569  0.1906  0.0579  0.7370
 2433TIP3    H228935   0.354   6.192   8.509 -0.4860  0.1922  0.2417
 2434TIP3   OH228936   6.785   5.697   0.854  0.0631 -0.6160 -0.0679
 2434TIP3    H128937   6.738   5.615   0.869 -0.0342 -0.5774 -0.1631
 2434TIP3    H228938   6.729   5.747   0.794 -0.1722 -0.2159  0.4811
 2435TIP3   OH228939   6.792   0.488   1.892 -0.5782 -0.1037  0.3410
 2435TIP3    H128940   6.745   0.489   1.975 -0.1758 -0.2743  0.5784
 2435TIP3    H228941   6.725   0.472   1.826 -0.7465 -1.2693  0.7604
 2436TIP3   OH228942   1.019   5.857   0.305  0.4838  0.2638 -0.0020
 2436TIP3    H128943   1.009   5.834   0.398 -2.5264 -0.5870 -0.4142
 2436TIP3    H228944   0.932   5.889   0.279  0.7732 -0.9798 -2.8905
 2437TIP3   OH228945   2.698   0.911   1.198 -0.6052 -0.0324  0.2144
 2437TIP3    H128946   2.782   0.955   1.214 -0.5879  1.1468 -2.5671
 2437TIP3    H228947   2.720   0.819   1.188  0.3689  0.2516 -0.3843
 2438TIP3   OH228948   3.797   1.772   0.405  0.0173  0.1722  0.0276
 2438TIP3    H128949   3.790   1.855   0.453  1.9882 -0.2006  1.0872
 2438TIP3    H228950   3.890   1.766   0.382 -0.7737  0.2190 -3.7851
 2439TIP3   OH228951   4.514   5.831   0.342  0.2177  0.0241  0.3432
 2439TIP3    H128952   4.449   5.804   0.407  2.1691 -3.4181  1.0738
 2439TIP3    H228953   4.534   5.752   0.292  1.2354  1.8059 -2.3318
 2440TIP3   OH228954   0.044   3.592   7.863  0.4813 -0.2821  0.0905
 2440TIP3    H128955   0.096   3.636   7.795  0.6444 -0.1759  0.2857
 2440TIP3    H228956   0.074   3.631   7.945 -0.4167  0.3167  0.1526
 2441TIP3   OH228957   6.443   2.932   0.745  0.4701  0.4390  0.1026
 2441TIP3    H128958   6.472   3.012   0.701  1.2618  0.2026  0.1770
 2441TIP3    H228959   6.427   2.870   0.673 -0.1192  0.6568  0.0465
 2442TIP3   OH228960   4.482   6.076   7.012  0.7341 -0.1308  0.1306
 2442TIP3    H128961   4.515   6.015   6.947  0.8248  0.0039  0.0510
 2442TIP3    H228962   4.514   6.162   6.984  0.7246 -0.0641  0.3183
 2443TIP3   OH228963   2.856   2.453   1.422 -0.3006  0.0109 -0.2653
 2443TIP3    H128964   2.946   2.452   1.388  0.6966  0.7380  2.1199
 2443TIP3    H228965   2.812   2.521   1.370  1.5940  2.1940  0.8166
 2444TIP3   OH228966   2.939   4.574   8.687  0.0614 -0.1624 -0.3491
 2444TIP3    H128967   2.854   4.533   8.702 -0.5454  0.9484 -0.6452
 2444TIP3    H228968   2.921   4.646   8.626  1.0018  0.8420  0.5065
 2445TIP3   OH228969   1.636   2.344   2.613 -0.2824  0.1207 -0.4232
 2445TIP3    H128970   1.710   2.400   2.635 -0.6002  0.3006  0.2131
 2445TIP3    H228971   1.570   2.404   2.578 -0.7586  0.2199  0.5897
 2446TIP3   OH228972   1.119   4.006   8.537 -0.5210  0.5487 -0.4169
 2446TIP3    H128973   1.175   3.980   8.464  0.7841 -1.3980  1.1929
 2446TIP3    H228974   1.051   3.940   8.541  0.2283 -0.1911  0.9409
 2447TIP3   OH228975   4.952   2.950   0.929  0.8571  0.0240 -0.4320
 2447TIP3    H128976   4.872   2.926   0.881 -1.5855  1.2407  2.7389
 2447TIP3    H228977   4.986   2.866   0.961 -1.7500 -0.2918  1.8582
 2448TIP3   OH228978   0.478   1.300   7.817 -0.7930  0.1882 -0.2596
 2448TIP3    H128979   0.568   1.270   7.821 -0.9798 -0.3218  0.1779
 2448TIP3    H228980   0.469   1.361   7.890 -0.8150  0.2184 -0.2868
 2449TIP3   OH228981   6.455   6.719   1.920  0.1891 -0.1676  0.1880
 2449TIP3    H128982   6.499   6.797   1.887 -0.3223 -0.6630 -1.7691
 2449TIP3    H228983   6.409   6.749   1.999  0.1825  1.4545 -0.3966
 2450TIP3   OH228984   6.843   3.939   8.580 -0.7232 -0.5099 -0.9053
 2450TIP3    H128985   6.764   3.977   8.541 -2.3028 -0.1888  2.2348
 2450TIP3    H228986   6.810   3.871   8.639  1.4724 -1.1807 -0.3503
 2451TIP3   OH228987   1.753   0.301   0.066  0.0462  0.1524  0.5967
 2451TIP3    H128988   1.837   0.301   0.112  0.6810 -0.7468 -0.5062
 2451TIP3    H228989   1.746   0.214   0.028 -0.0559  1.0819 -1.6886
 2452TIP3   OH228990   5.170   3.450   8.415  0.5067  0.0572  0.7416
 2452TIP3    H128991   5.115   3.372   8.406  1.4806 -0.7618  1.6573
 2452TIP3    H228992   5.165   3.493   8.330  0.1341 -1.1291  0.1446
 2453TIP3   OH228993   3.898   0.302   8.050 -0.1266 -0.1669 -0.3802
 2453TIP3    H128994   3.935   0.219   8.020  0.1866 -0.5557  1.0228
 2453TIP3    H228995   3.954   0.369   8.012 -0.5198 -0.5640 -1.7228
 2454TIP3   OH228996   0.527   1.209   1.245 -0.4564  0.1507 -0.0255
 2454TIP3    H128997   0.611   1.168   1.223 -0.4103 -0.5331  1.3079
 2454TIP3    H228998   0.493   1.241   1.162  1.3221  0.8227 -0.5513
 2455TIP3   OH228999   1.527   5.081   0.220 -0.3900  0.5112  0.0668
 2455TIP3    H129000   1.613   5.108   0.189 -0.1496 -0.2633  0.0454
 2455TIP3    H229001   1.506   5.143   0.289  0.6303  0.1121  0.7580
 2456TIP3   OH229002   5.067   0.297   1.898 -0.7481  0.2602  0.1398
 2456TIP3    H129003   5.108   0.256   1.974 -1.5601  0.8455  0.9218
 2456TIP3    H229004   4.985   0.250   1.887 -0.4331 -0.1181 -0.6754
 2457TIP3   OH229005   1.065   6.798   7.597  0.2098 -0.3409 -0.4599
 2457TIP3    H129006   1.088   6.818   7.688  0.4990 -0.1210 -0.5796
 2457TIP3    H229007   1.058   6.883   7.555  0.3706 -0.4550 -0.7150
 2458TIP3   OH229008   0.988   0.112   2.334 -0.1298  0.2511  0.4931
 2458TIP3    H129009   1.022   0.095   2.422  0.5647 -0.7240  0.0513
 2458TIP3    H229010   0.893   0.100   2.343 -0.1826  1.1288  1.3110
 2459TIP3   OH229011   4.731   3.492   2.353 -0.2578  0.1374  0.3490
 2459TIP3    H129012   4.678   3.554   2.403  0.1944  0.7319  0.0948
 2459TIP3    H229013   4.745   3.534   2.269  2.4908  1.0139  1.1497
 2460TIP3   OH229014   5.018   1.299   0.426  0.3158  0.1286 -0.1757
 2460TIP3    H129015   4.973   1.379   0.399  0.3750  0.0719 -0.4465
 2460TIP3    H229016   5.084   1.328   0.489 -0.5068  0.1405  0.6948
 2461TIP3   OH229017   4.482   3.425   8.293  0.5281  0.0371  0.8318
 2461TIP3    H129018   4.536   3.347   8.298 -0.5987 -0.7095  1.8424
 2461TIP3    H229019   4.540   3.496   8.323  2.1820  0.0201 -1.9213
 2462TIP3   OH229020   3.236   5.318   7.293 -0.2695 -0.6879  0.1023
 2462TIP3    H129021   3.325   5.313   7.258 -0.4841 -1.4617 -0.3561
 2462TIP3    H229022   3.247   5.310   7.388  0.1704 -0.4950  0.0681
 2463TIP3   OH229023   1.911   1.606   1.435 -0.1334 -0.0286  0.3525
 2463TIP3    H129024   1.914   1.690   1.482 -0.4632 -0.1845  0.6531
 2463TIP3    H229025   1.976   1.616   1.365  0.6185  0.0806  1.0549
 2464TIP3   OH229026   5.568   5.883   1.125 -0.2012 -0.2910  0.4567
 2464TIP3    H129027   5.573   5.905   1.032  1.0088 -3.5075 -0.3783
 2464TIP3    H229028   5.487   5.923   1.155 -1.4540 -0.4483 -2.4022
 2465TIP3   OH229029   0.262   6.512   0.964  0.2899  0.4293 -0.3195
 2465TIP3    H129030   0.257   6.598   0.922 -2.8021  0.5536  0.0981
 2465TIP3    H229031   0.178   6.471   0.946  0.5331 -1.3104  2.0091
 2466TIP3   OH229032   1.209   5.308   8.409 -0.2914 -0.0409 -0.3860
 2466TIP3    H129033   1.212   5.228   8.358 -0.1255 -0.3768  0.1486
 2466TIP3    H229034   1.286   5.304   8.466 -0.3354  0.4466 -0.2830
 2467TIP3   OH229035   2.763   4.167   8.072  0.0371 -0.1862 -0.1843
 2467TIP3    H129036   2.807   4.087   8.100 -1.0765 -0.9334 -0.4906
 2467TIP3    H229037   2.713   4.141   7.994 -2.9686 -0.0864  1.5375
 2468TIP3   OH229038   2.819   1.271   8.634 -0.3605  0.2847  0.3374
 2468TIP3    H129039   2.890   1.253   8.696 -2.0768 -0.7403  2.1276
 2468TIP3    H229040   2.788   1.184   8.608  0.1364  0.6973 -1.8327
 2469TIP3   OH229041   6.726   3.664   2.158 -0.2559  0.3663 -0.0573
 2469TIP3    H129042   6.696   3.747   2.121  0.5453  0.1874 -1.1550
 2469TIP3    H229043   6.746   3.685   2.249 -3.0080  0.6424  0.5949
 2470TIP3   OH229044   0.987   5.421   1.633 -0.3481 -0.1237  0.4095
 2470TIP3    H129045   0.923   5.358   1.600  0.1882 -0.6256  0.2959
 2470TIP3    H229046   1.066   5.404   1.580 -0.2952  0.8744  0.1410
 2471TIP3   OH229047   3.637   1.033   0.856  0.2178 -0.3498  0.6497
 2471TIP3    H129048   3.554   1.082   0.856  1.0401  1.1071  0.2590
 2471TIP3    H229049   3.645   1.000   0.945 -0.1610  0.6031  1.0515
 2472TIP3   OH229050   4.819   6.469   7.164  0.0799  0.0979  0.6633
 2472TIP3    H129051   4.737   6.497   7.206 -0.3913 -0.0331 -0.1475
 2472TIP3    H229052   4.801   6.475   7.070  0.8299 -0.4513  0.4781
 2473TIP3   OH229053   1.844   2.259   7.517 -0.4511 -0.2340 -0.1618
 2473TIP3    H129054   1.804   2.346   7.523 -0.2265 -0.0703 -0.8580
 2473TIP3    H229055   1.877   2.254   7.427 -1.6030 -1.5370 -0.5562
 2474TIP3   OH229056   2.710   0.346   8.281  0.0659 -0.3840 -0.5038
 2474TIP3    H129057   2.629   0.352   8.332  0.0024 -1.8370 -0.4059
 2474TIP3    H229058   2.681   0.317   8.195  0.4538 -0.5889 -0.5631
 2475TIP3   OH229059   1.622   5.588   6.788  0.0624  0.7944  0.1324
 2475TIP3    H129060   1.561   5.572   6.860 -2.4541 -2.1986 -2.3674
 2475TIP3    H229061   1.580   5.657   6.736  0.1084  0.5515 -0.2302
 2476TIP3   OH229062   6.816   5.784   1.812 -0.4798 -0.7502 -0.5389
 2476TIP3    H129063   6.802   5.761   1.720 -4.9620 -0.6822 -0.0581
 2476TIP3    H229064   6.822   5.880   1.812  0.4705 -0.7917 -0.7713
 2477TIP3   OH229065   4.334   2.040   0.814 -0.3386 -0.0252 -0.0644
 2477TIP3    H129066   4.240   2.053   0.824 -0.4302 -1.0288  0.5491
 2477TIP3    H229067   4.361   1.995   0.894  0.9376  1.5096  0.4421
 2478TIP3   OH229068   3.049   4.903   7.292  0.1156  0.6354 -0.0623
 2478TIP3    H129069   3.097   4.981   7.262  1.1687 -0.0202 -0.1402
 2478TIP3    H229070   2.976   4.938   7.342  1.2366  1.6715  0.9222
 2479TIP3   OH229071   0.434   6.064   0.341  0.4628 -0.0716 -0.1149
 2479TIP3    H129072   0.513   6.118   0.336  0.7879 -0.5332 -0.0369
 2479TIP3    H229073   0.463   5.977   0.314  0.4229 -0.7023  1.7550
 2480TIP3   OH229074   1.762   5.753   0.163 -0.1051  0.0472  0.7590
 2480TIP3    H129075   1.823   5.785   0.229 -0.3261  0.4167  0.7924
 2480TIP3    H229076   1.809   5.684   0.116 -0.7994 -2.0498  2.9527
 2481TIP3   OH229077   6.585   5.495   0.887 -0.3278  0.3550 -0.3813
 2481TIP3    H129078   6.569   5.424   0.825 -2.4422  0.8089 -0.4478
 2481TIP3    H229079   6.550   5.463   0.970  0.1137  0.7259 -0.0481
 2482TIP3   OH229080   0.331   3.356   0.175 -0.1613  0.5045  0.1856
 2482TIP3    H129081   0.304   3.267   0.152  2.1049 -0.0816 -0.5042
 2482TIP3    H229082   0.288   3.412   0.110 -1.3413 -0.1027  0.4170
 2483TIP3   OH229083   3.228   3.432   7.776 -0.3450  0.5420  0.5292
 2483TIP3    H129084   3.284   3.489   7.724 -1.3131 -0.6035 -1.9247
 2483TIP3    H229085   3.143   3.477   7.777 -0.8157 -0.2772 -0.4954
 2484TIP3   OH229086   5.591   3.366   0.285  0.2995 -0.2280  0.3295
 2484TIP3    H129087   5.547   3.423   0.221  0.7341 -0.9920 -0.6669
 2484TIP3    H229088   5.520   3.317   0.326 -0.0376  0.6773  0.8648
 2485TIP3   OH229089   0.047   4.308   0.644  0.7376  0.1205  0.5565
 2485TIP3    H129090   0.081   4.356   0.720  1.3784 -0.4005  0.6126
 2485TIP3    H229091  -0.024   4.363   0.610  0.9103  0.6987  1.1102
 2486TIP3   OH229092   0.983   1.157   0.966 -0.2429 -0.0844 -0.0392
 2486TIP3    H129093   0.945   1.223   0.907 -0.3718 -1.3186 -1.3903
 2486TIP3    H229094   1.076   1.179   0.971 -0.5673  1.1775  0.8807
 2487TIP3   OH229095   1.156   0.820   8.591 -0.2160 -0.5306 -0.0796
 2487TIP3    H129096   1.172   0.898   8.645 -0.3763 -1.5016  1.4542
 2487TIP3    H229097   1.062   0.804   8.601  0.1236 -1.9424  1.1329
 2488TIP3   OH229098   5.431   4.101   8.613 -0.0393 -0.0986  0.4135
 2488TIP3    H129099   5.468   4.016   8.588  1.6080  0.2311  1.5320
 2488TIP3    H229100   5.353   4.079   8.664 -0.8554 -0.8552 -1.0984
 2489TIP3   OH229101   1.424   4.505   7.514 -0.2021  0.0844 -0.1333
 2489TIP3    H129102   1.397   4.478   7.426  2.2561  1.0443 -1.2750
 2489TIP3    H229103   1.385   4.591   7.526 -0.5108 -0.0306 -0.3089
 2490TIP3   OH229104   2.626   3.196   0.226  0.2788 -0.0163 -0.2880
 2490TIP3    H129105   2.598   3.203   0.317  0.8635 -0.5153 -0.0661
 2490TIP3    H229106   2.619   3.285   0.192  1.1443  0.4039  0.5742
 2491TIP3   OH229107   3.872   3.028   0.245  0.1491 -0.2412  0.1624
 2491TIP3    H129108   3.847   3.119   0.259 -0.7109 -0.7534  2.2789
 2491TIP3    H229109   3.803   2.977   0.287  1.9968 -1.8024  1.4660
 2492TIP3   OH229110   1.489   1.562   1.715  0.5373 -0.4788 -0.3102
 2492TIP3    H129111   1.434   1.640   1.711 -0.4922 -1.1888 -0.3029
 2492TIP3    H229112   1.577   1.596   1.732 -0.1441  0.5713  1.3385
 2493TIP3   OH229113   4.073   2.141   0.789 -0.1264  0.1127 -0.1352
 2493TIP3    H129114   4.072   2.143   0.693  1.5497 -0.3913 -0.1916
 2493TIP3    H229115   4.001   2.200   0.814  0.0302  1.0399 -1.6923
 2494TIP3   OH229116   2.614   2.280   0.879  0.1070  0.1720 -0.2694
 2494TIP3    H129117   2.596   2.322   0.795 -2.3045  0.2950  0.2585
 2494TIP3    H229118   2.707   2.300   0.896 -0.0821  2.5121 -1.5840
 2495TIP3   OH229119   2.763   4.242   7.391 -0.5017  0.3033 -0.2025
 2495TIP3    H129120   2.777   4.153   7.424  0.3237  0.6282  0.3753
 2495TIP3    H229121   2.693   4.234   7.327  0.4539 -0.9854 -1.1254
 2496TIP3   OH229122   0.337   5.533   7.352 -0.5373 -0.5219 -0.6739
 2496TIP3    H129123   0.331   5.620   7.313  0.9908 -0.6526 -1.2629
 2496TIP3    H229124   0.411   5.492   7.308  0.5991 -1.0764  1.5679
 2497TIP3   OH229125   6.376   6.720   6.824  0.0402 -0.0849  0.0102
 2497TIP3    H129126   6.386   6.767   6.741  1.3904  0.0367  0.2138
 2497TIP3    H229127   6.402   6.630   6.804 -0.4342 -0.2462  0.1142
 2498TIP3   OH229128   5.310   2.921   1.734 -0.2696  0.4304 -0.6759
 2498TIP3    H129129   5.247   2.913   1.806 -0.1208  0.3386 -0.5547
 2498TIP3    H229130   5.317   2.832   1.699 -0.0679  0.4046 -0.5703
 2499TIP3   OH229131   6.541   1.889   1.034  0.0272  0.6538  0.1184
 2499TIP3    H129132   6.507   1.896   1.123 -0.5001 -0.4185  0.0186
 2499TIP3    H229133   6.500   1.810   0.998  1.3704  0.2167 -0.5602
 2500TIP3   OH229134   4.133   4.328   6.524 -0.6207  0.4216  0.0608
 2500TIP3    H129135   4.225   4.307   6.511 -0.9945 -0.5776 -1.2676
 2500TIP3    H229136   4.088   4.284   6.452 -2.0282  1.7954  0.0360
 2501TIP3   OH229137   1.242   1.204   0.833  0.5295 -0.2209 -0.5651
 2501TIP3    H129138   1.333   1.230   0.846  0.6435 -0.8026 -0.1679
 2501TIP3    H229139   1.244   1.109   0.837  0.2114 -0.3540 -2.5794
 2502TIP3   OH229140   1.742   4.629   1.138 -0.4870 -0.4436  0.1289
 2502TIP3    H129141   1.717   4.570   1.209  0.2951  1.7658  2.3591
 2502TIP3    H229142   1.678   4.700   1.141  0.7678  0.7382  0.0377
 2503TIP3   OH229143   3.950   0.471   7.165 -0.5073  0.4656  0.0707
 2503TIP3    H129144   3.864   0.470   7.122 -0.3682  1.3538 -0.2376
 2503TIP3    H229145   4.011   0.443   7.097 -0.3444  1.4511 -0.2058
 2504TIP3   OH229146   3.768   6.428   8.775 -0.4780  0.0628  0.0645
 2504TIP3    H129147   3.764   6.522   8.794 -0.3559  0.2232 -0.6763
 2504TIP3    H229148   3.835   6.395   8.835 -1.3959  0.2063  1.2194
 2505TIP3   OH229149   4.412   4.437   7.473  0.2928  0.0243 -0.3338
 2505TIP3    H129150   4.449   4.514   7.515  1.7033 -0.5812 -0.4219
 2505TIP3    H229151   4.347   4.404   7.535  0.5259  0.6128  0.2300
 2506TIP3   OH229152   3.236   1.897   1.135 -0.3473  0.7889  0.0297
 2506TIP3    H129153   3.260   1.814   1.179 -0.9119  0.6533  0.0900
 2506TIP3    H229154   3.246   1.878   1.042  2.2307  1.4941  0.0806
 2507TIP3   OH229155   2.395   0.797   2.443 -0.1881 -0.3934  0.0111
 2507TIP3    H129156   2.462   0.821   2.506 -0.1063 -0.3152 -0.1062
 2507TIP3    H229157   2.443   0.761   2.369 -0.2889 -0.5738  0.0315
 2508TIP3   OH229158   3.988   0.163   8.594  0.0088 -0.2627 -0.6531
 2508TIP3    H129159   3.896   0.146   8.614  0.4603 -3.2832 -0.6891
 2508TIP3    H229160   4.000   0.129   8.505  0.7383  2.0684 -1.5287
 2509TIP3   OH229161   4.585   2.776   8.105  0.5760  0.0744 -0.1463
 2509TIP3    H129162   4.623   2.752   8.020 -1.0668 -0.8766 -0.6694
 2509TIP3    H229163   4.654   2.825   8.149  2.3473 -1.4491 -1.0575
 2510TIP3   OH229164   1.769   1.714   6.611  0.1589  0.7273  0.1632
 2510TIP3    H129165   1.731   1.658   6.679 -1.6142  1.0076 -0.5469
 2510TIP3    H229166   1.775   1.657   6.534  0.4139  0.9233  0.0378
 2511TIP3   OH229167   1.445   2.088   0.770  0.6607  0.4593  0.1656
 2511TIP3    H129168   1.400   2.086   0.686  0.3568  1.3558  0.3013
 2511TIP3    H229169   1.433   2.177   0.802  0.7980  0.1390  1.1474
 2512TIP3   OH229170   5.434   6.353   7.264 -0.2938  0.5970 -0.2826
 2512TIP3    H129171   5.515   6.341   7.313  0.2182 -0.2100 -1.2941
 2512TIP3    H229172   5.419   6.448   7.266  2.4503  1.2280 -2.8057
 2513TIP3   OH229173   1.534   4.165   2.293 -0.2707 -0.2994 -0.4776
 2513TIP3    H129174   1.597   4.230   2.263 -0.3958 -0.8689 -2.0507
 2513TIP3    H229175   1.586   4.088   2.313  0.2198  0.8557  3.7201
 2514TIP3   OH229176   3.495   4.495   7.612  0.0951  0.3370 -0.5377
 2514TIP3    H129177   3.477   4.562   7.678  2.1494  0.5301 -0.1152
 2514TIP3    H229178   3.503   4.413   7.662 -1.1828 -0.0328 -0.9091
 2515TIP3   OH229179   3.289   3.145   8.552  0.3928  0.0560  0.6320
 2515TIP3    H129180   3.296   3.161   8.458 -1.2809  1.5192  0.7108
 2515TIP3    H229181   3.203   3.106   8.564  1.9578 -3.7060  1.2340
 2516TIP3   OH229182   6.219   3.170   7.861  0.0369  0.9997 -0.2625
 2516TIP3    H129183   6.248   3.152   7.950 -1.7380  0.3476  0.2264
 2516TIP3    H229184   6.298   3.199   7.816  1.7073 -1.8001  0.6199
 2517TIP3   OH229185   3.573   1.547   7.491 -0.6859 -0.9961  0.4551
 2517TIP3    H129186   3.571   1.546   7.587  1.6509 -1.9355  0.5722
 2517TIP3    H229187   3.534   1.464   7.464 -1.6101 -0.6033  0.5668
 2518TIP3   OH229188   2.370   3.127   0.372 -0.1553  0.5610  0.2802
 2518TIP3    H129189   2.372   3.061   0.442  2.4156  0.0949 -0.1364
 2518TIP3    H229190   2.389   3.209   0.417 -1.1044  0.6962  0.4650
 2519TIP3   OH229191   0.512   4.003   7.270  0.0897  0.4454  0.2110
 2519TIP3    H129192   0.474   4.084   7.305 -0.8240  0.4570 -0.7620
 2519TIP3    H229193   0.484   4.001   7.179 -0.4308 -1.2703  0.3692
 2520TIP3   OH229194   2.633   1.859   7.881  0.0683 -0.3720 -0.3487
 2520TIP3    H129195   2.692   1.784   7.871  0.1931 -0.1272 -1.5415
 2520TIP3    H229196   2.625   1.896   7.793 -2.4361 -0.8334 -0.3997
 2521TIP3   OH229197   5.580   5.152   1.509  0.4165 -0.5929 -0.1784
 2521TIP3    H129198   5.579   5.076   1.568  1.7462 -0.8819 -0.5123
 2521TIP3    H229199   5.666   5.190   1.520 -1.4877  3.5734  3.2665
 2522TIP3   OH229200   5.708   6.602   0.365  0.0829 -0.6217  0.2140
 2522TIP3    H129201   5.778   6.614   0.300  0.1603 -1.9659  0.0310
 2522TIP3    H229202   5.637   6.658   0.334  1.8418  2.8006  1.7129
 2523TIP3   OH229203   3.408   1.177   0.518 -0.1628  0.4106  0.4414
 2523TIP3    H129204   3.398   1.272   0.525  0.5460  0.7510 -2.0054
 2523TIP3    H229205   3.502   1.163   0.517 -0.2621 -0.2582  0.2636
 2524TIP3   OH229206   2.276   3.940   7.075 -0.0281  0.1767  0.3150
 2524TIP3    H129207   2.371   3.943   7.067 -0.1104  0.6696 -0.6041
 2524TIP3    H229208   2.260   3.892   7.156  1.0075  0.5605  0.7565
 2525TIP3   OH229209   5.650   1.013   0.877 -0.6268 -0.2313 -0.0971
 2525TIP3    H129210   5.742   0.988   0.861 -0.9913  0.0185 -3.2598
 2525TIP3    H229211   5.630   0.975   0.962  2.9097  1.2528  1.6281
 2526TIP3   OH229212   3.975   0.990   7.763  0.2029 -0.0828  0.2222
 2526TIP3    H129213   3.921   1.004   7.840 -1.2271 -2.4216 -0.2514
 2526TIP3    H229214   4.036   0.921   7.788  1.0813  0.5426 -0.1378
 2527TIP3   OH229215   6.512   3.127   0.560  0.4746 -0.1248 -0.0234
 2527TIP3    H129216   6.598   3.094   0.534  0.8532  1.5096 -0.9925
 2527TIP3    H229217   6.531   3.208   0.608 -0.4716 -0.6367  1.2700
 2528TIP3   OH229218   3.661   0.465   7.962  0.2338  0.6933 -0.6577
 2528TIP3    H129219   3.724   0.394   7.950 -0.3823  0.2542 -1.4101
 2528TIP3    H229220   3.689   0.509   8.042  0.5641 -0.4711 -0.1076
 2529TIP3   OH229221   2.335   4.487   6.756  0.1800  0.6257 -0.0579
 2529TIP3    H129222   2.304   4.524   6.839 -1.7171 -0.5807 -0.1574
 2529TIP3    H229223   2.255   4.467   6.708  1.2339  2.1021 -2.6004
 2530TIP3   OH229224   1.451   5.704   8.157  0.1528 -0.6041  0.2420
 2530TIP3    H129225   1.492   5.780   8.198 -1.0748  0.3445 -0.2553
 2530TIP3    H229226   1.396   5.667   8.226 -0.5660 -0.0298 -0.0142
 2531TIP3   OH229227   4.962   0.053   8.024 -0.5592 -0.7524  0.2883
 2531TIP3    H129228   4.926   0.141   8.029  3.8446  1.2927  0.4409
 2531TIP3    H229229   4.940   0.013   8.109  0.4163  1.6542  1.7852
 2532TIP3   OH229230   0.643   1.797   1.104 -0.4631 -0.2062 -0.6044
 2532TIP3    H129231   0.627   1.714   1.058 -1.7107  1.0452 -2.5630
 2532TIP3    H229232   0.562   1.847   1.092  0.3491  1.3968  0.3351
 2533TIP3   OH229233   1.062   5.611   6.835 -0.4889 -0.1688 -0.3739
 2533TIP3    H129234   1.045   5.686   6.778 -1.7743  0.2627  0.5285
 2533TIP3    H229235   1.028   5.535   6.788 -1.2349  0.1373 -0.3353
 2534TIP3   OH229236   5.300   4.388   8.042 -0.1663 -0.3211 -0.3121
 2534TIP3    H129237   5.387   4.357   8.065 -0.1465  0.0073  0.0751
 2534TIP3    H229238   5.315   4.472   7.998 -0.3221  0.0998  0.4205
 2535TIP3   OH229239   5.330   6.831   8.126 -0.2324 -0.0295 -0.2378
 2535TIP3    H129240   5.404   6.793   8.173  1.8684  2.5405 -1.1911
 2535TIP3    H229241   5.357   6.921   8.109 -1.7138 -0.1601 -4.3944
 2536TIP3   OH229242   6.304   6.151   1.510 -0.6148 -0.1929  0.0735
 2536TIP3    H129243   6.262   6.067   1.528 -1.8734  0.1839 -1.0028
 2536TIP3    H229244   6.238   6.202   1.464  0.0706  1.4596  0.8307
 2537TIP3   OH229245   6.310   5.838   1.145 -0.4907 -0.4298 -0.3070
 2537TIP3    H129246   6.405   5.849   1.146 -0.4937 -0.3524 -0.9089
 2537TIP3    H229247   6.297   5.750   1.109 -0.6981  0.1314 -1.6253
 2538TIP3   OH229248   1.404   6.222   2.558  0.1021  0.3287 -0.2142
 2538TIP3    H129249   1.401   6.297   2.499  2.0463  0.1780 -0.5690
 2538TIP3    H229250   1.361   6.151   2.510 -1.2634  1.0335 -0.0883
 2539TIP3   OH229251   3.141   0.949   8.015  0.5084 -0.0594 -0.4755
 2539TIP3    H129252   3.196   1.027   8.005  0.1712  0.2616  0.1295
 2539TIP3    H229253   3.187   0.896   8.080  0.8404 -0.4680 -1.0317
 2540TIP3   OH229254   5.019   2.997   7.999 -0.3725  0.0172 -0.3157
 2540TIP3    H129255   4.992   3.086   7.975 -0.6800  0.1059  0.3295
 2540TIP3    H229256   5.113   3.005   8.018 -0.4404  0.2556 -0.0621
 2541TIP3   OH229257   2.210   4.536   7.007  0.3369 -0.3896  0.4466
 2541TIP3    H129258   2.245   4.515   7.094  0.6757  0.8312  0.6148
 2541TIP3    H229259   2.141   4.600   7.024  0.5855  0.0552 -0.2108
 2542TIP3   OH229260   5.573   5.461   6.675  0.0444 -0.9276 -0.5654
 2542TIP3    H129261   5.512   5.519   6.721 -0.7438 -2.1001 -0.0745
 2542TIP3    H229262   5.652   5.513   6.665 -0.1124 -0.2551  1.2237
 2543TIP3   OH229263   3.023   3.921   1.098 -0.3929  0.0885 -0.7146
 2543TIP3    H129264   2.949   3.951   1.045 -0.5679  1.7599  0.4120
 2543TIP3    H229265   2.983   3.868   1.167 -0.3912 -0.2100 -0.9423
 2544TIP3   OH229266   6.178   1.903   7.776  0.0765  0.2698  0.1753
 2544TIP3    H129267   6.138   1.877   7.693  1.1205 -0.7293 -0.0365
 2544TIP3    H229268   6.119   1.867   7.843  1.0309 -2.0358 -0.1190
 2545TIP3   OH229269   3.249   6.767   7.109 -0.3502  0.3581  0.1229
 2545TIP3    H129270   3.344   6.760   7.101 -0.4970 -1.4609 -0.4491
 2545TIP3    H229271   3.227   6.849   7.065  0.9417  0.8126  0.2811
 2546TIP3   OH229272   2.868   1.984   8.757 -0.0929  0.4587 -0.2149
 2546TIP3    H129273   2.858   1.933   8.837 -0.2344 -0.2080 -0.6550
 2546TIP3    H229274   2.956   2.020   8.762  0.2657 -0.4175 -0.2432
 2547TIP3   OH229275   0.375   3.642   0.493 -0.4067  0.0322  0.3060
 2547TIP3    H129276   0.335   3.709   0.548 -0.6416 -1.0342  1.4905
 2547TIP3    H229277   0.314   3.568   0.498 -1.8896  0.7556 -3.6404
 2548TIP3   OH229278   0.217   1.878   1.316 -0.0593  0.5596 -0.5609
 2548TIP3    H129279   0.202   1.786   1.298  0.8126 -0.0597  1.5564
 2548TIP3    H229280   0.132   1.920   1.303 -1.2769 -1.1088  1.4342
 2549TIP3   OH229281   3.849   5.021   8.699  0.2900  0.1765  0.5264
 2549TIP3    H129282   3.886   5.038   8.786 -0.3010  1.1914  0.5942
 2549TIP3    H229283   3.901   5.076   8.640 -0.6157  1.0804  0.5321
 2550TIP3   OH229284   0.307   1.445   0.097 -0.0828 -0.0869  0.2564
 2550TIP3    H129285   0.289   1.436   0.191  0.6210  0.9864  0.5072
 2550TIP3    H229286   0.303   1.355   0.064 -0.1729 -0.5025  1.3383
 2551TIP3   OH229287   5.069   1.073   1.420 -0.0784  0.0883 -0.3237
 2551TIP3    H129288   5.055   1.105   1.331 -2.6747  0.1142 -0.0050
 2551TIP3    H229289   4.992   1.104   1.468  0.2296 -1.6712  1.4193
 2552TIP3   OH229290   6.046   3.393   1.662 -0.5013  0.4448  0.4771
 2552TIP3    H129291   6.014   3.341   1.735 -1.4493  0.3242 -0.0062
 2552TIP3    H229292   6.095   3.332   1.608 -0.0067  0.4798  0.8866
 2553TIP3   OH229293   2.969   4.668   6.755  0.1480 -0.6853  0.8949
 2553TIP3    H129294   2.949   4.578   6.781  0.7729 -1.2085 -0.4043
 2553TIP3    H229295   2.994   4.663   6.663 -0.1575  0.8735  0.6842
 2554TIP3   OH229296   4.801   6.053   6.598  0.2336 -0.0034 -0.1520
 2554TIP3    H129297   4.812   6.141   6.634  2.8633 -0.1129 -0.4866
 2554TIP3    H229298   4.706   6.041   6.592 -0.2491  1.6529  2.6278
 2555TIP3   OH229299   2.283   2.428   0.574  0.2255  0.2248 -0.0959
 2555TIP3    H129300   2.279   2.508   0.627 -1.0393 -0.3744  0.7667
 2555TIP3    H229301   2.206   2.434   0.517  1.0505  0.3990 -1.2232
 2556TIP3   OH229302   6.179   2.830   1.458  0.1467  0.5101 -0.3410
 2556TIP3    H129303   6.140   2.771   1.522  0.4855  1.5523  0.8600
 2556TIP3    H229304   6.122   2.908   1.459  0.8324  1.0209 -0.4269
 2557TIP3   OH229305   1.198   0.342   0.256 -0.0345  0.6769 -0.3251
 2557TIP3    H129306   1.227   0.304   0.339  0.2180  1.5868  0.0183
 2557TIP3    H229307   1.259   0.307   0.191 -0.1398  0.0786 -0.1055
 2558TIP3   OH229308   3.705   2.236   0.788 -0.0125  0.2521 -0.0669
 2558TIP3    H129309   3.751   2.309   0.749 -2.1846  1.6170 -0.2263
 2558TIP3    H229310   3.646   2.276   0.852  0.2681 -1.5561  1.4107
 2559TIP3   OH229311   5.405   1.049   1.777  0.4369 -0.4058 -0.1744
 2559TIP3    H129312   5.373   1.002   1.854  0.8312 -0.4583 -0.0415
 2559TIP3    H229313   5.345   1.023   1.707 -0.1541 -0.0633  0.1923
 2560TIP3   OH229314   4.151   6.267   1.026  0.3532  0.7178  0.1482
 2560TIP3    H129315   4.203   6.315   0.961  1.8288  1.1784  1.6052
 2560TIP3    H229316   4.109   6.336   1.077 -0.2146  0.3677  0.1575
 2561TIP3   OH229317   5.399   1.350   7.373 -0.0510  0.1277 -0.6073
 2561TIP3    H129318   5.325   1.404   7.400 -0.1910 -0.1350 -0.4552
 2561TIP3    H229319   5.366   1.299   7.299 -0.0701 -0.0912 -0.4514
 2562TIP3   OH229320   0.467   1.661   1.679 -0.8804 -0.0042 -0.7625
 2562TIP3    H129321   0.479   1.689   1.769 -0.3910 -0.4617 -0.6805
 2562TIP3    H229322   0.408   1.586   1.685 -0.5260 -0.2853 -0.7839
 2563TIP3   OH229323   5.350   0.701   7.061  0.0963 -0.5737  0.1031
 2563TIP3    H129324   5.355   0.624   7.005  0.8931 -0.2174 -0.3332
 2563TIP3    H229325   5.441   0.718   7.086  0.1971  1.3166 -1.3299
 2564TIP3   OH229326   5.369   5.535   0.325  0.2954 -0.2797 -0.0241
 2564TIP3    H129327   5.413   5.550   0.408  1.0016 -2.4505  0.0518
 2564TIP3    H229328   5.436   5.553   0.259  0.7177 -1.5702  0.0219
 2565TIP3   OH229329   1.973   1.976   7.732  0.0432 -0.3697 -0.0198
 2565TIP3    H129330   1.969   2.048   7.795 -1.0375  0.9487 -1.4956
 2565TIP3    H229331   1.891   1.983   7.683  0.3983 -1.9717 -0.9037
 2566TIP3   OH229332   4.465   5.791   1.490 -0.8877  0.2763  0.2744
 2566TIP3    H129333   4.467   5.787   1.585 -1.3551 -0.6517  0.2591
 2566TIP3    H229334   4.373   5.797   1.468 -0.9821 -1.8517 -0.1585
 2567TIP3   OH229335   3.342   0.870   1.193  0.3427  0.2579  0.6166
 2567TIP3    H129336   3.290   0.833   1.121  0.8671  0.8553 -0.0828
 2567TIP3    H229337   3.285   0.936   1.232  0.7127  1.2305 -0.4334
 2568TIP3   OH229338   6.021   2.925   2.147 -0.1912 -0.1137  0.0070
 2568TIP3    H129339   5.948   2.966   2.100 -0.6607  1.1930  1.7557
 2568TIP3    H229340   6.097   2.979   2.125 -0.3698  0.3729  0.5652
 2569TIP3   OH229341   2.031   2.530   7.035  0.3776 -0.0392  0.0909
 2569TIP3    H129342   1.956   2.471   7.029 -1.0258  1.6473  0.2485
 2569TIP3    H229343   2.080   2.513   6.954  0.0869 -1.4527  0.1728
 2570TIP3   OH229344   6.118   0.942   0.783  0.0162  0.1906 -0.2382
 2570TIP3    H129345   6.132   0.942   0.689 -2.6106  2.3256 -0.7469
 2570TIP3    H229346   6.191   0.891   0.818  0.2059 -2.0918 -3.4886
 2571TIP3   OH229347   5.914   5.766   1.462 -0.0238 -0.1697  0.2043
 2571TIP3    H129348   5.953   5.793   1.379 -1.2517 -1.0041 -0.6759
 2571TIP3    H229349   5.977   5.703   1.499  2.5858  3.1016  1.9956
 2572TIP3   OH229350   4.684   3.808   1.140  0.5996  0.1045  0.3725
 2572TIP3    H129351   4.692   3.844   1.228  0.2667  1.1686 -0.0105
 2572TIP3    H229352   4.591   3.810   1.121  0.7323  0.6076 -0.2804
 2573TIP3   OH229353   6.734   0.395   0.112  0.0574 -0.2053 -0.0703
 2573TIP3    H129354   6.677   0.361   0.043  1.2500  0.1788 -1.2893
 2573TIP3    H229355   6.699   0.482   0.132 -0.0148 -0.1236 -0.5407
 2574TIP3   OH229356   5.732   2.234   1.527  0.0289  0.0732 -0.6455
 2574TIP3    H129357   5.678   2.311   1.507 -0.4431 -0.4099 -1.2753
 2574TIP3    H229358   5.750   2.195   1.441  1.1740  0.0832 -0.4186
 2575TIP3   OH229359   5.584   3.877   1.826 -0.0288 -0.0680  0.3392
 2575TIP3    H129360   5.679   3.873   1.824 -0.0690 -1.5810 -0.0747
 2575TIP3    H229361   5.556   3.787   1.844 -1.4135 -0.1930 -2.0173
 2576TIP3   OH229362   3.369   5.194   8.498  0.2861 -0.7441 -0.2713
 2576TIP3    H129363   3.430   5.262   8.527 -0.0919 -1.0575  1.3789
 2576TIP3    H229364   3.416   5.112   8.510  0.8275 -0.8053 -2.4954
 2577TIP3   OH229365   5.931   6.114   6.704 -0.3136  0.0523 -0.1819
 2577TIP3    H129366   5.948   6.027   6.742 -0.3125  0.0338 -0.2249
 2577TIP3    H229367   5.840   6.110   6.675  0.4155 -0.8692 -2.6335
 2578TIP3   OH229368   2.752   6.487   0.027  0.0934  0.2215  0.3171
 2578TIP3    H129369   2.838   6.448   0.018  0.8769  1.5561  1.6526
 2578TIP3    H229370   2.744   6.544  -0.050 -1.2970 -2.7393 -1.9719
 2579TIP3   OH229371   3.479   6.585   6.979  0.2617  0.3011  0.1853
 2579TIP3    H129372   3.548   6.521   6.997  0.2314 -0.0289 -0.8467
 2579TIP3    H229373   3.421   6.542   6.916  0.2517  1.3470 -0.5396
 2580TIP3   OH229374   4.324   4.753   1.698 -0.0181  0.2649 -0.2698
 2580TIP3    H129375   4.359   4.827   1.648  0.8221  0.8530  1.1562
 2580TIP3    H229376   4.373   4.753   1.780  0.3600 -2.1926 -0.4223
 2581TIP3   OH229377   0.720   3.467   7.216 -0.2803  0.1283  1.1072
 2581TIP3    H129378   0.757   3.525   7.150 -0.3637 -0.0796  0.8809
 2581TIP3    H229379   0.649   3.518   7.255  0.0003  0.3888  1.2913
 2582TIP3   OH229380   1.310   1.753   1.820  0.6409  0.4341  0.2993
 2582TIP3    H129381   1.252   1.766   1.895 -0.3129 -1.0281 -0.1273
 2582TIP3    H229382   1.396   1.781   1.851  0.1192  0.5854  1.6837
 2583TIP3   OH229383   6.795   1.188   0.545 -0.0211  0.3043  0.0448
 2583TIP3    H129384   6.794   1.221   0.635 -0.5036 -1.1636  0.5971
 2583TIP3    H229385   6.760   1.260   0.493  0.5381  1.2873  0.9760
 2584TIP3   OH229386   5.108   5.808   1.140  0.2131 -0.4420 -0.5866
 2584TIP3    H129387   5.045   5.786   1.072 -0.1008 -1.1492 -0.0816
 2584TIP3    H229388   5.058   5.861   1.203  0.1973 -0.7455 -0.3401
 2585TIP3   OH229389   6.763   3.831   1.179 -0.5116 -0.6919  0.1582
 2585TIP3    H129390   6.817   3.752   1.181 -0.0197 -0.3467  1.6780
 2585TIP3    H229391   6.824   3.901   1.157 -0.7035 -0.5466  0.0851
 2586TIP3   OH229392   5.801   1.482   1.552 -0.5587  0.1824  0.5802
 2586TIP3    H129393   5.848   1.565   1.564 -0.0856  0.0344 -0.2577
 2586TIP3    H229394   5.850   1.435   1.486 -2.7540  0.7075 -1.5569
 2587TIP3   OH229395   4.250   3.845   7.838 -0.2412 -0.1348  0.0332
 2587TIP3    H129396   4.228   3.885   7.754  0.6305 -0.3897 -0.3267
 2587TIP3    H229397   4.301   3.912   7.883 -0.6019 -0.0454  0.3122
 2588TIP3   OH229398   2.049   0.289   0.379 -0.6824 -0.3492  0.0101
 2588TIP3    H129399   2.009   0.371   0.350 -1.3119 -0.2203  1.2003
 2588TIP3    H229400   2.109   0.266   0.308  0.0365  1.4962 -0.0528
 2589TIP3   OH229401   1.980   1.363   1.575 -0.1399  0.6551  0.1427
 2589TIP3    H129402   1.978   1.458   1.567  2.8663  0.9705  1.6777
 2589TIP3    H229403   2.033   1.346   1.653 -2.8949 -2.3003  1.6005
 2590TIP3   OH229404   0.517   0.047   1.911 -0.2375  0.4275  0.8403
 2590TIP3    H129405   0.466   0.082   1.838 -0.8647 -0.2972  0.9221
 2590TIP3    H229406   0.594   0.008   1.870 -0.7648 -0.2994  0.5142
 2591TIP3   OH229407   1.771   6.292   1.454  0.4412  0.3368  0.2406
 2591TIP3    H129408   1.688   6.247   1.436 -0.7323  1.6422  2.0391
 2591TIP3    H229409   1.746   6.368   1.505  2.8008  0.6938  0.9797
 2592TIP3   OH229410   3.370   3.056   1.834  0.0313 -0.4398 -0.5903
 2592TIP3    H129411   3.417   3.086   1.912 -0.6201 -2.4217  0.6387
 2592TIP3    H229412   3.338   3.136   1.793  1.6227  0.7393  0.3701
 2593TIP3   OH229413   6.281   2.579   0.551  0.0033  0.0618 -0.4120
 2593TIP3    H129414   6.222   2.542   0.484  0.5060 -1.3372 -0.1188
 2593TIP3    H229415   6.362   2.529   0.541  0.1201 -0.0952  1.1715
 2594TIP3   OH229416   4.583   3.621   2.564 -0.0072  0.1411 -0.0566
 2594TIP3    H129417   4.634   3.569   2.625 -0.0220 -1.1298 -1.0922
 2594TIP3    H229418   4.499   3.576   2.557  0.3621 -0.3663 -1.7957
 2595TIP3   OH229419   2.901   5.482   2.306  0.2996 -0.4721  0.5518
 2595TIP3    H129420   2.943   5.425   2.242  1.7132 -1.1799  2.0487
 2595TIP3    H229421   2.851   5.423   2.363 -2.0549  0.2675 -0.6188
 2596TIP3   OH229422   4.556   5.561   1.286  0.1293  0.0022 -0.4711
 2596TIP3    H129423   4.561   5.630   1.351  1.9393  1.8523 -2.4080
 2596TIP3    H229424   4.608   5.489   1.322  1.1575  1.0106  0.0891
 2597TIP3   OH229425   5.286   4.751   7.918  0.4723  0.0918 -0.0939
 2597TIP3    H129426   5.235   4.741   7.999 -0.4096 -0.5936 -0.7224
 2597TIP3    H229427   5.252   4.832   7.879 -0.6898 -0.7520 -0.8831
 2598TIP3   OH229428   4.737   1.909   7.500 -0.0072  0.3842  0.5539
 2598TIP3    H129429   4.686   1.833   7.475  0.1420 -0.0279  1.4752
 2598TIP3    H229430   4.814   1.906   7.443 -1.7686  1.9973 -2.1144
 2599TIP3   OH229431   0.272   1.442   7.189  0.7090  0.0724  0.3227
 2599TIP3    H129432   0.274   1.353   7.153 -0.6226 -0.0344  0.4643
 2599TIP3    H229433   0.280   1.430   7.284  0.3883  0.1015  0.3518
 2600TIP3   OH229434   5.274   3.493   1.372  0.2670 -0.1476 -0.1536
 2600TIP3    H129435   5.255   3.511   1.280  0.9805  1.4079 -0.0344
 2600TIP3    H229436   5.367   3.518   1.382  0.3357 -0.7696  0.8615
 2601TIP3   OH229437   1.069   1.629   1.725  0.8520  0.0457 -0.2669
 2601TIP3    H129438   1.155   1.667   1.744  0.6631  0.2601  0.1732
 2601TIP3    H229439   1.068   1.619   1.630  0.2565  2.7858 -0.6427
 2602TIP3   OH229440   0.628   0.865   8.552  0.1277  0.3386 -0.1290
 2602TIP3    H129441   0.718   0.881   8.523  0.3197 -2.0496 -1.1103
 2602TIP3    H229442   0.583   0.833   8.473 -1.1448  0.0124  0.7051
 2603TIP3   OH229443   0.673   4.045   8.117  0.3628 -0.0156  0.0547
 2603TIP3    H129444   0.761   4.047   8.154  0.3384  0.8642  0.0939
 2603TIP3    H229445   0.684   4.079   8.028  0.1560 -0.4647 -0.1421
 2604TIP3   OH229446   6.687   1.101   0.203  0.2060  0.5343 -0.9396
 2604TIP3    H129447   6.782   1.101   0.208  0.1485  0.8092  0.2757
 2604TIP3    H229448   6.663   1.192   0.186  0.0424  1.0754  1.8341
 2605TIP3   OH229449   4.944   3.045   0.105  0.0211 -0.0392  0.1884
 2605TIP3    H129450   4.906   2.968   0.147 -2.7348  1.6274  1.0308
 2605TIP3    H229451   4.896   3.053   0.023  0.8274  0.3277 -0.2480
 2606TIP3   OH229452   4.216   1.691   7.196  0.2431  0.1274  0.4991
 2606TIP3    H129453   4.203   1.599   7.222  0.9901 -0.0464  0.3093
 2606TIP3    H229454   4.136   1.715   7.151  1.1921 -1.4532 -2.2660
 2607TIP3   OH229455   4.306   3.732   1.250  0.2041  0.5362  0.2393
 2607TIP3    H129456   4.319   3.686   1.333  1.1802  1.4063  0.5964
 2607TIP3    H229457   4.335   3.670   1.183  1.2610  0.5235  0.6950
 2608TIP3   OH229458   6.370   0.207   7.031  0.7310  0.0793 -0.2546
 2608TIP3    H129459   6.318   0.137   7.069  0.8547  0.3327  0.3960
 2608TIP3    H229460   6.436   0.227   7.097  0.9576  0.5238 -0.6055
 2609TIP3   OH229461   0.240   0.337   6.882  0.1679  0.8232  0.0867
 2609TIP3    H129462   0.235   0.353   6.976 -0.2542  2.1169 -0.1484
 2609TIP3    H229463   0.214   0.245   6.873 -2.1399  1.3057  1.0253
 2610TIP3   OH229464   0.263   2.224   7.600 -0.0228 -0.0761  0.0854
 2610TIP3    H129465   0.215   2.177   7.531 -1.8397 -0.4260  1.5066
 2610TIP3    H229466   0.208   2.300   7.620  0.8963  0.4762  0.5661
 2611TIP3   OH229467   2.002   0.321   2.533 -0.3186 -0.2930 -0.2893
 2611TIP3    H129468   2.087   0.283   2.510  0.3031 -0.5789  2.1586
 2611TIP3    H229469   2.023   0.410   2.560 -1.2840  0.7005 -2.6080
 2612TIP3   OH229470   3.613   0.653   7.434  0.0291  0.6169 -0.1270
 2612TIP3    H129471   3.639   0.685   7.521  2.4889 -1.2902 -0.0255
 2612TIP3    H229472   3.664   0.706   7.373  1.2458 -0.5409 -0.1527
 2613TIP3   OH229473   0.863   4.257   1.065 -0.2431  0.0586  0.2150
 2613TIP3    H129474   0.953   4.277   1.093  0.6413 -1.7011 -1.0899
 2613TIP3    H229475   0.835   4.335   1.018  0.7557  0.5055  0.3257
 2614TIP3   OH229476   5.461   1.220   1.130 -0.7761  0.6901 -0.2676
 2614TIP3    H129477   5.550   1.254   1.122 -0.9695  0.7885 -2.8128
 2614TIP3    H229478   5.418   1.280   1.190  0.5628  1.3296  0.0913
 2615TIP3   OH229479   2.312   0.676   8.206  0.0717  0.0476  0.4395
 2615TIP3    H129480   2.249   0.745   8.184  0.2968 -0.2194 -1.1426
 2615TIP3    H229481   2.394   0.704   8.166  0.6624 -0.2072  1.4443
 2616TIP3   OH229482   2.390   1.164   0.398 -0.0947 -0.4492  0.3118
 2616TIP3    H129483   2.430   1.243   0.436  0.2308 -0.9559  1.0573
 2616TIP3    H229484   2.369   1.189   0.308  0.7653  0.2301  0.2817
 2617TIP3   OH229485   5.555   0.676   2.342  0.3200  0.0016  0.3149
 2617TIP3    H129486   5.512   0.728   2.274  1.4631  1.1766  0.4494
 2617TIP3    H229487   5.503   0.692   2.421 -0.0840 -0.1002  0.0715
 2618TIP3   OH229488   4.738   4.516   6.657  0.1294  0.1013 -0.2996
 2618TIP3    H129489   4.688   4.597   6.660  0.1938  0.1530  2.4440
 2618TIP3    H229490   4.757   4.497   6.749  1.8055 -1.9864 -0.9988
 2619TIP3   OH229491   0.299   3.998   1.538 -0.1941 -0.1752  0.0167
 2619TIP3    H129492   0.370   3.987   1.601 -0.2087  0.4171  0.1369
 2619TIP3    H229493   0.285   3.910   1.502 -0.3298 -0.5603  0.9919
 2620TIP3   OH229494   4.378   1.816   8.462 -0.1306 -0.1765  0.1034
 2620TIP3    H129495   4.433   1.892   8.482 -0.8904 -0.1468  2.4076
 2620TIP3    H229496   4.439   1.743   8.453  0.4594  0.3381 -0.1358
 2621TIP3   OH229497   6.549   6.432   7.514  0.0586  0.0272 -0.1202
 2621TIP3    H129498   6.608   6.436   7.590 -0.4957 -1.0267  0.3863
 2621TIP3    H229499   6.472   6.384   7.546 -1.5099  2.1600 -0.4975
 2622TIP3   OH229500   5.036   5.253   0.770 -0.2899  0.4794  0.1304
 2622TIP3    H129501   5.095   5.316   0.810  0.2615  0.4858 -0.6630
 2622TIP3    H229502   4.958   5.255   0.825 -0.1846  1.6663  0.2631
 2623TIP3   OH229503   3.626   5.582   0.435 -0.3595  0.1163  0.9920
 2623TIP3    H129504   3.632   5.676   0.416 -0.7321  0.1017  0.7890
 2623TIP3    H229505   3.708   5.546   0.401 -0.4744  0.2811  0.5235
 2624TIP3   OH229506   4.742   3.734   7.188 -0.0761 -0.4167 -0.4986
 2624TIP3    H129507   4.717   3.679   7.262 -0.2725  0.9770  0.5170
 2624TIP3    H229508   4.838   3.735   7.189  0.0061  2.2031  1.8711
 2625TIP3   OH229509   0.482   0.449   1.007  0.0596  0.1363  0.1560
 2625TIP3    H129510   0.477   0.483   0.918 -0.5063 -1.5208 -0.4785
 2625TIP3    H229511   0.575   0.430   1.021  0.0438 -0.3378 -0.3776
 2626TIP3   OH229512   3.614   0.794   8.306 -0.5774  0.2927  0.2251
 2626TIP3    H129513   3.605   0.862   8.373  2.3919  0.9552  0.0828
 2626TIP3    H229514   3.609   0.712   8.354 -0.9154  0.6866  0.8831
 2627TIP3   OH229515   1.259   2.640   0.904  0.1155 -0.1948 -0.0249
 2627TIP3    H129516   1.278   2.594   0.821  0.9302 -1.1267  0.6528
 2627TIP3    H229517   1.318   2.599   0.967  0.1296  1.1284  0.8344
 2628TIP3   OH229518   6.353   2.161   8.049 -0.0825 -0.0556  0.6441
 2628TIP3    H129519   6.259   2.182   8.045  0.4368  2.5791 -0.7647
 2628TIP3    H229520   6.365   2.093   7.983 -0.7907  0.8560 -0.4732
 2629TIP3   OH229521   0.151   1.041   2.640  0.4025  0.3330  0.0085
 2629TIP3    H129522   0.177   0.976   2.706 -0.4915  3.5577  3.9717
 2629TIP3    H229523   0.226   1.100   2.634 -0.0783  0.8759 -0.8400
 2630TIP3   OH229524   0.839   5.927   8.736  0.2273 -0.0924  0.5426
 2630TIP3    H129525   0.847   6.011   8.690  2.7129 -0.2652  0.5076
 2630TIP3    H229526   0.806   5.951   8.823 -1.5381  0.5845 -0.2711
 2631TIP3   OH229527   4.265   4.808   8.542 -0.2820  0.4341  0.5088
 2631TIP3    H129528   4.247   4.886   8.595 -1.0324  1.8630 -1.7041
 2631TIP3    H229529   4.356   4.820   8.513 -1.2752  2.1950 -2.3002
 2632TIP3   OH229530   1.799   5.792   6.382 -0.3797 -0.0639  0.8050
 2632TIP3    H129531   1.795   5.844   6.301  1.8747 -0.0689  0.6186
 2632TIP3    H229532   1.755   5.846   6.448 -1.3013  0.4212 -0.1697
 2633TIP3   OH229533   4.738   0.539   0.090 -0.5364  0.3544 -0.5736
 2633TIP3    H129534   4.733   0.450   0.055 -0.1247  0.0425  0.1186
 2633TIP3    H229535   4.694   0.594   0.025 -0.4208 -0.2954 -1.2121
 2634TIP3   OH229536   5.088   5.990   6.620  0.7232  0.1959  0.2093
 2634TIP3    H129537   5.106   6.017   6.710  1.2035  0.2168  0.1101
 2634TIP3    H229538   5.000   6.022   6.602  0.8946  0.8092  0.4367
 2635TIP3   OH229539   4.235   1.972   6.546  0.3660  0.1174  0.1167
 2635TIP3    H129540   4.218   1.922   6.467 -0.0382  1.8526 -0.9543
 2635TIP3    H229541   4.305   1.924   6.590 -2.0173 -3.1032  0.8304
 2636TIP3   OH229542   5.098   4.110   1.631 -0.4128  0.4089  0.2594
 2636TIP3    H129543   5.150   4.171   1.685 -0.4724  0.3364  0.4003
 2636TIP3    H229544   5.075   4.040   1.692 -0.9112  0.5773  0.2657
 2637TIP3   OH229545   4.188   3.227   0.069  0.1018  0.3930  0.1366
 2637TIP3    H129546   4.265   3.279   0.048 -0.3179  1.1155  0.3518
 2637TIP3    H229547   4.201   3.199   0.159  1.3393 -1.7074 -0.6324
 2638TIP3   OH229548   0.408   2.215   8.503 -0.5028  0.3142  0.1001
 2638TIP3    H129549   0.471   2.190   8.435  0.2735 -0.8080  1.1974
 2638TIP3    H229550   0.323   2.188   8.468 -0.1925  0.2698 -0.6540
 2639TIP3   OH229551   5.860   1.665   1.098 -0.1559 -0.4142 -0.6044
 2639TIP3    H129552   5.815   1.697   1.176  0.8627  1.4391 -0.7182
 2639TIP3    H229553   5.891   1.578   1.123 -1.6284 -0.7104  0.3082
 2640TIP3   OH229554   4.879   6.384   0.984 -0.2789  0.3246  0.1559
 2640TIP3    H129555   4.944   6.442   1.023  2.2217 -1.3372 -1.2971
 2640TIP3    H229556   4.842   6.435   0.911  0.7889  0.6410 -0.1773
 2641TIP3   OH229557   1.539   0.284   1.576 -0.1807 -0.2571 -0.0848
 2641TIP3    H129558   1.556   0.226   1.502 -0.8934 -2.5576  1.4407
 2641TIP3    H229559   1.619   0.278   1.629 -0.7464 -0.8792  0.7137
 2642TIP3   OH229560   2.682   5.521   7.058  0.5012  0.0865  0.1245
 2642TIP3    H129561   2.750   5.457   7.039  0.2270 -0.3285  0.5547
 2642TIP3    H229562   2.718   5.604   7.024 -0.3572 -0.7612 -3.1858
 2643TIP3   OH229563   0.117   5.222   0.595  0.1479  0.8445 -0.7964
 2643TIP3    H129564   0.119   5.243   0.502 -0.6913 -0.7364 -1.2022
 2643TIP3    H229565   0.138   5.305   0.639  0.6997  1.5749 -2.3802
 2644TIP3   OH229566   1.832   6.669   8.548  0.3689  0.4137 -0.1867
 2644TIP3    H129567   1.857   6.604   8.482  0.8405  0.1337  0.2650
 2644TIP3    H229568   1.817   6.749   8.497  1.1806  0.3226 -0.5869
 2645TIP3   OH229569   0.402   0.213   1.098 -0.5813  0.7295 -0.0790
 2645TIP3    H129570   0.423   0.298   1.060  0.6151  1.3709  1.8736
 2645TIP3    H229571   0.339   0.234   1.167 -0.2928  0.0183  0.3976
 2646TIP3   OH229572   3.905   6.735   8.202 -0.1838 -0.3085  0.2681
 2646TIP3    H129573   3.974   6.726   8.267 -0.7391  2.6128  1.3984
 2646TIP3    H229574   3.948   6.774   8.125  0.1233 -2.1655 -0.5662
 2647TIP3   OH229575   0.695   4.572   7.736 -0.2810  0.8257  0.0753
 2647TIP3    H129576   0.675   4.484   7.765  1.3495 -0.0410 -1.2647
 2647TIP3    H229577   0.636   4.628   7.787 -1.7266 -1.0435  0.5773
 2648TIP3   OH229578   0.293   4.541   7.638  0.5960  0.4729 -0.5432
 2648TIP3    H129579   0.272   4.448   7.650 -1.9747  0.7856 -1.8506
 2648TIP3    H229580   0.348   4.543   7.560  3.0520 -0.1058  1.0651
 2649TIP3   OH229581   2.617   5.527   8.087 -0.7466  0.7195  0.3011
 2649TIP3    H129582   2.613   5.443   8.041 -2.6632 -0.4304  2.3407
 2649TIP3    H229583   2.692   5.572   8.049  1.8548 -2.8541  0.6676
 2650TIP3   OH229584   0.982   5.063   8.576  0.1184  0.0255  0.0465
 2650TIP3    H129585   1.019   5.062   8.488 -0.6888  0.1300 -0.3047
 2650TIP3    H229586   0.959   5.154   8.592  0.5250  0.0551  0.4851
 2651TIP3   OH229587   0.291   0.800   0.825  0.2821 -0.4376  0.2511
 2651TIP3    H129588   0.319   0.718   0.785 -0.3528 -1.1467  1.2293
 2651TIP3    H229589   0.304   0.787   0.919  0.0444  0.5311  0.4345
 2652TIP3   OH229590   0.577   5.273   2.113  0.3194 -0.6466 -0.3258
 2652TIP3    H129591   0.660   5.305   2.078 -0.2777  0.9450 -0.3383
 2652TIP3    H229592   0.535   5.350   2.150 -0.9541 -1.5247  0.1127
 2653TIP3   OH229593   5.838   4.547   0.904 -0.1388  0.4135  0.3315
 2653TIP3    H129594   5.769   4.508   0.851  1.3604 -1.6879 -0.2018
 2653TIP3    H229595   5.825   4.512   0.992 -0.0538  0.4072  0.3421
 2654TIP3   OH229596   6.855   3.405   0.016 -0.2225 -0.1250 -0.1844
 2654TIP3    H129597   6.823   3.394   0.106 -1.0059 -1.5948 -0.6053
 2654TIP3    H229598   6.905   3.487   0.018  1.5407 -1.1216  2.1070
 2655TIP3   OH229599   0.816   6.331   6.972 -0.1833  0.1449  0.1396
 2655TIP3    H129600   0.874   6.331   7.048 -0.7661  0.7061  0.5930
 2655TIP3    H229601   0.810   6.239   6.946  0.8541  0.0770  0.1193
 2656TIP3   OH229602   1.332   4.535   0.453  0.0902 -0.0860 -0.2019
 2656TIP3    H129603   1.349   4.466   0.389 -1.8094  1.3203 -2.3416
 2656TIP3    H229604   1.369   4.614   0.414  0.3695  0.5387  1.2490
 2657TIP3   OH229605   0.071   2.416   7.647 -0.2799 -0.3499 -0.2100
 2657TIP3    H129606   0.107   2.496   7.610  0.8957 -1.4895 -1.6890
 2657TIP3    H229607  -0.007   2.398   7.594 -1.1561  0.3463  0.8103
 2658TIP3   OH229608   4.978   6.182   7.607 -0.4464  0.2877 -0.2369
 2658TIP3    H129609   4.960   6.139   7.690  2.4505 -1.4204 -0.3577
 2658TIP3    H229610   4.998   6.110   7.547  1.5795  1.6142 -1.2654
 2659TIP3   OH229611   2.549   2.086   1.099  0.2238  0.0254 -0.5857
 2659TIP3    H129612   2.602   2.149   1.148 -2.4284  1.3994  0.7402
 2659TIP3    H229613   2.534   2.129   1.014  0.8299 -0.1555 -0.7861
 2660TIP3   OH229614   1.394   4.840   0.149 -0.1914  0.5193 -0.5389
 2660TIP3    H129615   1.471   4.785   0.160 -1.1332 -0.3001  3.9053
 2660TIP3    H229616   1.421   4.926   0.182 -0.5238  0.8942 -1.2387
 2661TIP3   OH229617   4.600   4.100   1.738  0.0318 -0.0131  0.1068
 2661TIP3    H129618   4.663   4.039   1.698  1.3247  1.2234  0.1907
 2661TIP3    H229619   4.584   4.063   1.825 -0.4975 -1.1126 -0.4326
 2662TIP3   OH229620   4.141   2.567   2.223 -0.2284  0.6308 -0.2329
 2662TIP3    H129621   4.205   2.564   2.152  0.6651 -1.4623  0.5840
 2662TIP3    H229622   4.128   2.660   2.240  1.5933  1.1248 -1.3140
 2663TIP3   OH229623   1.753   2.543   1.445 -0.2092 -0.3159  0.2160
 2663TIP3    H129624   1.685   2.476   1.455 -0.1199 -0.2934  1.1194
 2663TIP3    H229625   1.737   2.603   1.519 -0.4428  0.7970 -0.7096
 2664TIP3   OH229626   4.264   4.368   8.347  0.0051 -0.1846 -0.5307
 2664TIP3    H129627   4.189   4.424   8.366 -1.2009 -1.6925 -0.5938
 2664TIP3    H229628   4.251   4.291   8.403  2.0184 -0.0917  0.1469
 2665TIP3   OH229629   2.409   1.793   0.762  0.2136 -0.3286  0.5191
 2665TIP3    H129630   2.463   1.867   0.734  1.1922 -0.8264  1.0257
 2665TIP3    H229631   2.448   1.765   0.845  1.3572 -2.8669 -0.7620
 2666TIP3   OH229632   3.174   1.797   0.513 -0.1881 -0.2761  0.5990
 2666TIP3    H129633   3.179   1.871   0.574  1.1710 -0.0156  0.1862
 2666TIP3    H229634   3.148   1.836   0.430 -1.7779 -0.5992  0.9038
 2667TIP3   OH229635   6.407   0.198   2.346 -0.2171  0.5827 -0.6097
 2667TIP3    H129636   6.318   0.191   2.378 -0.0413 -0.7429 -0.3253
 2667TIP3    H229637   6.421   0.291   2.330 -0.7387  1.1667  1.9212
 2668TIP3   OH229638   5.518   0.318   8.756 -0.1506  0.0405 -0.6761
 2668TIP3    H129639   5.568   0.319   8.838  1.6219  2.4246 -1.6466
 2668TIP3    H229640   5.431   0.350   8.780 -0.4483 -1.6078  0.6196
 2669TIP3   OH229641   3.498   3.139   2.047  0.3457  0.0026  0.0710
 2669TIP3    H129642   3.576   3.086   2.065 -0.9168 -1.9201  0.1725
 2669TIP3    H229643   3.461   3.157   2.133  0.5397  0.7168  0.0094
 2670TIP3   OH229644   0.331   4.288   0.396 -0.3175  0.5009 -0.0573
 2670TIP3    H129645   0.305   4.379   0.382 -0.6419  0.4225  0.0440
 2670TIP3    H229646   0.425   4.287   0.377 -0.2752  0.8965  0.1369
 2671TIP3   OH229647   5.845   5.179   7.572  0.1332  0.6107  0.3038
 2671TIP3    H129648   5.778   5.115   7.546  0.3873  0.7315 -0.6725
 2671TIP3    H229649   5.905   5.129   7.627 -0.6869  0.4716  1.1031
 2672TIP3   OH229650   4.667   6.053   2.440 -0.3432  0.5205  0.5082
 2672TIP3    H129651   4.648   6.135   2.394  2.4856  0.2686 -1.3666
 2672TIP3    H229652   4.758   6.064   2.471 -0.3053 -1.4620  1.2422
 2673TIP3   OH229653   3.872   6.013   7.479  0.4494  0.2521 -0.5324
 2673TIP3    H129654   3.827   6.035   7.398  0.2660 -0.2889 -0.5834
 2673TIP3    H229655   3.964   6.035   7.462  0.1404  1.8927 -0.2304
 2674TIP3   OH229656   4.496   5.904   8.505 -0.6157 -0.2242 -0.2293
 2674TIP3    H129657   4.544   5.821   8.506  0.2103  0.2504  0.1488
 2674TIP3    H229658   4.450   5.906   8.588  0.1841  0.1541  0.2181
 2675TIP3   OH229659   1.701   0.787   7.533 -0.0543  0.2817  0.6757
 2675TIP3    H129660   1.760   0.794   7.458 -2.2371  2.6085 -0.9910
 2675TIP3    H229661   1.721   0.864   7.586 -0.0668 -0.1357  1.2920
 2676TIP3   OH229662   1.150   6.569   6.679  0.0813 -0.1962 -0.0103
 2676TIP3    H129663   1.059   6.549   6.698  0.1417 -0.5016 -0.0390
 2676TIP3    H229664   1.182   6.614   6.757  0.4867 -1.9430  0.8725
 2677TIP3   OH229665   0.083   2.630   1.494 -0.1788  0.3032  0.3799
 2677TIP3    H129666   0.152   2.577   1.454 -0.7033 -0.9173  1.0473
 2677TIP3    H229667   0.125   2.715   1.510  0.8972 -0.1280 -0.0358
 2678TIP3   OH229668   0.613   3.222   0.724 -0.4183  0.0728  0.2376
 2678TIP3    H129669   0.699   3.181   0.714 -0.8184 -0.6260 -0.5298
 2678TIP3    H229670   0.555   3.166   0.672 -1.2398  0.8229  0.3414
 2679TIP3   OH229671   4.301   3.890   0.912  0.3505 -0.1855  0.2143
 2679TIP3    H129672   4.251   3.971   0.900 -0.0004 -0.2114  1.3922
 2679TIP3    H229673   4.356   3.884   0.834 -1.1855  0.0481 -0.9257
 2680TIP3   OH229674   0.527   1.753   1.946  0.5679  0.0829  0.1536
 2680TIP3    H129675   0.595   1.709   1.997  0.9906 -1.5024 -1.6971
 2680TIP3    H229676   0.532   1.845   1.975  0.9767 -0.6566  2.6790
 2681TIP3   OH229677   0.827   3.187   7.619 -0.2656 -0.7080  0.3273
 2681TIP3    H129678   0.838   3.260   7.557  1.1359 -0.3967  0.9062
 2681TIP3    H229679   0.780   3.120   7.569  0.2750 -0.2144 -0.8753
 2682TIP3   OH229680   5.653   5.901   7.395 -0.2340  0.2321  0.0382
 2682TIP3    H129681   5.562   5.875   7.410  0.8739 -2.2344  3.7551
 2682TIP3    H229682   5.681   5.848   7.320 -1.5472  0.4094 -0.6168
 2683TIP3   OH229683   5.990   0.520   6.330 -0.1103  0.5143 -0.0020
 2683TIP3    H129684   6.025   0.585   6.270 -0.7092  0.5243 -0.3461
 2683TIP3    H229685   5.939   0.571   6.394  2.6695  0.8180  2.1629
 2684TIP3   OH229686   1.170   5.336   6.762  0.5394  0.0256 -0.3475
 2684TIP3    H129687   1.078   5.363   6.753 -0.0342 -1.3227  1.0380
 2684TIP3    H229688   1.182   5.325   6.856  1.8550 -0.7309 -0.5869
 2685TIP3   OH229689   1.039   0.530   7.406 -0.5591 -0.4458 -0.4553
 2685TIP3    H129690   1.111   0.477   7.440 -0.8881  0.1120  1.2592
 2685TIP3    H229691   1.081   0.594   7.348  0.2154 -0.6774 -0.1601
 2686TIP3   OH229692   1.061   0.126   8.052  0.2185  0.8038 -0.9343
 2686TIP3    H129693   1.127   0.144   8.119  0.3717 -1.0738 -0.5107
 2686TIP3    H229694   0.989   0.085   8.100  0.4286 -0.7898 -1.8917
 2687TIP3   OH229695   3.104   1.919   0.294  0.5373  0.3595 -0.2533
 2687TIP3    H129696   3.151   1.880   0.220  0.9284  0.2754  0.0365
 2687TIP3    H229697   3.015   1.930   0.262 -0.0846 -2.4919  0.2267
 2688TIP3   OH229698   2.458   1.563   0.298 -0.2590 -0.0187 -0.4295
 2688TIP3    H129699   2.531   1.605   0.253 -0.4012 -0.5219 -1.1377
 2688TIP3    H229700   2.493   1.479   0.329 -0.6192 -0.4138 -1.0673
 2689TIP3   OH229701   1.979   4.483   0.199  0.4855  0.2189 -0.0623
 2689TIP3    H129702   1.887   4.503   0.180  0.2466  1.0178  1.7928
 2689TIP3    H229703   1.995   4.519   0.286  2.6821  0.4278 -0.4811
 2690TIP3   OH229704   0.569   1.665   0.114 -0.4805  0.1434  0.2988
 2690TIP3    H129705   0.545   1.654   0.206 -0.4495  2.1464  0.5840
 2690TIP3    H229706   0.506   1.729   0.080  0.8277  1.0629 -0.4899
 2691TIP3   OH229707   0.789   0.918   2.013 -0.1076  0.3569  0.0384
 2691TIP3    H129708   0.830   0.970   2.082  3.6283 -2.1792 -0.0136
 2691TIP3    H229709   0.819   0.957   1.931 -0.8421  0.6266 -0.1173
 2692TIP3   OH229710   2.774   3.316   8.263 -0.1890 -0.2109  0.1620
 2692TIP3    H129711   2.717   3.391   8.279  1.4774  1.2269 -0.3628
 2692TIP3    H229712   2.809   3.330   8.175  1.0278 -0.9962  0.4928
 2693TIP3   OH229713   3.413   6.328   7.650 -0.5991 -0.2770  0.0677
 2693TIP3    H129714   3.499   6.287   7.640 -0.4457  0.1991 -0.6183
 2693TIP3    H229715   3.369   6.311   7.567 -1.0423 -0.2214  0.2881
 2694TIP3   OH229716   1.588   5.398   8.604  0.3388  0.4819 -0.2787
 2694TIP3    H129717   1.588   5.366   8.695  2.2910  0.1484 -0.3606
 2694TIP3    H229718   1.540   5.481   8.608 -3.0708 -1.3127  0.3093
 2695TIP3   OH229719   4.693   0.168   8.443 -0.0893  0.2970  0.5294
 2695TIP3    H129720   4.648   0.175   8.527 -0.5908 -1.3047  0.4189
 2695TIP3    H229721   4.623   0.159   8.378  0.3312  0.3666  0.0564
 2696TIP3   OH229722   4.972   2.655   0.690 -0.0455 -0.1246  1.1974
 2696TIP3    H129723   5.031   2.707   0.745 -0.1268  0.2230  0.9567
 2696TIP3    H229724   5.030   2.596   0.642 -0.0211 -0.9033  2.1454
 2697TIP3   OH229725   4.448   0.210   8.316  0.7257 -0.4774 -1.0318
 2697TIP3    H129726   4.366   0.220   8.267 -0.3495 -1.3866  0.5046
 2697TIP3    H229727   4.423   0.227   8.407  2.5524  0.6251 -0.6892
 2698TIP3   OH229728   2.498   4.726   7.199 -0.4831 -0.2675 -0.6659
 2698TIP3    H129729   2.482   4.640   7.236  0.4822 -0.5142 -0.8082
 2698TIP3    H229730   2.492   4.786   7.273  0.2589 -0.6249 -0.3102
 2699TIP3   OH229731   5.550   2.991   0.443 -0.1334  0.5131 -0.1705
 2699TIP3    H129732   5.571   2.919   0.502 -0.7779  1.0525  0.7432
 2699TIP3    H229733   5.585   2.964   0.358  1.4518  0.0264  0.6038
 2700TIP3   OH229734   5.154   3.938   1.392 -0.6111  1.0706  0.2728
 2700TIP3    H129735   5.122   3.987   1.467  0.6509 -0.4399  1.8984
 2700TIP3    H229736   5.243   3.971   1.378 -0.8851  1.4420 -0.6872
 2701TIP3   OH229737   6.676   5.950   1.328  0.2666  0.5981 -0.3117
 2701TIP3    H129738   6.594   5.998   1.341  0.3883  0.5895  0.5821
 2701TIP3    H229739   6.741   6.018   1.310  0.6084  0.9111  1.7813
 2702TIP3   OH229740   4.029   6.813   1.800  0.0861 -0.1873 -0.1798
 2702TIP3    H129741   4.055   6.799   1.891 -0.6756  0.0765  0.0841
 2702TIP3    H229742   3.939   6.783   1.796  0.0553 -0.0250 -0.8090
 2703TIP3   OH229743   6.665   2.149   1.903  0.3248  0.5516 -0.2213
 2703TIP3    H129744   6.663   2.214   1.974  0.7104  0.9456 -0.5688
 2703TIP3    H229745   6.756   2.120   1.900  0.3657  0.7348 -0.7337
 2704TIP3   OH229746   0.836   5.966   7.159  0.3004  0.1331 -0.2819
 2704TIP3    H129747   0.865   5.977   7.069 -1.1679  1.2761 -0.6614
 2704TIP3    H229748   0.820   6.055   7.190 -0.7530 -0.3327  0.5653
 2705TIP3   OH229749   4.323   6.062   8.320  0.1349  0.0654  0.2809
 2705TIP3    H129750   4.384   6.057   8.393  2.3727  2.6965 -1.2328
 2705TIP3    H229751   4.253   6.120   8.350  0.6519  0.5353  0.5787
 2706TIP3   OH229752   0.181   4.553   1.148  0.4529 -0.8817  0.2024
 2706TIP3    H129753   0.200   4.478   1.092  0.6971 -2.0021  1.7350
 2706TIP3    H229754   0.242   4.545   1.222 -0.1827  0.2721  0.8964
 2707TIP3   OH229755   5.620   6.772   0.785 -0.2402  0.1777 -0.4677
 2707TIP3    H129756   5.560   6.752   0.857  0.8270  1.0244  0.7114
 2707TIP3    H229757   5.565   6.809   0.717 -1.3402 -1.0292 -0.2596
 2708TIP3   OH229758   1.162   4.770   0.004 -0.2758  0.5166  0.0894
 2708TIP3    H129759   1.246   4.773   0.051 -1.0029 -1.0248  1.6065
 2708TIP3    H229760   1.107   4.834   0.049 -0.6302 -0.1809  0.6771
 2709TIP3   OH229761   3.377   1.967   8.365  0.2555  0.8279  0.1523
 2709TIP3    H129762   3.427   2.009   8.435  0.4385  0.6184  0.1476
 2709TIP3    H229763   3.427   1.987   8.285  0.1197  0.9524  0.0988
 2710TIP3   OH229764   6.478   4.594   8.004 -0.2235  0.3684 -0.2558
 2710TIP3    H129765   6.385   4.583   8.023 -0.5324  1.4910 -0.9737
 2710TIP3    H229766   6.488   4.557   7.916 -0.2622  1.2950 -0.6666
 2711TIP3   OH229767   0.496   5.918   6.968 -0.0281  0.1235  0.0110
 2711TIP3    H129768   0.542   6.001   6.971  0.0642  0.0466  1.1004
 2711TIP3    H229769   0.450   5.919   6.884 -2.3328  2.5353  1.1686
 2712TIP3   OH229770   0.287   1.275   8.512  0.1315  0.1812  0.1361
 2712TIP3    H129771   0.244   1.234   8.437 -2.3242 -0.3961  1.7533
 2712TIP3    H229772   0.374   1.235   8.514  0.7192  0.9775 -2.9384
 2713TIP3   OH229773   1.592   1.090   8.764  0.3750 -1.0506  0.0469
 2713TIP3    H129774   1.546   1.064   8.684 -0.1052 -0.1927  0.0230
 2713TIP3    H229775   1.630   1.176   8.742 -0.4099 -0.4483  0.9715
 2714TIP3   OH229776   4.737   3.868   0.284 -0.0809  0.4078 -0.8924
 2714TIP3    H129777   4.788   3.860   0.203 -1.1750  1.7955 -1.7817
 2714TIP3    H229778   4.649   3.841   0.260 -1.4846  4.6559 -1.4422
 2715TIP3   OH229779   2.658   4.500   6.540 -0.4715  0.1044  0.0892
 2715TIP3    H129780   2.593   4.430   6.529 -0.1158  0.0214 -1.8437
 2715TIP3    H229781   2.713   4.494   6.462  0.2144  1.8944  0.3858
 2716TIP3   OH229782   3.012   2.474   8.682  0.3696 -0.2615  0.1352
 2716TIP3    H129783   2.964   2.476   8.599  2.1155 -2.7769 -1.0769
 2716TIP3    H229784   3.076   2.545   8.673 -0.4681  0.5122  0.0595
 2717TIP3   OH229785   4.474   2.328   8.272 -0.0311 -0.2898  0.2825
 2717TIP3    H129786   4.530   2.396   8.309  0.1870 -0.6140  0.5493
 2717TIP3    H229787   4.530   2.281   8.211 -0.3180  0.0781 -0.2739
 2718TIP3   OH229788   6.836   2.300   8.519  0.3574 -0.1789  0.0764
 2718TIP3    H129789   6.859   2.213   8.485 -0.8009 -1.4809  2.3522
 2718TIP3    H229790   6.918   2.333   8.556  0.8042 -0.3084 -0.7774
 2719TIP3   OH229791   6.844   5.050   0.998  0.3772  0.4798 -0.1036
 2719TIP3    H129792   6.776   5.050   1.065 -0.3607 -2.0263 -0.7444
 2719TIP3    H229793   6.798   5.072   0.917  0.4524 -0.4208 -0.4048
 2720TIP3   OH229794   5.463   4.450   1.893  0.0127  0.3221 -0.3236
 2720TIP3    H129795   5.495   4.481   1.978  1.0769  0.1898 -0.6550
 2720TIP3    H229796   5.542   4.418   1.849 -0.7834 -1.2954 -0.6436
 2721TIP3   OH229797   6.642   5.714   1.181  0.1781  0.8800 -0.3360
 2721TIP3    H129798   6.724   5.685   1.141 -0.4349 -0.5221 -0.6310
 2721TIP3    H229799   6.666   5.791   1.232  1.8157  0.0888  0.1449
 2722TIP3   OH229800   2.239   5.670   0.580  0.0553  0.6691 -0.3783
 2722TIP3    H129801   2.270   5.666   0.490  2.3291 -0.2211  0.3529
 2722TIP3    H229802   2.309   5.629   0.631 -1.3045  0.8351  1.7632
 2723TIP3   OH229803   5.939   3.674   0.242  0.8852  0.0265 -0.0486
 2723TIP3    H129804   5.920   3.586   0.272  1.8468 -0.3831 -0.6088
 2723TIP3    H229805   5.856   3.706   0.207  0.5156 -0.6242  0.2222
 2724TIP3   OH229806   0.446   3.710   7.878  0.1075  0.3807 -0.3282
 2724TIP3    H129807   0.499   3.710   7.958  0.5350 -0.9203 -0.5887
 2724TIP3    H229808   0.498   3.761   7.815  0.9686 -0.7099 -0.5209
 2725TIP3   OH229809   2.784   2.959   8.759  0.6667 -0.3121 -0.7208
 2725TIP3    H129810   2.762   3.048   8.731  0.1465 -0.4721 -0.8279
 2725TIP3    H229811   2.714   2.936   8.820 -0.4187 -1.4484 -2.3075
 2726TIP3   OH229812   2.575   0.208   2.349  0.1066 -0.0758 -0.2144
 2726TIP3    H129813   2.644   0.226   2.412 -0.4316 -0.1944  0.4265
 2726TIP3    H229814   2.577   0.113   2.338 -0.3018 -0.1398  0.2238
 2727TIP3   OH229815   6.233   0.016   7.375 -0.2357 -0.3289  0.0225
 2727TIP3    H129816   6.201   0.069   7.448  1.2977  0.4222  0.1830
 2727TIP3    H229817   6.290  -0.050   7.416 -1.1540 -1.3498 -0.2976
 2728TIP3   OH229818   1.884   6.769   7.377  0.3304  0.2402 -0.0245
 2728TIP3    H129819   1.946   6.800   7.311 -0.9427  0.8889 -0.9488
 2728TIP3    H229820   1.938   6.753   7.455  1.4348  2.3047 -0.2965
 2729TIP3   OH229821   1.464   0.511   2.302  0.6903 -0.2242  0.2976
 2729TIP3    H129822   1.540   0.565   2.323 -0.1388  0.4028  1.8280
 2729TIP3    H229823   1.392   0.573   2.289  0.2533 -0.8407 -0.3153
 2730TIP3   OH229824   2.518   6.664   7.263  0.1189  0.2173 -0.1927
 2730TIP3    H129825   2.483   6.749   7.238 -2.0738  0.0399  1.8898
 2730TIP3    H229826   2.587   6.684   7.327  0.2378  0.4542 -0.3973
 2731TIP3   OH229827   5.441   0.821   8.278 -0.9342  0.1574 -0.5232
 2731TIP3    H129828   5.370   0.861   8.327 -0.6056  0.7943 -0.5654
 2731TIP3    H229829   5.489   0.770   8.343 -0.7569  0.6451 -0.2730
 2732TIP3   OH229830   6.747   6.413   1.151  0.1498 -0.0596 -0.3881
 2732TIP3    H129831   6.759   6.482   1.086  2.2555  0.0074  0.0236
 2732TIP3    H229832   6.653   6.394   1.148 -0.2796  1.9507 -1.3759
 2733TIP3   OH229833   4.229   4.944   0.755  0.2104  0.3634  0.9794
 2733TIP3    H129834   4.272   4.977   0.834 -0.7464  0.8518  1.3207
 2733TIP3    H229835   4.188   5.022   0.716  1.7310  0.3826 -0.7236
 2734TIP3   OH229836   6.122   0.482   7.530 -0.2060  0.4321 -0.1042
 2734TIP3    H129837   6.062   0.478   7.605  0.2128  0.7473  0.2540
 2734TIP3    H229838   6.076   0.535   7.465 -0.6029  0.0989 -0.1004
 2735TIP3   OH229839   6.347   6.380   2.454  0.4742  0.0340 -0.4396
 2735TIP3    H129840   6.342   6.474   2.470 -0.5522 -0.0037 -0.4589
 2735TIP3    H229841   6.427   6.352   2.499  0.9455  0.9574 -0.6810
 2736TIP3   OH229842   4.795   2.717   8.292 -0.1653 -0.3938 -0.4430
 2736TIP3    H129843   4.876   2.696   8.338 -0.6677 -2.7352 -0.4630
 2736TIP3    H229844   4.804   2.809   8.267  1.6252 -0.0393  1.2358
 2737TIP3   OH229845   5.199   1.962   1.408 -0.1390  0.2683  0.0024
 2737TIP3    H129846   5.190   1.885   1.351  2.6958  0.2521 -0.5983
 2737TIP3    H229847   5.128   1.953   1.472 -0.0717 -2.7377 -0.1957
 2738TIP3   OH229848   3.769   2.124   6.356  0.1106  0.9217 -0.2458
 2738TIP3    H129849   3.818   2.048   6.388  0.0050  1.1685  0.5142
 2738TIP3    H229850   3.728   2.093   6.275  0.0685  0.1634  0.0547
 2739TIP3   OH229851   0.190   3.552   2.419 -0.6340 -0.7977 -0.4791
 2739TIP3    H129852   0.232   3.481   2.370 -0.3473 -0.1811 -1.1395
 2739TIP3    H229853   0.231   3.549   2.506  2.5171  1.2013 -1.7298
 2740TIP3   OH229854   6.059   5.874   2.225  1.2769 -0.2939  0.2016
 2740TIP3    H129855   6.133   5.934   2.216  0.1150  0.8690 -3.5669
 2740TIP3    H229856   6.072   5.810   2.155 -0.5267 -0.9289  0.4036
 2741TIP3   OH229857   6.548   6.346   1.685  0.0040  0.0126  0.4794
 2741TIP3    H129858   6.498   6.421   1.655  1.2000  1.0130  0.8821
 2741TIP3    H229859   6.631   6.383   1.717 -0.3869 -1.1363  3.1839
 2742TIP3   OH229860   2.309   3.860   1.355  0.2484 -0.0003  0.0827
 2742TIP3    H129861   2.318   3.831   1.446  0.9287 -0.1059 -0.0150
 2742TIP3    H229862   2.216   3.848   1.335  0.1829 -0.4163  0.6160
 2743TIP3   OH229863   0.542   1.421   7.328 -0.1229 -0.2861  0.4664
 2743TIP3    H129864   0.569   1.431   7.419  1.2769 -1.3933  0.1998
 2743TIP3    H229865   0.551   1.328   7.309 -0.8614 -0.1545 -0.6809
 2744TIP3   OH229866   2.868   1.766   0.652  0.0467  0.4243 -0.3751
 2744TIP3    H129867   2.794   1.733   0.601  0.6033  0.7514 -1.4287
 2744TIP3    H229868   2.863   1.861   0.642  0.7291  0.4361 -0.6416
 2745TIP3   OH229869   3.653   6.257   7.720  0.3011 -0.8733 -0.1650
 2745TIP3    H129870   3.730   6.290   7.674  0.4012 -0.3611  0.3484
 2745TIP3    H229871   3.680   6.173   7.756  0.9982 -0.2167  0.9311
 2746TIP3   OH229872   6.356   5.601   8.186  0.1099  0.1716  0.2164
 2746TIP3    H129873   6.339   5.549   8.264 -2.9740  1.7661  0.7802
 2746TIP3    H229874   6.287   5.668   8.186  0.6239  0.9308 -3.3053
 2747TIP3   OH229875   2.625   0.192   7.166  0.1381  0.3703  0.2508
 2747TIP3    H129876   2.560   0.253   7.201  1.6750  0.9711  2.2887
 2747TIP3    H229877   2.574   0.118   7.134 -1.5955  1.2443  0.8643
 2748TIP3   OH229878   2.961   0.361   7.462  0.2411 -0.8652 -0.7799
 2748TIP3    H129879   2.969   0.430   7.396 -1.8084  0.9380  0.6813
 2748TIP3    H229880   3.010   0.287   7.426 -0.5003  0.0914 -4.1547
 2749TIP3   OH229881   4.197   3.704   7.431  0.1117 -0.1075  0.5007
 2749TIP3    H129882   4.243   3.690   7.348 -0.1724  0.6763  0.2005
 2749TIP3    H229883   4.114   3.745   7.406 -0.2891 -0.5180  1.1221
 2750TIP3   OH229884   6.808   1.319   8.382 -0.8473 -0.1065 -0.5551
 2750TIP3    H129885   6.727   1.270   8.389 -0.0613 -1.3831 -0.1001
 2750TIP3    H229886   6.824   1.353   8.470 -1.3120  0.8734 -0.8348
 2751TIP3   OH229887   3.546   3.058   1.500 -0.3283  0.5403 -1.0375
 2751TIP3    H129888   3.640   3.043   1.509 -0.2002  1.1863 -1.2332
 2751TIP3    H229889   3.505   2.982   1.540  0.2563  1.0313  0.5472
 2752TIP3   OH229890   5.563   1.195   1.476 -0.1308 -0.0609  0.4054
 2752TIP3    H129891   5.635   1.143   1.440 -0.7870 -0.3623 -0.5015
 2752TIP3    H229892   5.487   1.136   1.475  0.0365 -0.4853  3.3709
 2753TIP3   OH229893   1.679   2.911   1.357 -0.2774  0.1349  0.5998
 2753TIP3    H129894   1.698   3.002   1.334  0.6725  0.6597  3.0980
 2753TIP3    H229895   1.761   2.864   1.340 -1.1635 -0.6396 -2.0160
 2754TIP3   OH229896   0.981   2.873   1.155  0.0355 -0.2490  0.2487
 2754TIP3    H129897   0.925   2.944   1.186  1.6086  0.3402  1.9307
 2754TIP3    H229898   1.002   2.895   1.065 -0.8400  0.5256  0.2229
 2755TIP3   OH229899   2.654   0.008   8.206  0.1438 -0.0157 -0.4402
 2755TIP3    H129900   2.579   0.050   8.164 -0.7120  0.3138  1.2905
 2755TIP3    H229901   2.730   0.037   8.156 -0.5932  2.1867 -0.3940
 2756TIP3   OH229902   6.497   0.264   6.803 -0.1322 -0.9128 -0.4269
 2756TIP3    H129903   6.433   0.266   6.874 -0.8570  1.4377 -1.0361
 2756TIP3    H229904   6.526   0.173   6.798 -0.1069 -1.1852  2.7817
 2757TIP3   OH229905   5.499   1.311   2.263  0.6690  0.0243  0.2478
 2757TIP3    H129906   5.547   1.379   2.309 -1.0256  0.9820  0.6691
 2757TIP3    H229907   5.409   1.319   2.295  0.2035 -1.6887 -0.5284
 2758TIP3   OH229908   5.544   4.113   1.651  0.0749 -0.3030 -0.4610
 2758TIP3    H129909   5.565   4.029   1.692 -0.7589  0.4644  1.6841
 2758TIP3    H229910   5.595   4.177   1.700 -2.0860  0.8343  0.4619
 2759TIP3   OH229911   4.887   5.014   1.476 -0.1781 -0.1245 -0.5639
 2759TIP3    H129912   4.945   4.954   1.524 -1.2193 -0.5570  0.1813
 2759TIP3    H229913   4.930   5.099   1.483 -0.6283 -0.0339  1.7502
 2760TIP3   OH229914   3.648   1.194   7.730  0.3199 -0.6665  0.1065
 2760TIP3    H129915   3.699   1.238   7.798 -0.1860  0.1086 -0.0119
 2760TIP3    H229916   3.699   1.115   7.710  2.2805  0.7997 -1.0613
 2761TIP3   OH229917   0.376   1.180   0.131  0.2708  0.7341  0.1591
 2761TIP3    H129918   0.448   1.163   0.192 -1.2448 -0.9153  1.6027
 2761TIP3    H229919   0.404   1.138   0.049  1.0290  0.2678  0.6433
 2762TIP3   OH229920   0.405   3.115   7.944  0.3768  0.3540 -0.0865
 2762TIP3    H129921   0.422   3.021   7.935 -1.3581  0.1421 -1.7430
 2762TIP3    H229922   0.474   3.157   7.892 -1.5031 -0.3157 -3.4202
 2763TIP3   OH229923   5.004   5.714   6.411  0.0994 -0.2017 -0.3386
 2763TIP3    H129924   5.027   5.806   6.415 -1.3540  0.1686  0.1821
 2763TIP3    H229925   5.087   5.668   6.399  1.1097  1.0148  1.5647
 2764TIP3   OH229926   6.357   0.392   0.684  0.1566  0.0526  0.7176
 2764TIP3    H129927   6.313   0.315   0.647  0.1608 -0.4557  1.7384
 2764TIP3    H229928   6.443   0.393   0.642  0.3395 -0.7975  1.0450
 2765TIP3   OH229929   3.965   2.798   8.444 -0.1341  0.4362  0.1419
 2765TIP3    H129930   3.886   2.753   8.413 -1.5322  2.0080  1.2727
 2765TIP3    H229931   3.953   2.889   8.417  0.3850  1.0902  1.9633
 2766TIP3   OH229932   2.514   5.568   0.024 -0.6083  0.0032 -0.0202
 2766TIP3    H129933   2.473   5.654   0.022 -0.3757  0.1760  1.6824
 2766TIP3    H229934   2.577   5.572   0.095  0.8111 -0.9743 -1.1635
 2767TIP3   OH229935   0.958   6.692   2.137 -0.1089 -0.0244 -0.0889
 2767TIP3    H129936   1.014   6.625   2.177  0.8637  1.9799  2.0931
 2767TIP3    H229937   0.921   6.648   2.060  2.3772 -2.2878 -0.1487
 2768TIP3   OH229938   6.155   2.110   8.797 -0.0878  0.3668  0.0235
 2768TIP3    H129939   6.201   2.028   8.818  2.0942  1.5345  0.1575
 2768TIP3    H229940   6.156   2.114   8.702 -0.6766 -0.0069 -0.0016
 2769TIP3   OH229941   5.757   6.825   0.153  0.0919  0.3625  0.2531
 2769TIP3    H129942   5.681   6.839   0.209  0.4084 -0.4093  0.8819
 2769TIP3    H229943   5.784   6.913   0.127 -0.0111  0.7299  1.3746
 2770TIP3   OH229944   3.319   5.551   2.238 -0.5496  0.0707  0.3929
 2770TIP3    H129945   3.409   5.521   2.254 -0.2522  1.0324  0.5806
 2770TIP3    H229946   3.286   5.492   2.171  0.1219 -0.4825  0.5324
 2771TIP3   OH229947   3.650   6.635   0.548  0.4798 -0.3137  0.2090
 2771TIP3    H129948   3.646   6.681   0.464 -1.3973  1.0274  0.9541
 2771TIP3    H229949   3.571   6.580   0.549 -1.8174  2.6297  2.5563
 2772TIP3   OH229950   6.257   3.223   7.117  0.1002 -0.8518 -0.6549
 2772TIP3    H129951   6.342   3.181   7.133  0.1179 -0.9236 -0.9266
 2772TIP3    H229952   6.208   3.211   7.198  1.6260  2.3243  0.9448
 2773TIP3   OH229953   6.338   3.595   8.732 -0.1530 -0.2444  0.2340
 2773TIP3    H129954   6.285   3.529   8.686 -1.2489  0.9098 -0.2064
 2773TIP3    H229955   6.421   3.550   8.749  0.4773 -0.6865 -3.1761
 2774TIP3   OH229956   4.358   3.081   1.317 -0.5184 -0.1558 -0.0764
 2774TIP3    H129957   4.326   3.160   1.361 -0.5654  0.0379 -0.4506
 2774TIP3    H229958   4.409   3.036   1.383  0.7748  0.9390 -0.2855
 2775TIP3   OH229959   4.376   6.853   7.901 -0.2189 -0.2354  0.1303
 2775TIP3    H129960   4.286   6.873   7.927 -0.0648 -0.6641  1.0402
 2775TIP3    H229961   4.423   6.845   7.984  0.2735 -1.7807 -0.2712
 2776TIP3   OH229962   6.820   6.274   7.263  0.4839 -0.1279 -0.2927
 2776TIP3    H129963   6.805   6.184   7.292 -1.5499  0.3065  0.1351
 2776TIP3    H229964   6.819   6.269   7.167 -1.0392 -0.3835 -0.2843
 2777TIP3   OH229965   4.033   5.548   0.465 -0.4821  0.0241 -0.5423
 2777TIP3    H129966   4.019   5.552   0.560  2.1942  0.8644 -0.1033
 2777TIP3    H229967   4.043   5.454   0.447  3.1200 -0.0409  0.8436
 2778TIP3   OH229968   5.481   4.524   7.088 -0.6322 -0.7864 -0.0314
 2778TIP3    H129969   5.501   4.616   7.105 -0.5332 -0.9525  0.8169
 2778TIP3    H229970   5.557   4.491   7.041  0.8894 -1.2335  2.5214
 2779TIP3   OH229971   5.914   6.287   7.171 -0.0645 -0.5433 -0.2086
 2779TIP3    H129972   5.975   6.213   7.169  0.8861  0.2371 -1.0694
 2779TIP3    H229973   5.954   6.353   7.114 -1.8910 -0.1356 -1.0918
 2780TIP3   OH229974   5.471   0.839   0.050  0.2671  1.0420 -0.2211
 2780TIP3    H129975   5.453   0.929   0.076  0.3766  1.1498 -0.5092
 2780TIP3    H229976   5.419   0.825  -0.029 -1.0714  0.2957  0.7557
 2781TIP3   OH229977   1.023   3.539   2.015  0.0445  0.4576  0.1445
 2781TIP3    H129978   1.076   3.468   1.979  1.2154  1.0474  0.6359
 2781TIP3    H229979   0.959   3.559   1.947 -0.4251 -1.1532  0.0543
 2782TIP3   OH229980   6.028   1.580   7.639  0.0671 -0.4238 -0.5803
 2782TIP3    H129981   6.000   1.626   7.719 -0.0668 -0.3849 -0.6495
 2782TIP3    H229982   6.036   1.489   7.666 -1.5075 -0.6896 -0.9007
 2783TIP3   OH229983   1.160   6.545   1.951  0.1580 -0.5624 -0.3468
 2783TIP3    H129984   1.171   6.519   2.043 -1.4707  2.3652  0.8059
 2783TIP3    H229985   1.216   6.621   1.941 -1.3857  0.5353 -1.0628
 2784TIP3   OH229986   5.788   3.994   0.905 -0.0954 -0.5087  0.0747
 2784TIP3    H129987   5.872   3.987   0.950 -0.0878  0.8869  0.3463
 2784TIP3    H229988   5.802   3.951   0.821  0.4696 -1.4634  0.6384
 2785TIP3   OH229989   3.183   1.643   7.786  0.4049 -0.2691  0.0228
 2785TIP3    H129990   3.184   1.598   7.871  0.7913  0.0879  0.2105
 2785TIP3    H229991   3.187   1.572   7.722  0.6286 -0.5226  0.3111
 2786TIP3   OH229992   2.495   5.084   1.545 -0.1874  0.1921  0.8901
 2786TIP3    H129993   2.441   5.035   1.483 -0.7323  0.0945  1.4408
 2786TIP3    H229994   2.527   5.159   1.495  2.1466 -1.6148 -0.5417
 2787TIP3   OH229995   1.558   6.094   1.472 -0.7238  0.6869  0.2003
 2787TIP3    H129996   1.561   6.054   1.559  0.4018  0.7263  0.1948
 2787TIP3    H229997   1.590   6.025   1.413  0.5866  1.3454  0.1067
 2788TIP3   OH229998   6.004   0.843   0.136  0.3524 -0.4368 -0.2023
 2788TIP3    H129999   6.070   0.815   0.199 -1.2853  0.2441  1.9042
 2788TIP3    H230000   5.925   0.858   0.188 -1.3036 -0.5353 -2.5189
 2789TIP3   OH230001   0.927   5.746   7.326  0.0509 -0.0713  0.1491
 2789TIP3    H130002   0.966   5.772   7.242 -0.5138 -3.2500 -1.2490
 2789TIP3    H230003   0.980   5.791   7.392  1.7229  1.0620 -1.8309
 2790TIP3   OH230004   4.956   6.572   8.702  0.2949  0.3818  0.4607
 2790TIP3    H130005   4.920   6.571   8.790 -3.1472 -2.2230 -0.7209
 2790TIP3    H230006   5.027   6.508   8.705  0.1931  0.2964  1.3477
 2791TIP3   OH230007   5.367   4.985   8.236 -0.7697 -0.1287 -0.1484
 2791TIP3    H130008   5.282   4.967   8.276 -1.0499  1.1213 -0.1489
 2791TIP3    H230009   5.348   5.048   8.166  0.2948  1.0141  0.5613
 2792TIP3   OH230010   5.739   3.831   2.245  0.0423  0.0088  0.5223
 2792TIP3    H130011   5.764   3.751   2.199  0.0364  0.8291 -0.9872
 2792TIP3    H230012   5.768   3.901   2.187 -1.5715  1.0692  0.9370
 2793TIP3   OH230013   5.156   3.811   0.556 -0.3022 -0.1306 -0.3807
 2793TIP3    H130014   5.206   3.890   0.537 -2.1583  0.7452 -1.8708
 2793TIP3    H230015   5.185   3.748   0.490  0.8357 -0.5978  0.5203
 2794TIP3   OH230016   1.359   6.853   0.160 -0.1653 -0.0382 -0.3217
 2794TIP3    H130017   1.364   6.946   0.181 -1.2924  0.6303 -2.7078
 2794TIP3    H230018   1.450   6.821   0.169  0.3358  1.4050 -0.0493
 2795TIP3   OH230019   6.098   6.779   1.530  0.1920  0.0254 -0.0929
 2795TIP3    H130020   6.030   6.842   1.506  0.0672  0.7954  2.0432
 2795TIP3    H230021   6.051   6.710   1.576  0.8045  0.5262  1.3335
 2796TIP3   OH230022   5.928   3.189   8.380  0.4425  0.0280  0.5996
 2796TIP3    H130023   5.894   3.201   8.291 -3.3364 -0.0522  1.8392
 2796TIP3    H230024   6.006   3.243   8.384 -0.9476  2.4748 -1.9354
 2797TIP3   OH230025   2.307   3.282   8.710  0.2639 -0.4032 -0.7714
 2797TIP3    H130026   2.317   3.291   8.805  2.6867 -0.6005 -0.9303
 2797TIP3    H230027   2.359   3.204   8.689  0.1850 -0.0582 -2.3140
 2798TIP3   OH230028   5.469   2.586   0.106  0.3697 -0.4972 -0.2226
 2798TIP3    H130029   5.536   2.520   0.123  0.9488 -0.0824 -0.8589
 2798TIP3    H230030   5.425   2.597   0.190  2.4734  0.7557  0.7924
 2799TIP3   OH230031   6.611   4.928   1.438  0.2521  0.2809  0.3403
 2799TIP3    H130032   6.690   4.962   1.480  0.5376  0.1196 -0.0578
 2799TIP3    H230033   6.549   4.914   1.510  0.5328  0.5484  0.6367
 2800TIP3   OH230034   0.123   1.954   0.563 -0.3408  0.2591  0.1160
 2800TIP3    H130035   0.133   1.862   0.585  0.4606  0.5707  1.1528
 2800TIP3    H230036   0.211   1.991   0.575 -0.8205  1.3121  0.5344
 2801TIP3   OH230037   1.070   3.702   0.315 -0.7709  0.0303 -0.8452
 2801TIP3    H130038   1.038   3.792   0.313 -1.1288 -0.1105 -2.6983
 2801TIP3    H230039   1.153   3.708   0.363 -0.5664  1.4208 -1.3262
 2802TIP3   OH230040   5.297   5.194   8.017  0.2747  0.1201 -0.2728
 2802TIP3    H130041   5.383   5.202   7.975  0.5331 -0.8533  0.0456
 2802TIP3    H230042   5.273   5.284   8.039  0.9631  0.4569 -0.8549
 2803TIP3   OH230043   1.809   6.240   8.295 -0.1222  0.3255  0.5652
 2803TIP3    H130044   1.839   6.168   8.351  1.0979 -2.1934 -2.9647
 2803TIP3    H230045   1.877   6.307   8.304  0.0864 -0.0327  1.9484
 2804TIP3   OH230046   0.482   3.537   2.102 -0.1831  0.0255 -0.9185
 2804TIP3    H130047   0.556   3.550   2.161  0.4904 -2.1284 -1.1768
 2804TIP3    H230048   0.505   3.457   2.053 -1.0075  1.3375 -3.6397
 2805TIP3   OH230049   4.372   4.287   8.094 -0.7213  0.6502 -0.3070
 2805TIP3    H130050   4.463   4.307   8.068 -0.5212  1.1138  0.6792
 2805TIP3    H230051   4.368   4.315   8.186 -0.5565 -3.5052  1.1460
 2806TIP3   OH230052   1.611   3.405   8.457  0.2783 -0.3117  0.2680
 2806TIP3    H130053   1.564   3.447   8.529  0.0991 -0.5739  0.3086
 2806TIP3    H230054   1.660   3.476   8.415 -0.5782  0.0623 -0.1091
 2807TIP3   OH230055   2.390   6.232   0.189 -0.3750 -0.0630  0.4408
 2807TIP3    H130056   2.396   6.303   0.125  0.5245  0.5761  1.2113
 2807TIP3    H230057   2.334   6.266   0.258 -0.7121 -0.4660  0.3734
 2808TIP3   OH230058   0.806   0.522   6.679 -0.4859  0.3450 -0.1759
 2808TIP3    H130059   0.883   0.578   6.695  1.5394 -2.2323 -0.2329
 2808TIP3    H230060   0.802   0.515   6.584 -0.2629 -0.1782 -0.1497
 2809TIP3   OH230061   5.538   0.015   6.753 -0.1117  0.6782 -0.3063
 2809TIP3    H130062   5.531   0.056   6.667 -1.2004  0.5741 -0.2822
 2809TIP3    H230063   5.525   0.087   6.815 -0.9035  0.4944 -0.2520
 2810TIP3   OH230064   2.582   4.647   7.559 -0.1025 -0.0158 -0.2107
 2810TIP3    H130065   2.589   4.616   7.649 -2.2510  0.2371  0.0821
 2810TIP3    H230066   2.651   4.714   7.551  0.2293 -0.1688  1.1640
 2811TIP3   OH230067   3.047   6.427   7.205 -0.3907  0.0023 -0.4607
 2811TIP3    H130068   2.960   6.389   7.213  0.3828 -1.8634 -0.1807
 2811TIP3    H230069   3.086   6.415   7.292  0.9118 -1.3314 -1.1714
 2812TIP3   OH230070   5.484   2.690   0.528 -0.1468 -0.2791 -0.1808
 2812TIP3    H130071   5.486   2.606   0.573 -0.4465  0.7647  1.9273
 2812TIP3    H230072   5.570   2.699   0.488 -0.0004 -1.4169 -0.1395
 2813TIP3   OH230073   1.738   3.120   6.712 -0.4218  0.2081  0.1874
 2813TIP3    H130074   1.691   3.142   6.632 -0.6035 -1.6569 -0.2676
 2813TIP3    H230075   1.672   3.079   6.768  0.6016 -2.8369 -0.6226
 2814TIP3   OH230076   4.411   4.826   8.235  0.1985  0.3915 -0.2650
 2814TIP3    H130077   4.458   4.774   8.170 -2.1862 -0.3666 -1.4624
 2814TIP3    H230078   4.327   4.782   8.246 -0.3262  1.7437  1.7268
 2815TIP3   OH230079   5.749   4.432   0.403 -0.4057  0.1926 -1.1473
 2815TIP3    H130080   5.657   4.406   0.413 -0.1128 -0.8838 -1.2353
 2815TIP3    H230081   5.772   4.408   0.314  0.5149 -1.3580 -0.5388
 2816TIP3   OH230082   1.778   5.000   8.096  0.1088 -0.0407 -0.2386
 2816TIP3    H130083   1.694   4.964   8.068 -0.8163 -0.2452  2.4920
 2816TIP3    H230084   1.766   5.019   8.189  2.6115  1.3933 -0.1158
 2817TIP3   OH230085   3.541   5.494   1.761  0.5630  0.9729  0.5374
 2817TIP3    H130086   3.556   5.400   1.769  0.4320  0.7878 -1.0204
 2817TIP3    H230087   3.448   5.502   1.737  0.6431  1.4691  0.3732
 2818TIP3   OH230088   6.240   4.041   0.457  0.3129  0.1951 -0.2034
 2818TIP3    H130089   6.250   3.989   0.536  0.0786  0.9772  0.3500
 2818TIP3    H230090   6.329   4.066   0.432  0.5367 -1.3501 -1.0991
 2819TIP3   OH230091   0.123   0.280   7.269  0.2220 -0.2616 -0.0548
 2819TIP3    H130092   0.079   0.332   7.201  0.7635 -0.4705 -0.5729
 2819TIP3    H230093   0.156   0.203   7.223  1.6587  0.1775  0.1923
 2820TIP3   OH230094   1.150   6.628   8.596  0.5177  0.2596  0.2077
 2820TIP3    H130095   1.089   6.637   8.522  0.3429 -1.9258  0.0213
 2820TIP3    H230096   1.149   6.713   8.639 -1.2791  0.8229 -0.8660
 2821TIP3   OH230097   0.058   0.264   1.777 -0.4680 -0.1899 -0.2903
 2821TIP3    H130098   0.078   0.277   1.684  2.4991  0.5177  0.3420
 2821TIP3    H230099   0.027   0.349   1.807  0.2916  0.0961 -0.2869
 2822TIP3   OH230100   5.646   5.299   0.845 -0.5983 -0.4936 -0.0520
 2822TIP3    H130101   5.608   5.354   0.913 -1.9547 -0.6557 -0.6542
 2822TIP3    H230102   5.682   5.224   0.892 -0.6462 -0.1299  0.5734
 2823TIP3   OH230103   3.932   4.021   0.988  0.0021 -0.2413  0.3399
 2823TIP3    H130104   4.003   3.971   1.028 -1.0988 -1.3835  0.9667
 2823TIP3    H230105   3.864   3.956   0.970 -1.2416  0.9337  0.5735
 2824TIP3   OH230106   2.694   4.451   8.687  0.2678  0.2113  0.3286
 2824TIP3    H130107   2.694   4.425   8.779  0.9897  2.2980  0.9784
 2824TIP3    H230108   2.602   4.471   8.668 -0.4707 -3.2840 -0.4396
 2825TIP3   OH230109   4.100   3.684   8.081 -0.3939  0.1958  0.2464
 2825TIP3    H130110   4.193   3.680   8.057 -0.1043 -3.0591  1.4051
 2825TIP3    H230111   4.097   3.740   8.157  0.5214  0.8430 -0.1780
 2826TIP3   OH230112   6.087   1.351   7.807 -0.5245 -0.0452 -0.2687
 2826TIP3    H130113   5.999   1.323   7.834 -0.1421  0.2306  1.3279
 2826TIP3    H230114   6.145   1.285   7.845  0.1034  0.8562  0.3626
 2827TIP3   OH230115   4.201   2.019   0.082 -0.1534 -0.4896 -0.1545
 2827TIP3    H130116   4.280   2.026   0.028 -1.8080  0.3914 -2.6705
 2827TIP3    H230117   4.197   1.927   0.107  0.4970 -1.0476 -1.9287
 2828TIP3   OH230118   1.332   2.529   7.502  0.6451  0.2056  0.1303
 2828TIP3    H130119   1.385   2.492   7.574 -0.6100  0.3006  1.1365
 2828TIP3    H230120   1.274   2.592   7.545 -0.7528 -0.3830 -0.8454
 2829TIP3   OH230121   6.850   6.069   1.824  0.1534 -0.1982  0.0707
 2829TIP3    H130122   6.774   6.106   1.869  0.8827 -0.5696  1.6993
 2829TIP3    H230123   6.837   6.092   1.732 -1.5100  0.4401  0.4238
 2830TIP3   OH230124   5.020   6.331   1.371  0.3494 -0.4062 -0.4040
 2830TIP3    H130125   4.937   6.334   1.419  0.4627  1.9023 -0.2843
 2830TIP3    H230126   5.086   6.358   1.434  0.9534 -0.4915 -0.9895
 2831TIP3   OH230127   1.530   2.299   7.088 -0.2574 -0.2006  0.5254
 2831TIP3    H130128   1.484   2.217   7.105 -1.5673  0.6574  1.2948
 2831TIP3    H230129   1.529   2.346   7.172 -1.2198  1.4021 -0.3199
 2832TIP3   OH230130   2.779   5.266   7.646  0.2176  0.3230  0.4430
 2832TIP3    H130131   2.857   5.317   7.666  2.3293 -2.3947 -0.2477
 2832TIP3    H230132   2.743   5.241   7.731  1.9290 -0.8641  0.8868
 2833TIP3   OH230133   4.893   0.784   1.622  0.3652  0.4866  0.0546
 2833TIP3    H130134   4.816   0.783   1.565 -0.1137  1.2251  0.6581
 2833TIP3    H230135   4.900   0.694   1.654  0.3564  0.1775 -0.7838
 2834TIP3   OH230136   5.738   6.228   6.969  0.1727  0.3321 -0.5679
 2834TIP3    H130137   5.736   6.132   6.964  0.4295  0.3487 -1.0965
 2834TIP3    H230138   5.802   6.246   7.038  0.1446  0.1198 -0.4846
 2835TIP3   OH230139   6.690   5.878   0.238  0.9719 -0.2707  0.6443
 2835TIP3    H130140   6.668   5.804   0.294 -0.4088  0.2608  0.8364
 2835TIP3    H230141   6.730   5.839   0.161 -2.8069 -1.6115 -0.8462
 2836TIP3   OH230142   5.621   1.711   6.730  0.5215  0.0603  0.5406
 2836TIP3    H130143   5.671   1.704   6.649 -0.7312  2.6059 -0.5675
 2836TIP3    H230144   5.529   1.709   6.701  0.0435  2.4656  1.6503
 2837TIP3   OH230145   0.963   3.814   7.399 -0.1317 -0.4641 -0.4993
 2837TIP3    H130146   1.030   3.881   7.386 -0.3009 -0.4197 -1.2249
 2837TIP3    H230147   0.951   3.808   7.493  0.5515 -0.1317 -0.3904
 2838TIP3   OH230148   2.870   2.364   7.544 -0.1144 -0.1866 -0.1992
 2838TIP3    H130149   2.894   2.286   7.593  1.4132 -1.3068 -2.5578
 2838TIP3    H230150   2.951   2.414   7.537 -0.1218 -0.3453 -1.9593
 2839TIP3   OH230151   4.618   1.414   7.453 -0.1467  0.5900  0.4239
 2839TIP3    H130152   4.706   1.380   7.467  0.5155  2.9082  2.7240
 2839TIP3    H230153   4.578   1.414   7.540 -2.3110  0.0122 -0.4880
 2840TIP3   OH230154   0.839   2.357   0.738 -0.3342 -0.1704 -0.9026
 2840TIP3    H130155   0.904   2.335   0.671  0.9367 -0.3152  0.3123
 2840TIP3    H230156   0.864   2.444   0.769  1.4887 -1.5435  1.9392
 2841TIP3   OH230157   2.850   3.650   7.395  0.1544 -0.3524 -0.0443
 2841TIP3    H130158   2.914   3.587   7.362  0.5769  0.3346 -0.5693
 2841TIP3    H230159   2.899   3.703   7.459 -0.0229 -0.1450 -0.0795
 2842TIP3   OH230160   1.850   3.966   2.156 -0.0888 -0.6104 -0.4489
 2842TIP3    H130161   1.935   3.944   2.118  0.6947  1.4205  0.0543
 2842TIP3    H230162   1.822   4.045   2.110 -1.8235 -1.3353 -0.7352
 2843TIP3   OH230163   6.445   4.938   1.669  0.7098 -0.3932 -0.0828
 2843TIP3    H130164   6.488   4.970   1.748 -0.0547  1.0161 -0.2079
 2843TIP3    H230165   6.351   4.939   1.690  0.4859  0.1592 -1.0488
 2844TIP3   OH230166   1.559   2.672   6.868  0.2403 -0.0952  0.6242
 2844TIP3    H130167   1.604   2.656   6.951  0.6230 -0.4951  0.3452
 2844TIP3    H230168   1.516   2.590   6.848  2.2198 -0.8672 -0.8205
 2845TIP3   OH230169   6.238   6.346   7.330  0.3887 -0.0754  0.2885
 2845TIP3    H130170   6.195   6.422   7.289  2.4073 -0.1378 -2.1654
 2845TIP3    H230171   6.226   6.276   7.267  0.5111 -1.2292  1.5146
 2846TIP3   OH230172   4.213   3.249   7.299 -0.2919  0.7624 -0.0223
 2846TIP3    H130173   4.264   3.325   7.324 -0.9743  1.1145  0.3301
 2846TIP3    H230174   4.147   3.240   7.368  0.1500 -0.5034  0.2631
 2847TIP3   OH230175   6.624   3.188   2.070 -0.4919  0.0903 -0.2885
 2847TIP3    H130176   6.698   3.173   2.129  1.3980  3.2033 -1.6363
 2847TIP3    H230177   6.552   3.211   2.128  0.2556 -0.5431  0.9496
 2848TIP3   OH230178   5.337   0.601   7.577 -0.4090  0.1811 -0.3036
 2848TIP3    H130179   5.392   0.625   7.650 -0.4243 -0.8328  0.0559
 2848TIP3    H230180   5.395   0.602   7.501 -0.1531  0.1977 -0.1060
 2849TIP3   OH230181   2.116   6.272   8.151 -0.3710  0.2120 -0.1085
 2849TIP3    H130182   2.130   6.246   8.242 -1.4812 -1.8096 -0.4441
 2849TIP3    H230183   2.191   6.327   8.129 -0.1976  0.9546  2.0689
 2850TIP3   OH230184   0.882   6.565   0.731  0.2300 -0.5436 -0.0408
 2850TIP3    H130185   0.824   6.509   0.783  0.4619  0.9950  2.0019
 2850TIP3    H230186   0.865   6.653   0.763  0.3032  0.5522 -2.7412
 2851TIP3   OH230187   3.881   5.339   0.788  0.6002  0.1943 -0.3304
 2851TIP3    H130188   3.845   5.266   0.736  0.6102  0.8371 -1.2668
 2851TIP3    H230189   3.823   5.346   0.863 -0.9345  0.8386 -1.5253
 2852TIP3   OH230190   1.842   5.094   1.610 -0.6438  0.4635  0.8397
 2852TIP3    H130191   1.892   5.120   1.532 -0.1966 -2.1489  0.1409
 2852TIP3    H230192   1.762   5.145   1.606 -0.5194  0.5685 -1.2215
 2853TIP3   OH230193   0.558   5.904   2.469 -0.6858 -0.1916 -0.7331
 2853TIP3    H130194   0.472   5.899   2.511 -0.6685  1.1526 -0.4983
 2853TIP3    H230195   0.620   5.877   2.537 -0.7699  0.7202 -0.2796
 2854TIP3   OH230196   5.577   5.378   0.595 -0.2100 -0.5712  0.5640
 2854TIP3    H130197   5.483   5.361   0.606 -0.3330  0.1381  0.6010
 2854TIP3    H230198   5.615   5.357   0.680 -0.1557 -2.0044  0.2132
 2855TIP3   OH230199   4.359   0.208   7.138  0.6773 -0.3406 -0.3287
 2855TIP3    H130200   4.387   0.296   7.113  1.0890 -0.3191  0.1973
 2855TIP3    H230201   4.267   0.203   7.111  0.5006  0.4353  0.0949
 2856TIP3   OH230202   6.388   0.783   8.371  0.0380 -0.2032 -0.5820
 2856TIP3    H130203   6.362   0.718   8.307 -2.6066 -0.1297  0.2913
 2856TIP3    H230204   6.320   0.779   8.438  1.2414  1.6075  0.8521
 2857TIP3   OH230205   1.260   1.913   0.030 -0.0415  0.2848 -0.5248
 2857TIP3    H130206   1.287   2.003   0.050  0.5274 -0.3649  2.0716
 2857TIP3    H230207   1.186   1.897   0.089  0.9617 -1.4581  0.3517
 2858TIP3   OH230208   4.267   4.725   7.640 -0.5374 -0.4853 -0.7307
 2858TIP3    H130209   4.182   4.761   7.665  0.7530  2.9236 -0.7150
 2858TIP3    H230210   4.283   4.759   7.552  0.8465 -0.9569 -0.6894
 2859TIP3   OH230211   6.826   5.427   7.661  0.2378 -0.3983  0.6061
 2859TIP3    H130212   6.891   5.486   7.624 -1.1542  0.8457 -0.0040
 2859TIP3    H230213   6.743   5.474   7.651 -0.8357 -2.1406  0.8370
 2860TIP3   OH230214   6.138   3.506   6.418 -0.0033  1.0066  0.2600
 2860TIP3    H130215   6.123   3.480   6.509  1.6141  0.9995  0.5493
 2860TIP3    H230216   6.231   3.527   6.414 -0.1400  1.4269 -1.2997
 2861TIP3   OH230217   0.933   5.654   1.505  0.1825  0.6633  0.4104
 2861TIP3    H130218   0.857   5.612   1.466  0.4528  0.6830 -0.1503
 2861TIP3    H230219   0.958   5.597   1.577 -1.8103  1.8760  2.1533
 2862TIP3   OH230220   6.208   5.866   8.515 -0.3543 -0.0694 -0.1898
 2862TIP3    H130221   6.157   5.946   8.500  3.3542  2.2880 -1.5152
 2862TIP3    H230222   6.191   5.812   8.438 -1.4991  0.2140 -0.1592
 2863TIP3   OH230223   6.852   5.198   8.208  0.6554 -0.5784  0.1546
 2863TIP3    H130224   6.883   5.207   8.117  0.3956  0.1305  0.1351
 2863TIP3    H230225   6.831   5.105   8.216  0.0817 -0.5422 -0.7111
 2864TIP3   OH230226   1.392   1.741   7.611 -0.5164  0.1649 -0.5691
 2864TIP3    H130227   1.301   1.719   7.634  0.2091 -1.1536  1.3017
 2864TIP3    H230228   1.415   1.812   7.671  0.0560 -0.3251 -0.2089
 2865TIP3   OH230229   6.166   0.846   1.626 -0.1666 -0.7973  0.4753
 2865TIP3    H130230   6.113   0.808   1.696 -0.3950 -0.7082  0.3529
 2865TIP3    H230231   6.146   0.792   1.549  1.8908 -2.4323  0.9924
 2866TIP3   OH230232   5.810   0.880   1.202 -0.0582  0.5301 -0.5063
 2866TIP3    H130233   5.841   0.893   1.113 -0.9269 -0.1976 -0.9320
 2866TIP3    H230234   5.884   0.907   1.257  0.4161  1.1648 -1.4330
 2867TIP3   OH230235   2.090   3.114   6.982 -0.6308  0.1185 -0.4655
 2867TIP3    H130236   2.183   3.130   6.967 -0.1553 -2.0449 -0.0932
 2867TIP3    H230237   2.062   3.187   7.039  1.1778  0.0403  0.6026
 2868TIP3   OH230238   4.198   0.016   1.154  0.0167  0.6474  0.8774
 2868TIP3    H130239   4.252   0.007   1.075 -0.4721  1.6878  0.4160
 2868TIP3    H230240   4.240   0.086   1.204  0.4512 -0.1558  1.6668
 2869TIP3   OH230241   5.872   0.988   2.061  0.5742 -0.0703  0.1389
 2869TIP3    H130242   5.924   0.982   2.141 -0.0578 -0.0665  0.5581
 2869TIP3    H230243   5.790   1.029   2.089  0.3112 -0.1582 -0.4904
 2870TIP3   OH230244   3.257   6.475   0.252  0.1373  0.1969 -0.1071
 2870TIP3    H130245   3.219   6.554   0.213  0.8787  1.3494  1.3796
 2870TIP3    H230246   3.351   6.488   0.245  0.2691 -0.2117  0.7891
 2871TIP3   OH230247   5.954   2.274   0.123  0.2778  0.2814 -0.0012
 2871TIP3    H130248   6.028   2.249   0.067 -0.2209 -0.5896 -0.2966
 2871TIP3    H230249   5.985   2.350   0.171  0.9726  0.6174 -0.9490
 2872TIP3   OH230250   4.955   1.247   8.044 -0.3658  0.0866  0.3051
 2872TIP3    H130251   5.046   1.263   8.018 -0.6183 -0.5452 -1.0372
 2872TIP3    H230252   4.953   1.268   8.138  1.7257 -2.1131  0.9522
 2873TIP3   OH230253   1.318   0.027   7.245  0.4124  0.4416 -0.1715
 2873TIP3    H130254   1.316  -0.064   7.275 -0.3927  0.6217  0.3479
 2873TIP3    H230255   1.408   0.040   7.215  0.4920 -0.5716 -0.4055
 2874TIP3   OH230256   2.056   2.529   7.355  0.4940 -0.1350  0.1343
 2874TIP3    H130257   2.099   2.584   7.421  1.6789 -2.1564  1.1219
 2874TIP3    H230258   2.122   2.520   7.285  0.3941 -0.4680  0.0815
 2875TIP3   OH230259   5.618   3.835   0.464 -0.1238 -0.6668  0.6151
 2875TIP3    H130260   5.680   3.901   0.435 -1.4386 -0.1324 -1.1126
 2875TIP3    H230261   5.665   3.752   0.454  0.5646 -0.2225  0.0939
 2876TIP3   OH230262   1.490   4.012   1.998  0.4788 -0.3848 -0.0362
 2876TIP3    H130263   1.478   3.941   2.061  0.4481  0.4595  0.9283
 2876TIP3    H230264   1.582   4.037   2.007  1.3540 -2.2885 -2.5519
 2877TIP3   OH230265   0.995   2.613   1.471 -0.4614 -0.0225 -0.3431
 2877TIP3    H130266   0.969   2.524   1.448  0.3243 -0.3979  0.1633
 2877TIP3    H230267   1.064   2.601   1.537 -1.5628  0.9757  1.0372
 2878TIP3   OH230268   1.391   3.785   6.680  0.1853  0.3190  0.1208
 2878TIP3    H130269   1.305   3.774   6.639 -1.0106  0.8687  2.3003
 2878TIP3    H230270   1.454   3.773   6.609 -1.6829 -0.2483 -1.5149
 2879TIP3   OH230271   3.765   5.958   6.455  0.2895  0.1281 -0.5082
 2879TIP3    H130272   3.785   5.899   6.528  0.2791  1.2250  0.4044
 2879TIP3    H230273   3.820   5.925   6.383 -1.6989 -2.6499 -0.9215
 2880TIP3   OH230274   5.836   4.897   1.555  0.8209  0.3655 -0.2517
 2880TIP3    H130275   5.857   4.875   1.646  1.6642 -0.2714 -0.5762
 2880TIP3    H230276   5.897   4.967   1.532  0.0305  1.1256 -0.0776
 2881TIP3   OH230277   0.727   0.220   8.731 -0.0809 -0.0818 -0.2205
 2881TIP3    H130278   0.729   0.215   8.635  0.1257  0.3987 -0.2436
 2881TIP3    H230279   0.661   0.155   8.757  0.6198 -0.9774 -0.6267
 2882TIP3   OH230280   5.303   3.579   2.063  0.1922 -0.0543 -0.2203
 2882TIP3    H130281   5.397   3.588   2.049  0.0324 -0.0542 -1.3711
 2882TIP3    H230282   5.276   3.664   2.098  0.8406 -0.5357  1.5681
 2883TIP3   OH230283   2.925   4.414   7.248  0.9364 -0.0199 -0.1366
 2883TIP3    H130284   2.876   4.337   7.278  2.1584 -0.3093  1.2497
 2883TIP3    H230285   2.929   4.471   7.326  0.4291  1.2736 -1.0109
 2884TIP3   OH230286   0.704   1.281   0.254 -0.1793 -0.5914  0.1510
 2884TIP3    H130287   0.698   1.186   0.242 -0.1553 -0.6489  0.5736
 2884TIP3    H230288   0.659   1.297   0.338  0.4337 -0.3140  0.4291
 2885TIP3   OH230289   4.417   0.881   7.105 -0.0455 -0.1704 -0.9051
 2885TIP3    H130290   4.445   0.939   7.176 -0.1804  1.1829 -1.8994
 2885TIP3    H230291   4.416   0.938   7.027 -1.0996 -1.2934 -1.7556
 2886TIP3   OH230292   0.308   3.370   2.236  0.2069  0.7875  0.1688
 2886TIP3    H130293   0.380   3.425   2.206  0.3714  1.3419  1.5330
 2886TIP3    H230294   0.349   3.287   2.260  0.1929  0.6431 -0.2893
 2887TIP3   OH230295   3.294   6.138   7.490 -0.0044 -0.0925  0.0434
 2887TIP3    H130296   3.242   6.107   7.565 -1.3596 -0.2333 -0.9306
 2887TIP3    H230297   3.302   6.061   7.433  1.0574  0.0016  0.0377
 2888TIP3   OH230298   6.464   1.398   0.927 -0.0385  0.2911  0.7296
 2888TIP3    H130299   6.558   1.413   0.928 -0.0707  0.5215  0.5058
 2888TIP3    H230300   6.453   1.308   0.896  0.1309  0.0492  1.3608
 2889TIP3   OH230301   4.907   1.344   0.005  0.3306  0.0919 -0.0020
 2889TIP3    H130302   4.871   1.273   0.058  1.2590 -0.1510  0.3373
 2889TIP3    H230303   4.963   1.393   0.066 -1.9816  2.4897  0.3665
 2890TIP3   OH230304   1.211   3.696   8.149 -0.2012 -0.0358  0.2369
 2890TIP3    H130305   1.225   3.619   8.204 -0.3473  0.1165  0.4879
 2890TIP3    H230306   1.116   3.704   8.142 -0.2504 -1.4732 -2.0344
 2891TIP3   OH230307   6.806   6.440   1.776 -0.0089 -0.2537 -0.0532
 2891TIP3    H130308   6.844   6.495   1.707 -1.9586  1.8159  0.4176
 2891TIP3    H230309   6.779   6.501   1.844 -0.6709 -1.9940  1.3304
 2892TIP3   OH230310   6.467   5.085   8.451 -0.1932 -0.2292  0.6274
 2892TIP3    H130311   6.504   5.052   8.369  0.8960  0.5094  0.8088
 2892TIP3    H230312   6.391   5.136   8.424 -0.4505 -0.8362  0.1686
 2893TIP3   OH230313   4.099   6.612   7.800 -0.4798 -0.3344  0.1494
 2893TIP3    H130314   4.128   6.696   7.834 -0.1849 -0.4211  0.1173
 2893TIP3    H230315   4.095   6.555   7.877  2.4272 -1.1851 -0.1883
 2894TIP3   OH230316   5.531   5.608   8.118 -0.3299  0.1981  0.2104
 2894TIP3    H130317   5.572   5.531   8.158 -0.4186 -1.0586 -1.9490
 2894TIP3    H230318   5.596   5.678   8.129  1.0948 -0.9626 -0.4332
 2895TIP3   OH230319   2.295   5.726   1.762  0.4001  0.0308  0.0370
 2895TIP3    H130320   2.259   5.800   1.812 -1.3835 -0.4622 -0.4794
 2895TIP3    H230321   2.373   5.701   1.811 -0.1507  0.8928  1.4211
 2896TIP3   OH230322   0.488   5.844   2.069  0.3484 -0.4112 -1.4088
 2896TIP3    H130323   0.500   5.916   2.131  1.1738 -1.0118 -0.8573
 2896TIP3    H230324   0.563   5.786   2.084 -0.0698 -1.1668 -2.1516
 2897TIP3   OH230325   4.991   1.163   6.760  0.1230 -0.1252  0.8011
 2897TIP3    H130326   5.032   1.183   6.845  0.8918 -2.3130  1.0173
 2897TIP3    H230327   5.064   1.160   6.699 -0.0774 -1.1560  0.5989
 2898TIP3   OH230328   6.235   1.983   1.985  0.6923 -0.0277 -0.1322
 2898TIP3    H130329   6.180   2.056   2.013  1.5993 -0.0191  1.7790
 2898TIP3    H230330   6.179   1.906   1.992 -0.6621  0.4967 -3.3266
 2899TIP3   OH230331   2.084   0.999   1.863  0.1181  0.5819 -0.1917
 2899TIP3    H130332   2.004   1.050   1.869  0.8720  2.1627 -2.3924
 2899TIP3    H230333   2.056   0.913   1.831 -0.9781 -0.0117  2.1187
 2900TIP3   OH230334   6.040   3.180   0.549  0.6538 -0.1422  0.1369
 2900TIP3    H130335   5.974   3.114   0.526  0.3561  0.2341 -0.1069
 2900TIP3    H230336   6.116   3.158   0.494  0.8900 -0.8318  0.7299
 2901TIP3   OH230337   1.469   3.101   0.797  0.3287  0.5270 -0.3784
 2901TIP3    H130338   1.529   3.040   0.754  0.8732  1.4606 -0.9711
 2901TIP3    H230339   1.409   3.045   0.847  0.4799 -0.5128 -1.3372
 2902TIP3   OH230340   6.506   1.672   6.874  0.3698 -0.4786  0.1255
 2902TIP3    H130341   6.562   1.602   6.840 -0.1964 -0.6541 -0.4880
 2902TIP3    H230342   6.425   1.663   6.824  1.0972  2.1287 -1.7478
 2903TIP3   OH230343   1.655   6.666   7.265 -0.8663  0.0203 -0.4360
 2903TIP3    H130344   1.729   6.713   7.304 -0.6919  0.5818 -1.4204
 2903TIP3    H230345   1.692   6.582   7.238 -0.5476  0.3445 -1.0328
 2904TIP3   OH230346   1.152   3.683   2.353 -0.1933  0.0114  0.4260
 2904TIP3    H130347   1.142   3.597   2.394  0.6146 -0.1676  0.2686
 2904TIP3    H230348   1.129   3.745   2.422  1.6415 -0.2689  1.3567
 2905TIP3   OH230349   3.270   1.086   1.941  0.0784  0.0660  0.0449
 2905TIP3    H130350   3.319   1.006   1.921  0.5767  0.3222  0.2135
 2905TIP3    H230351   3.322   1.128   2.010 -0.5381  0.1993  0.4305
 2906TIP3   OH230352   4.241   6.374   7.515  0.3186  0.1358 -0.0804
 2906TIP3    H130353   4.177   6.430   7.470  0.7587  0.3272 -0.4818
 2906TIP3    H230354   4.289   6.434   7.571 -0.3199 -0.1261  0.7657
 2907TIP3   OH230355   5.778   2.082   1.305  0.2701 -0.6771  0.2419
 2907TIP3    H130356   5.764   1.988   1.316  1.4503 -0.9084 -0.1323
 2907TIP3    H230357   5.827   2.090   1.223 -0.7790  0.3577 -0.3004
 2908TIP3   OH230358   6.854   6.313   8.421  0.2669 -0.0868  0.0299
 2908TIP3    H130359   6.840   6.330   8.328 -0.9923 -1.1415  0.0038
 2908TIP3    H230360   6.946   6.287   8.428  0.4244  0.2190 -0.8783
 2909TIP3   OH230361   5.395   2.649   1.877  0.5840  0.3622 -0.6845
 2909TIP3    H130362   5.425   2.726   1.926  2.3675 -0.1076 -0.9829
 2909TIP3    H230363   5.304   2.670   1.855 -0.1187  0.8926  2.1910
 2910TIP3   OH230364   0.485   0.663   7.099  0.2321  0.0563  0.1630
 2910TIP3    H130365   0.444   0.745   7.128  0.2596  0.0479  0.2272
 2910TIP3    H230366   0.411   0.602   7.090  0.3742 -0.4482  1.9212
 2911TIP3   OH230367   2.171   0.500   1.866  0.4411  0.1912  0.4069
 2911TIP3    H130368   2.167   0.572   1.803  0.4301  0.8160  1.1102
 2911TIP3    H230369   2.081   0.488   1.894  0.6287  0.8708  1.3495
 2912TIP3   OH230370   0.996   4.771   1.345 -0.3973  0.2613 -0.0976
 2912TIP3    H130371   0.945   4.748   1.267 -0.9644  1.4258 -0.0780
 2912TIP3    H230372   1.083   4.791   1.310 -0.3481 -0.2793 -0.2993
 2913TIP3   OH230373   4.617   4.783   1.381 -0.2075 -0.2101  0.4552
 2913TIP3    H130374   4.702   4.820   1.406 -0.7524  0.7595  0.9492
 2913TIP3    H230375   4.557   4.857   1.386 -1.1513 -0.9624  0.4661
 2914TIP3   OH230376   1.277   1.046   6.524 -0.4775 -0.1478 -0.3452
 2914TIP3    H130377   1.315   1.132   6.509  0.4979 -0.8089 -1.8442
 2914TIP3    H230378   1.301   0.995   6.447 -1.8580 -1.4903  0.0574
 2915TIP3   OH230379   0.974   1.935   8.566 -0.5266  0.4846  0.2030
 2915TIP3    H130380   0.894   1.893   8.599 -0.7676  0.6292 -0.1829
 2915TIP3    H230381   1.045   1.878   8.595 -0.8529 -0.2074 -0.3163
 2916TIP3   OH230382   2.893   0.747   8.542 -0.6415 -0.0812  0.8219
 2916TIP3    H130383   2.838   0.693   8.598 -0.7067 -0.5425  0.3245
 2916TIP3    H230384   2.850   0.743   8.456 -0.0454 -0.1267  0.5241
 2917TIP3   OH230385   6.231   3.553   0.567  0.1145  0.5748 -0.2433
 2917TIP3    H130386   6.306   3.611   0.555  0.0986  0.8015  0.6670
 2917TIP3    H230387   6.181   3.562   0.486  0.6367  1.0606 -0.5203
 2918TIP3   OH230388   5.642   4.701   0.265 -0.1552 -0.2219  0.2622
 2918TIP3    H130389   5.728   4.743   0.262 -0.5276  0.5517  0.2509
 2918TIP3    H230390   5.643   4.650   0.347  0.0235  0.4332  0.6761
 2919TIP3   OH230391   5.903   2.581   8.060 -0.3500  0.0121  0.4250
 2919TIP3    H130392   5.992   2.551   8.039 -0.5577 -0.1534 -0.2091
 2919TIP3    H230393   5.851   2.558   7.984 -1.3465 -1.5731  1.5347
 2920TIP3   OH230394   5.375   2.361   8.369 -0.1926  0.3949  0.1628
 2920TIP3    H130395   5.328   2.315   8.439  2.5266 -1.0216  1.2193
 2920TIP3    H230396   5.418   2.434   8.413  0.0601  0.5870 -0.3975
 2921TIP3   OH230397   5.551   0.573   1.086 -0.7165  0.5874  0.1786
 2921TIP3    H130398   5.508   0.491   1.062 -1.9199  1.4416 -0.7403
 2921TIP3    H230399   5.594   0.602   1.006 -0.3549  0.8928  0.4784
 2922TIP3   OH230400   6.464   2.809   1.532 -0.1447 -0.1962 -0.4116
 2922TIP3    H130401   6.381   2.823   1.488  0.6946  1.3194 -1.6357
 2922TIP3    H230402   6.473   2.714   1.539 -1.1155 -0.4295 -1.9619
 2923TIP3   OH230403   5.695   3.096   2.232 -0.4039  0.0571 -0.3365
 2923TIP3    H130404   5.731   3.047   2.306 -0.3178  0.8591  0.1701
 2923TIP3    H230405   5.704   3.188   2.259 -2.0724  0.3063 -0.5609
 2924TIP3   OH230406   1.181   2.229   0.974  0.0769  0.1510  0.3525
 2924TIP3    H130407   1.164   2.286   1.050 -2.1303  0.4706 -0.3021
 2924TIP3    H230408   1.245   2.277   0.922  1.0421  0.2851  1.6059
 2925TIP3   OH230409   5.435   4.719   1.450  0.2710 -0.0672  0.0888
 2925TIP3    H130410   5.484   4.672   1.382  0.5368 -0.5335  0.5873
 2925TIP3    H230411   5.407   4.800   1.409  1.6604  0.3129 -0.1447
 2926TIP3   OH230412   5.013   5.040   8.111 -0.5480 -0.2020 -0.3777
 2926TIP3    H130413   4.995   5.131   8.134 -0.5274 -0.5362  1.0219
 2926TIP3    H230414   5.036   4.998   8.194  1.6566 -0.9770 -1.2896
 2927TIP3   OH230415   2.974   4.768   1.343  0.0536 -0.1476 -0.1630
 2927TIP3    H130416   2.903   4.707   1.363  0.4210 -0.6262 -0.2919
 2927TIP3    H230417   3.021   4.727   1.270  0.9314 -0.2235  0.4343
 2928TIP3   OH230418   6.725   5.319   1.429  0.1493 -0.0183  0.0730
 2928TIP3    H130419   6.788   5.313   1.501 -1.2757  1.2428  1.4853
 2928TIP3    H230420   6.699   5.411   1.427 -1.1362 -0.3712 -0.9445
 2929TIP3   OH230421   5.937   2.340   1.653 -0.0043  0.1371 -0.1227
 2929TIP3    H130422   5.860   2.297   1.615 -0.2420 -0.0151  0.5144
 2929TIP3    H230423   5.979   2.384   1.579 -0.9658  0.6164 -0.4044
 2930TIP3   OH230424   0.677   1.557   0.986  0.2109 -0.2720  0.0360
 2930TIP3    H130425   0.750   1.518   1.035 -0.2398 -0.6510  0.4230
 2930TIP3    H230426   0.600   1.507   1.015 -0.0573 -0.5775 -1.1428
 2931TIP3   OH230427   1.896   2.768   2.603 -1.1038 -0.0029  0.3653
 2931TIP3    H130428   1.839   2.807   2.536 -1.8227 -0.0779  0.9240
 2931TIP3    H230429   1.971   2.828   2.608 -0.5470 -0.5218 -1.2133
 2932TIP3   OH230430   0.477   4.057   8.318  0.2001  0.0379 -0.5519
 2932TIP3    H130431   0.540   4.047   8.247  1.3945  0.9403  0.3275
 2932TIP3    H230432   0.531   4.075   8.395 -1.0935 -0.2372  0.4527
 2933TIP3   OH230433   3.336   6.777   2.277  0.0190 -0.5545 -0.2610
 2933TIP3    H130434   3.322   6.738   2.192 -1.1557 -1.8963  0.5022
 2933TIP3    H230435   3.251   6.768   2.322  1.3227 -2.5701  2.0797
 2934TIP3   OH230436   0.488   3.009   6.539 -0.4984 -0.3653  0.1956
 2934TIP3    H130437   0.530   3.084   6.581  0.7349 -0.8527 -0.0923
 2934TIP3    H230438   0.459   3.042   6.454  0.7604 -0.3841 -0.2625
 2935TIP3   OH230439   0.647   0.058   1.120 -0.8289  0.4646  0.6321
 2935TIP3    H130440   0.583   0.127   1.100  1.0526  1.2285 -3.8963
 2935TIP3    H230441   0.729   0.105   1.133 -0.2309 -0.7850  1.5542
 2936TIP3   OH230442   5.657   3.063   8.801 -0.7637 -0.0297  0.7776
 2936TIP3    H130443   5.689   3.153   8.803  0.7284 -0.5021 -0.0999
 2936TIP3    H230444   5.726   3.012   8.844 -0.5417 -1.0212 -0.6939
 2937TIP3   OH230445   3.620   0.918   0.253  0.4011  0.1857  0.2511
 2937TIP3    H130446   3.687   0.917   0.321 -0.7357 -1.8695  1.4560
 2937TIP3    H230447   3.628   1.004   0.212  2.3072  0.8090  1.7898
 2938TIP3   OH230448   2.754   1.935   0.954  0.7577  0.1975 -0.0960
 2938TIP3    H130449   2.830   1.977   0.913  0.3572 -0.6594 -1.8142
 2938TIP3    H230450   2.728   1.996   1.024  1.3874  1.8317 -1.2085
 2939TIP3   OH230451   5.115   2.291   1.332 -0.3432  0.3845 -0.3953
 2939TIP3    H130452   5.043   2.246   1.375 -1.1270  0.6986 -1.3472
 2939TIP3    H230453   5.148   2.228   1.268  0.7995 -0.0699  0.5891
 2940TIP3   OH230454   1.354   6.046   1.828 -0.0310  0.6327  0.4028
 2940TIP3    H130455   1.362   6.138   1.856  0.4261  0.9100 -0.6171
 2940TIP3    H230456   1.442   6.021   1.800  0.4429 -0.9110  2.9328
 2941TIP3   OH230457   0.544   1.045   8.179 -0.0672  0.2654 -0.5837
 2941TIP3    H130458   0.554   1.136   8.205  1.1581  0.0498 -0.2324
 2941TIP3    H230459   0.449   1.033   8.169 -0.4474  0.9836  1.5518
 2942TIP3   OH230460   3.226   4.856   0.325  0.4227 -0.1490  0.2482
 2942TIP3    H130461   3.170   4.933   0.334 -1.2029 -1.2554  0.0531
 2942TIP3    H230462   3.314   4.891   0.310 -0.0366  1.6420  1.5412
 2943TIP3   OH230463   6.313   4.679   0.831 -0.1381 -0.4136  0.5798
 2943TIP3    H130464   6.256   4.603   0.842 -1.4730  0.6575  1.2418
 2943TIP3    H230465   6.277   4.727   0.757  1.9238 -1.4248 -1.2177
 2944TIP3   OH230466   1.050   1.039   7.392  0.0864 -0.3393  0.3423
 2944TIP3    H130467   1.107   0.972   7.431  0.4041  0.2120  0.8443
 2944TIP3    H230468   0.970   0.992   7.369 -0.2653 -0.6278  1.9975
 2945TIP3   OH230469   5.374   4.938   1.294  0.1699 -0.7445 -0.0412
 2945TIP3    H130470   5.378   4.937   1.198  0.4215  0.6284 -0.0745
 2945TIP3    H230471   5.338   5.025   1.314  1.7349 -0.3234  1.1375
 2946TIP3   OH230472   2.239   4.586   0.993  0.1142 -0.2734 -0.2768
 2946TIP3    H130473   2.260   4.504   1.037 -0.0782 -0.1130  0.1220
 2946TIP3    H230474   2.157   4.568   0.946 -0.4219 -0.0607  0.5425
 2947TIP3   OH230475   3.666   1.896   0.187 -0.0759 -0.5248 -0.9241
 2947TIP3    H130476   3.709   1.837   0.248 -3.4235 -1.0198  1.2213
 2947TIP3    H230477   3.606   1.840   0.136 -2.3981  0.6943  0.2866
 2948TIP3   OH230478   5.960   0.741   8.361 -0.6658  0.3137  0.1581
 2948TIP3    H130479   5.913   0.698   8.433  1.6771 -0.9258  1.0760
 2948TIP3    H230480   5.945   0.684   8.286 -1.8583  0.7687  0.0373
 2949TIP3   OH230481   6.806   3.695   8.687  0.2711  0.0132 -0.2158
 2949TIP3    H130482   6.899   3.673   8.686  0.4837  0.8589 -1.1415
 2949TIP3    H230483   6.768   3.647   8.613  0.5682  1.8905 -1.6795
 2950TIP3   OH230484   1.348   0.796   1.171 -0.3128  0.1219  0.9198
 2950TIP3    H130485   1.353   0.891   1.161 -1.8076  0.0970 -0.7473
 2950TIP3    H230486   1.433   0.764   1.142 -0.5002  0.8698 -0.5741
 2951TIP3   OH230487   2.664   3.457   1.921 -0.2569 -0.1398  0.4019
 2951TIP3    H130488   2.594   3.519   1.941 -0.6006 -0.7796  1.2427
 2951TIP3    H230489   2.620   3.372   1.915  0.2154 -0.3314 -0.6832
 2952TIP3   OH230490   4.360   5.846   7.088  0.0420  0.0841  0.1393
 2952TIP3    H130491   4.422   5.779   7.062 -0.0920 -0.5161  1.3114
 2952TIP3    H230492   4.401   5.928   7.060  0.8353 -0.3794 -0.0941
 2953TIP3   OH230493   5.501   6.598   7.403 -0.2231 -0.2232 -0.4480
 2953TIP3    H130494   5.436   6.667   7.392  0.4125  0.1224 -2.3685
 2953TIP3    H230495   5.522   6.600   7.497  0.6057  3.0128 -0.5696
 2954TIP3   OH230496   2.759   2.848   0.625  0.0453  0.3798 -0.5927
 2954TIP3    H130497   2.802   2.789   0.687  0.6815  1.3855 -0.0553
 2954TIP3    H230498   2.829   2.874   0.565 -0.4926 -0.3144 -1.5550
 2955TIP3   OH230499   0.225   0.923   0.199  0.3965 -0.4264 -0.1758
 2955TIP3    H130500   0.246   1.000   0.252  2.6440 -0.3357 -1.0750
 2955TIP3    H230501   0.223   0.955   0.109 -0.9036 -1.0229 -0.3699
 2956TIP3   OH230502   2.737   2.544   0.296  0.4882  0.3171  0.2732
 2956TIP3    H130503   2.654   2.593   0.291  1.5454  2.2182  0.4010
 2956TIP3    H230504   2.768   2.542   0.205  0.9657  0.8359  0.4218
 2957TIP3   OH230505   0.279   4.759   7.896  0.1913  0.2732 -0.1371
 2957TIP3    H130506   0.302   4.751   7.803  1.6546 -0.0667  0.2263
 2957TIP3    H230507   0.210   4.695   7.909  0.2539  0.0385 -0.9149
 2958TIP3   OH230508   5.891   4.005   7.077 -0.2059 -0.3171 -0.5682
 2958TIP3    H130509   5.980   3.973   7.090 -0.3582 -1.1522 -1.4211
 2958TIP3    H230510   5.846   3.932   7.034 -1.3847 -0.0262  0.1239
 2959TIP3   OH230511   5.698   1.621   6.966  0.1461  0.2709 -0.3986
 2959TIP3    H130512   5.620   1.624   7.021  0.0497  0.3657 -0.5376
 2959TIP3    H230513   5.669   1.656   6.881  0.0698 -0.6716 -0.7750
 2960TIP3   OH230514   6.086   4.698   6.476  0.3996  0.8774 -0.4738
 2960TIP3    H130515   6.042   4.711   6.560  0.3650  0.0465 -0.3564
 2960TIP3    H230516   6.102   4.787   6.443 -1.6903  1.2216 -0.6832
 2961TIP3   OH230517   4.095   6.085   1.656 -0.7320  0.6403 -0.2827
 2961TIP3    H130518   4.155   6.157   1.674 -1.4083  0.9279  0.8610
 2961TIP3    H230519   4.114   6.020   1.724 -1.8334  0.8131  0.1992
 2962TIP3   OH230520   0.071   0.924   7.242  0.0734 -0.1502  0.3046
 2962TIP3    H130521   0.119   0.999   7.206  0.6196  0.0699  1.4422
 2962TIP3    H230522  -0.003   0.963   7.289 -0.3777 -0.4046 -0.1882
 2963TIP3   OH230523   6.718   2.337   7.513 -0.0733  0.4714 -0.5092
 2963TIP3    H130524   6.668   2.256   7.498  0.1439  0.4319 -1.0537
 2963TIP3    H230525   6.653   2.398   7.548 -0.8251  0.8072 -2.3733
 2964TIP3   OH230526   1.683   0.415   6.889 -0.3068  0.0046  0.5451
 2964TIP3    H130527   1.596   0.416   6.929 -0.4666 -2.1232  0.3414
 2964TIP3    H230528   1.678   0.482   6.820 -1.4563  0.5541  1.1305
 2965TIP3   OH230529   5.321   3.607   7.216 -0.2838 -0.6569 -0.0078
 2965TIP3    H130530   5.274   3.648   7.144  0.0847 -1.2291 -0.5954
 2965TIP3    H230531   5.344   3.679   7.274 -1.9544 -0.3754  0.3526
 2966TIP3   OH230532   3.890   5.696   1.191  0.3647  0.6837  0.5871
 2966TIP3    H130533   3.861   5.780   1.226 -2.0384 -0.1557  0.7865
 2966TIP3    H230534   3.970   5.676   1.239  0.0481  2.0534  1.7459
 2967TIP3   OH230535   3.310   4.974   2.071 -0.6209  0.0185 -0.2044
 2967TIP3    H130536   3.325   4.882   2.091  1.2349  0.5688  1.1162
 2967TIP3    H230537   3.356   4.989   1.989  1.5181  0.3708  0.9925
 2968TIP3   OH230538   5.442   5.779   7.195  0.7785 -0.1732  0.3330
 2968TIP3    H130539   5.487   5.783   7.110  1.6145  0.6358  0.7911
 2968TIP3    H230540   5.365   5.834   7.183  0.2300 -1.0364 -0.2576
 2969TIP3   OH230541   4.042   2.788   7.868 -0.0978 -0.3836 -0.6550
 2969TIP3    H130542   4.034   2.837   7.786  0.4476 -1.5710 -1.4638
 2969TIP3    H230543   4.128   2.812   7.902 -0.7695  0.9396  0.1587
 2970TIP3   OH230544   0.686   6.478   7.682 -0.6959 -0.0378 -0.2500
 2970TIP3    H130545   0.743   6.402   7.667  0.2981  0.9379 -1.7048
 2970TIP3    H230546   0.598   6.441   7.688 -0.2131 -1.3262 -0.7356
 2971TIP3   OH230547   1.125   2.697   8.099  0.2768 -0.5135  0.1201
 2971TIP3    H130548   1.137   2.602   8.096  0.2716 -0.4779 -1.5752
 2971TIP3    H230549   1.086   2.719   8.015 -3.1309  0.5644  1.7849
 2972TIP3   OH230550   3.729   0.592   0.889  0.3315  0.0356  0.2952
 2972TIP3    H130551   3.674   0.608   0.966 -1.2062 -1.0766 -0.5147
 2972TIP3    H230552   3.756   0.679   0.860  0.1577  0.5156  1.5395
 2973TIP3   OH230553   5.549   4.352   0.159 -0.0507 -0.7787  0.0453
 2973TIP3    H130554   5.483   4.365   0.092 -0.4984 -1.4488  0.3461
 2973TIP3    H230555   5.626   4.400   0.127 -0.6175 -0.1497 -0.3921
 2974TIP3   OH230556   0.096   5.599   7.477 -0.9625  0.2967 -0.0192
 2974TIP3    H130557   0.188   5.594   7.453 -0.5497 -0.6094  1.5644
 2974TIP3    H230558   0.072   5.691   7.463  1.2297  1.4657  2.8718
 2975TIP3   OH230559   4.015   2.133   6.913 -0.1764  0.2084  0.1319
 2975TIP3    H130560   3.952   2.133   6.841 -0.5496  1.2420  0.4341
 2975TIP3    H230561   4.040   2.225   6.922  0.7279 -0.0672  0.5898
 2976TIP3   OH230562   0.669   6.571   6.997 -0.0559 -0.5439  0.1489
 2976TIP3    H130563   0.713   6.487   6.981 -0.5021 -0.5737 -0.9791
 2976TIP3    H230564   0.582   6.561   6.960 -0.7085 -0.1484  1.5196
 2977TIP3   OH230565   4.366   5.762   1.783  0.5816  0.2774 -0.0046
 2977TIP3    H130566   4.275   5.755   1.757 -0.1790  1.3977  2.1093
 2977TIP3    H230567   4.368   5.732   1.874  2.2174  0.7881  0.1698
 2978TIP3   OH230568   0.079   2.695   0.652 -0.5201 -0.1139 -0.1751
 2978TIP3    H130569   0.149   2.630   0.657 -0.0129  0.4520  0.1925
 2978TIP3    H230570   0.080   2.724   0.560 -2.1284 -2.0989 -0.8940
 2979TIP3   OH230571   1.924   6.484   1.931  0.7154  0.1060  0.3486
 2979TIP3    H130572   1.852   6.421   1.931  0.4923  0.3323 -0.7957
 2979TIP3    H230573   1.925   6.520   2.019 -0.5455  0.0558  0.3992
 2980TIP3   OH230574   4.651   3.235   8.268 -0.0836 -0.3618  0.1315
 2980TIP3    H130575   4.717   3.255   8.202 -0.3741 -0.3074 -0.1405
 2980TIP3    H230576   4.582   3.189   8.220 -1.8576  2.4938 -0.2949
 2981TIP3   OH230577   5.171   1.562   2.421  0.1955 -0.3966  0.1264
 2981TIP3    H130578   5.255   1.607   2.419  0.2608 -0.3059  2.2691
 2981TIP3    H230579   5.180   1.492   2.357  2.0168 -0.5387  0.4660
 2982TIP3   OH230580   2.082   1.796   8.440  0.0373  0.3344  0.0740
 2982TIP3    H130581   2.019   1.750   8.384  0.3441  0.9701 -0.8196
 2982TIP3    H230582   2.041   1.881   8.456 -0.5337 -0.2131  1.7324
 2983TIP3   OH230583   2.178   2.220   8.560  0.1278 -0.0759  0.2051
 2983TIP3    H130584   2.189   2.225   8.465  1.8198 -0.7535  0.3438
 2983TIP3    H230585   2.102   2.275   8.578 -1.1038 -1.0444 -1.6838
 2984TIP3   OH230586   5.526   0.225   7.743  0.1381 -0.0605  0.4664
 2984TIP3    H130587   5.571   0.309   7.742 -1.0250  0.7183  3.7023
 2984TIP3    H230588   5.551   0.185   7.826 -0.7336 -2.1651 -0.2030
 2985TIP3   OH230589   3.219   3.311   0.615 -0.0542  0.2073 -0.5349
 2985TIP3    H130590   3.267   3.235   0.581  1.4158  0.2724  1.2302
 2985TIP3    H230591   3.287   3.376   0.632 -0.8579  0.6566  1.1688
 2986TIP3   OH230592   4.894   6.627   0.747  0.3112  0.1134 -0.0619
 2986TIP3    H130593   4.835   6.645   0.820 -0.8679 -1.1178 -0.6533
 2986TIP3    H230594   4.980   6.653   0.778 -0.5132  1.9267  0.8695
 2987TIP3   OH230595   6.178   4.894   0.014 -0.9747 -0.4619  0.0263
 2987TIP3    H130596   6.133   4.958  -0.041 -0.8131  0.7260  1.2283
 2987TIP3    H230597   6.267   4.890  -0.021 -1.2335 -0.7091 -0.6101
 2988TIP3   OH230598   2.888   3.162   7.354 -0.3745  0.5589 -0.6995
 2988TIP3    H130599   2.837   3.209   7.288  2.3470  3.4246 -0.9958
 2988TIP3    H230600   2.880   3.216   7.433 -0.7409 -0.9408  0.3285
 2989TIP3   OH230601   6.559   5.330   2.072  0.2438 -0.0219 -0.0088
 2989TIP3    H130602   6.595   5.369   1.993 -1.4369 -0.7733 -1.2095
 2989TIP3    H230603   6.619   5.357   2.142  2.5743 -0.4988 -1.7178
 2990TIP3   OH230604   2.783   0.147   6.915  0.0400 -0.7307  0.0387
 2990TIP3    H130605   2.805   0.054   6.919 -2.2211 -1.4033 -1.6185
 2990TIP3    H230606   2.772   0.173   7.007  0.2401 -2.2056  0.4990
 2991TIP3   OH230607   6.845   2.217   6.308  0.3567 -0.3352 -0.0484
 2991TIP3    H130608   6.898   2.142   6.337  2.7374  1.0831 -0.4226
 2991TIP3    H230609   6.898   2.257   6.239  0.9675  3.7277  2.4754
 2992TIP3   OH230610   1.757   0.787   8.465 -0.1405  0.9217  0.5473
 2992TIP3    H130611   1.738   0.844   8.390 -1.2576  0.6446  0.6049
 2992TIP3    H230612   1.702   0.710   8.452 -0.5659  0.9940  1.7953
 2993TIP3   OH230613   1.351   6.069   1.076 -0.0417 -0.4367  0.2773
 2993TIP3    H130614   1.429   6.014   1.083 -0.3471 -0.7919  1.0276
 2993TIP3    H230615   1.386   6.158   1.068  0.4687 -0.7811 -1.8686
 2994TIP3   OH230616   0.490   5.780   7.601 -0.1047 -0.1805 -0.0944
 2994TIP3    H130617   0.405   5.823   7.592  0.4239  0.8784 -0.1461
 2994TIP3    H230618   0.535   5.798   7.518  0.9881  1.1366  0.7282
 2995TIP3   OH230619   2.794   0.632   7.959 -0.0827 -0.0061 -0.0963
 2995TIP3    H130620   2.825   0.680   8.035  0.6595 -1.1773  0.3691
 2995TIP3    H230621   2.755   0.698   7.903  1.2771  1.2089  0.3317
 2996TIP3   OH230622   1.905   3.786   0.779  0.0420 -0.1261  0.0601
 2996TIP3    H130623   1.828   3.821   0.735 -1.6271 -1.4364  1.7332
 2996TIP3    H230624   1.902   3.691   0.763 -0.8204 -0.7208  3.0011
 2997TIP3   OH230625   6.689   1.774   8.747 -0.7788  0.3436  0.5850
 2997TIP3    H130626   6.770   1.768   8.798  1.5290 -0.0807 -2.8028
 2997TIP3    H230627   6.646   1.853   8.780  1.4402  1.0726  1.9461
 2998TIP3   OH230628   6.284   1.536   7.283 -0.2757  0.6044 -0.3570
 2998TIP3    H130629   6.328   1.458   7.315 -0.4672  0.5278 -0.2775
 2998TIP3    H230630   6.280   1.594   7.360  0.2080  0.8471 -0.5130
 2999TIP3   OH230631   3.211   5.272   8.066  0.0257 -1.0314 -0.1485
 2999TIP3    H130632   3.281   5.279   8.130  1.0912 -0.8946 -1.3000
 2999TIP3    H230633   3.213   5.356   8.019 -1.3552 -0.7570  0.2361
 3000TIP3   OH230634   1.373   4.287   2.460 -0.0541 -0.0614 -0.1300
 3000TIP3    H130635   1.439   4.350   2.489 -0.2369 -0.5596  1.4826
 3000TIP3    H230636   1.416   4.237   2.392  0.7020  0.6297 -0.1795
 3001TIP3   OH230637   2.076   2.541   8.233  0.0455  0.4514 -0.2765
 3001TIP3    H130638   2.009   2.486   8.272  2.3510 -0.5288  2.7146
 3001TIP3    H230639   2.065   2.626   8.273  0.5194  0.3008  0.1879
 3002TIP3   OH230640   1.307   6.404   6.404 -0.2991 -0.0359  0.1357
 3002TIP3    H130641   1.364   6.480   6.416 -0.4987  0.3731 -1.2745
 3002TIP3    H230642   1.306   6.391   6.309  0.3586 -2.2921  0.3917
 3003TIP3   OH230643   4.660   5.016   8.671 -0.4910  0.0146  0.2011
 3003TIP3    H130644   4.748   4.978   8.677 -0.8420 -0.8903 -0.2323
 3003TIP3    H230645   4.614   4.961   8.608 -0.6610  1.9210 -1.4495
 3004TIP3   OH230646   1.347   4.557   8.495  0.5658  0.0074 -0.1396
 3004TIP3    H130647   1.370   4.561   8.402  1.1732 -2.1014 -0.1407
 3004TIP3    H230648   1.264   4.511   8.497  0.7464 -0.3071  0.3751
 3005TIP3   OH230649   5.503   3.397   7.428 -0.3920  0.4092 -0.6005
 3005TIP3    H130650   5.503   3.319   7.483 -1.3884  0.9095  0.1393
 3005TIP3    H230651   5.414   3.431   7.434 -0.5817  0.3752 -2.7095
 3006TIP3   OH230652   2.106   6.338   0.303 -0.6051 -0.0867  0.6334
 3006TIP3    H130653   2.017   6.372   0.298 -0.6809 -0.1534  1.4584
 3006TIP3    H230654   2.104   6.256   0.254 -0.9805 -0.0657  0.6140
 3007TIP3   OH230655   1.955   0.294   7.138 -0.3297 -0.1653  0.6685
 3007TIP3    H130656   2.021   0.225   7.148 -0.3466 -0.3039 -0.1018
 3007TIP3    H230657   2.002   0.365   7.093 -1.2066 -1.1015 -1.9303
 3008TIP3   OH230658   3.977   1.689   7.036  0.1990  0.3751  0.0964
 3008TIP3    H130659   3.963   1.599   7.008  0.0438  0.1709  0.8075
 3008TIP3    H230660   3.964   1.741   6.957  0.0235 -0.2058 -0.2607
 3009TIP3   OH230661   4.618   2.015   8.480  0.1707 -0.0104  0.0003
 3009TIP3    H130662   4.690   1.996   8.540  1.7856  0.7355 -1.6191
 3009TIP3    H230663   4.618   2.110   8.471 -0.6377 -0.0428 -0.4920
 3010TIP3   OH230664   6.771   1.928   1.217 -0.1369 -0.2855  0.1448
 3010TIP3    H130665   6.693   1.874   1.225  0.1138 -0.7703 -0.5661
 3010TIP3    H230666   6.759   1.975   1.134  1.0772 -1.6336 -0.8411
 3011TIP3   OH230667   2.737   4.860   1.119 -0.2799 -0.0519 -0.2979
 3011TIP3    H130668   2.674   4.912   1.068 -0.3919 -0.3026 -0.4178
 3011TIP3    H230669   2.740   4.775   1.074 -2.2720 -1.1890  1.5017
 3012TIP3   OH230670   4.104   2.078   8.181  0.1134 -0.2008 -0.5738
 3012TIP3    H130671   4.176   2.015   8.182  0.9941  0.7370 -1.7596
 3012TIP3    H230672   4.129   2.143   8.247 -0.8883 -1.1378  0.7887
 3013TIP3   OH230673   4.396   1.706   7.650  0.5333 -0.0530 -0.0587
 3013TIP3    H130674   4.439   1.709   7.565 -1.1415 -0.9260 -0.9897
 3013TIP3    H230675   4.463   1.676   7.711  1.6313  0.1451 -1.1484
 3014TIP3   OH230676   6.116   6.245   7.644 -0.0692 -0.2539 -0.3577
 3014TIP3    H130677   6.120   6.295   7.562  2.0154 -1.1486 -0.8583
 3014TIP3    H230678   6.044   6.183   7.629 -0.1205  0.0006 -1.2670
 3015TIP3   OH230679   4.230   5.043   8.683 -0.2020 -0.2335 -0.2884
 3015TIP3    H130680   4.314   5.078   8.714 -0.1106  0.1083 -0.9164
 3015TIP3    H230681   4.164   5.091   8.733 -0.0225 -2.6558  2.5405
 3016TIP3   OH230682   3.960   1.194   0.255  0.5116  0.4365 -0.4522
 3016TIP3    H130683   3.869   1.188   0.226  0.7124  0.6017 -1.1182
 3016TIP3    H230684   4.011   1.199   0.175  0.9818  2.3198 -0.0831
 3017TIP3   OH230685   5.191   2.847   7.107 -0.1770  0.3175  0.1977
 3017TIP3    H130686   5.220   2.756   7.106  0.1257  0.4081 -1.5310
 3017TIP3    H230687   5.272   2.897   7.094 -0.5749  0.7323 -0.7723
 3018TIP3   OH230688   4.643   0.047   1.086  0.2489  0.5771  0.4965
 3018TIP3    H130689   4.653   0.109   1.159 -0.5569 -0.5422  1.6157
 3018TIP3    H230690   4.549   0.027   1.085  0.5505 -1.0179  0.5379
 3019TIP3   OH230691   0.089   0.292   7.856 -0.5015 -0.4663  0.4802
 3019TIP3    H130692   0.145   0.368   7.839 -0.4202 -0.6143  0.0889
 3019TIP3    H230693   0.020   0.325   7.913 -0.6561 -0.0188  0.0391
 3020TIP3   OH230694   2.319   2.792   7.215 -0.0655 -0.0291  0.2877
 3020TIP3    H130695   2.396   2.735   7.226 -0.4621 -0.4090  1.1289
 3020TIP3    H230696   2.336   2.866   7.273 -1.0085 -0.8367  1.6489
 3021TIP3   OH230697   3.261   2.088   2.323 -0.2894  0.3724  0.4332
 3021TIP3    H130698   3.223   2.063   2.406 -0.7667 -0.4066 -0.0110
 3021TIP3    H230699   3.342   2.134   2.346 -0.2668 -0.0997  1.3051
 3022TIP3   OH230700   2.349   6.269   8.393  0.1917  0.3792  0.5020
 3022TIP3    H130701   2.387   6.207   8.455  0.6049  0.5168  0.3831
 3022TIP3    H230702   2.259   6.236   8.380  0.3754 -0.1422  0.5100
 3023TIP3   OH230703   0.525   1.631   0.385 -0.5896 -0.1539 -0.1226
 3023TIP3    H130704   0.561   1.717   0.408 -2.2417  0.8288 -0.9969
 3023TIP3    H230705   0.550   1.574   0.458  1.2679  0.8479  0.0769
 3024TIP3   OH230706   3.295   3.909   0.378 -0.1288  0.2476 -0.1149
 3024TIP3    H130707   3.234   3.899   0.305  0.0586  2.4739 -0.6490
 3024TIP3    H230708   3.335   3.823   0.389 -1.1905 -0.4752 -1.7116
 3025TIP3   OH230709   3.164   5.557   1.544  0.5665  0.2811  0.0890
 3025TIP3    H130710   3.242   5.566   1.489  0.9972  1.0751  0.8030
 3025TIP3    H230711   3.115   5.485   1.504  2.2561 -1.0676  0.3416
 3026TIP3   OH230712   1.932   0.513   7.634 -0.3247  0.1729 -0.4669
 3026TIP3    H130713   2.000   0.455   7.599  0.5033  0.3810  0.7485
 3026TIP3    H230714   1.964   0.601   7.616 -1.3188  0.2953 -1.8077
 3027TIP3   OH230715   5.686   4.318   1.784  0.3431 -0.6872  0.1889
 3027TIP3    H130716   5.680   4.292   1.876  1.2156  1.4760  0.9141
 3027TIP3    H230717   5.767   4.277   1.753  0.5546 -0.6343  0.6634
 3028TIP3   OH230718   1.288   0.936   0.899 -0.1177  0.2162  0.8290
 3028TIP3    H130719   1.292   0.842   0.916 -0.4277  0.4314  2.1915
 3028TIP3    H230720   1.298   0.976   0.985 -0.8769  1.4197  0.3768
 3029TIP3   OH230721   5.414   2.566   2.848  0.4893  0.5692 -0.2592
 3029TIP3    H130722   5.492   2.513   2.836 -0.5871 -1.4703  1.1852
 3029TIP3    H230723   5.433   2.620   2.925  0.2979 -0.3196  0.4211
 3030TIP3   OH230724   0.574   6.667   0.159 -0.1596  0.1774 -0.0942
 3030TIP3    H130725   0.492   6.623   0.135  0.5597 -1.1404 -0.2094
 3030TIP3    H230726   0.580   6.655   0.253 -0.7738  1.5128  0.1466
 3031TIP3   OH230727   6.066   0.847   7.436  0.5207 -0.7319  0.0327
 3031TIP3    H130728   5.989   0.828   7.488 -1.0615 -0.0585 -1.9275
 3031TIP3    H230729   6.057   0.792   7.358  0.0504  1.9443 -1.9394
 3032TIP3   OH230730   3.076   2.387   6.254  0.0848  0.2852 -0.3460
 3032TIP3    H130731   3.061   2.414   6.163 -2.2057  0.6780  0.0834
 3032TIP3    H230732   3.012   2.318   6.270  0.9911 -0.3395  0.7646
 3033TIP3   OH230733   4.635   5.183   6.868  0.2762 -0.3647  0.5698
 3033TIP3    H130734   4.693   5.257   6.884 -1.7844  1.7004 -0.9482
 3033TIP3    H230735   4.643   5.165   6.775 -0.0101 -1.4042  0.7261
 3034TIP3   OH230736   4.603   4.276   7.954 -0.3740 -0.5199  0.3434
 3034TIP3    H130737   4.596   4.276   7.858 -2.1358 -2.3006  0.4169
 3034TIP3    H230738   4.689   4.236   7.971 -0.3144 -0.7662 -0.4807
 3035TIP3   OH230739   2.429   0.403   2.272  0.2193 -0.4282 -0.3950
 3035TIP3    H130740   2.390   0.414   2.358 -0.9089  0.5607 -1.0064
 3035TIP3    H230741   2.490   0.330   2.282  2.1592  1.3610  1.9101
 3036TIP3   OH230742   1.333   0.634   7.924  0.5343 -0.2393 -0.4266
 3036TIP3    H130743   1.301   0.620   7.835 -1.2291  1.8269 -0.2043
 3036TIP3    H230744   1.256   0.662   7.973  2.1031  2.2324  0.8415
 3037TIP3   OH230745   3.004   2.250   1.902  0.2292 -0.2080 -0.2920
 3037TIP3    H130746   3.033   2.228   1.814 -0.6811 -0.2108 -0.6063
 3037TIP3    H230747   3.062   2.201   1.960 -0.2388 -1.5717 -0.9234
 3038TIP3   OH230748   5.738   4.706   7.393 -0.8433  0.0113 -0.0250
 3038TIP3    H130749   5.704   4.646   7.327 -1.3238 -0.7962  0.9382
 3038TIP3    H230750   5.816   4.744   7.353 -2.4743  1.4641 -2.0700
 3039TIP3   OH230751   5.694   5.418   6.360 -0.4626 -0.0259 -0.6945
 3039TIP3    H130752   5.745   5.482   6.409 -2.2405 -0.1605  1.4840
 3039TIP3    H230753   5.645   5.470   6.297  1.1416  0.2484 -1.7915
 3040TIP3   OH230754   3.883   2.142   0.553  0.0887 -0.6252 -0.2551
 3040TIP3    H130755   3.850   2.226   0.583  2.2898 -0.5484  2.3764
 3040TIP3    H230756   3.834   2.077   0.604  1.0303 -0.7003  0.5918
 3041TIP3   OH230757   3.997   3.252   0.743 -0.1363  0.1212 -0.3993
 3041TIP3    H130758   3.918   3.287   0.701 -0.6595 -1.0705 -0.4563
 3041TIP3    H230759   4.030   3.324   0.796 -1.0787  0.7447 -0.6352
 3042TIP3   OH230760   5.011   1.716   0.779 -0.2139 -0.2093 -0.0255
 3042TIP3    H130761   4.933   1.683   0.736  1.3978 -0.9331 -2.5993
 3042TIP3    H230762   5.029   1.799   0.736  1.7713 -1.2260 -1.2829
 3043TIP3   OH230763   1.175   4.954   7.510  0.4530 -0.0649 -0.4435
 3043TIP3    H130764   1.093   5.003   7.515  0.7614  0.4649 -0.4714
 3043TIP3    H230765   1.241   5.019   7.486  0.9690 -0.3931  0.0492
 3044TIP3   OH230766   4.152   1.137   8.747 -0.3393 -0.1303 -0.3852
 3044TIP3    H130767   4.156   1.089   8.829 -0.9092  2.4698  1.2814
 3044TIP3    H230768   4.059   1.133   8.721 -0.5647  0.7284  0.2306
 3045TIP3   OH230769   1.939   3.411   1.947 -0.0784 -0.3315  0.4702
 3045TIP3    H130770   2.008   3.370   2.000  0.1517  0.5780  0.8885
 3045TIP3    H230771   1.980   3.424   1.861  0.0039 -0.5400  0.4769
 3046TIP3   OH230772   3.514   6.589   1.200 -0.7067  0.3532  0.2241
 3046TIP3    H130773   3.424   6.620   1.194 -0.2984  2.0561  1.7184
 3046TIP3    H230774   3.509   6.494   1.188 -2.5664  0.5295 -0.6039
 3047TIP3   OH230775   5.675   4.124   0.477  0.5960  0.6003 -0.2594
 3047TIP3    H130776   5.731   4.143   0.552  0.0775 -1.0611  0.5902
 3047TIP3    H230777   5.594   4.170   0.495 -0.6310 -2.0889  1.7515
 3048TIP3   OH230778   3.564   2.414   7.575  0.3152 -0.7717  0.3958
 3048TIP3    H130779   3.626   2.487   7.577 -1.0789  0.4460  0.7713
 3048TIP3    H230780   3.584   2.363   7.653 -0.4509  0.7532  1.6378
 3049TIP3   OH230781   2.907   5.849   0.104  0.0474 -0.3503  0.7452
 3049TIP3    H130782   2.854   5.808   0.035  0.2624 -0.3242  0.5659
 3049TIP3    H230783   2.916   5.940   0.076  0.8515 -0.5369  0.3768
 3050TIP3   OH230784   4.135   5.856   0.370  0.7817  0.3280  0.4677
 3050TIP3    H130785   4.094   5.896   0.446  0.7941 -0.9189  1.1598
 3050TIP3    H230786   4.225   5.890   0.371  0.8401  0.1674  1.1368
 3051TIP3   OH230787   6.494   2.553   6.697 -0.1543 -0.3909  0.2176
 3051TIP3    H130788   6.431   2.486   6.670  0.2864 -0.2205 -1.3045
 3051TIP3    H230789   6.456   2.636   6.667  1.7942 -0.4597 -2.9452
 3052TIP3   OH230790   2.575   5.225   0.870 -1.0165 -0.4674 -0.5747
 3052TIP3    H130791   2.588   5.314   0.904 -0.2495 -0.9343  0.4098
 3052TIP3    H230792   2.654   5.207   0.820 -0.9984 -0.7316 -0.4524
 3053TIP3   OH230793   4.019   1.970   2.255  0.6134  0.3990 -0.2251
 3053TIP3    H130794   4.081   2.033   2.219 -1.0617  2.0211 -0.4022
 3053TIP3    H230795   4.067   1.887   2.256  3.0171  1.7133  0.3367
 3054TIP3   OH230796   0.410   5.798   0.503  0.3294 -0.2521 -0.5622
 3054TIP3    H130797   0.432   5.791   0.410  1.0088 -0.5183 -0.3853
 3054TIP3    H230798   0.371   5.714   0.526 -0.4589  0.0502 -0.7604
 3055TIP3   OH230799   5.324   1.616   7.484 -0.7639 -0.1937 -0.0708
 3055TIP3    H130800   5.362   1.636   7.398  0.7969 -0.4092  0.5211
 3055TIP3    H230801   5.339   1.696   7.536  1.6923 -1.2447  1.0465
 3056TIP3   OH230802   2.376   0.965   0.573  0.2813 -0.4867  0.2289
 3056TIP3    H130803   2.436   0.996   0.641  0.5811 -0.9163  0.1696
 3056TIP3    H230804   2.361   1.041   0.518  0.4661 -0.2716  0.4684
 3057TIP3   OH230805   5.462   3.552   0.557  0.3028 -0.3660 -0.3751
 3057TIP3    H130806   5.556   3.557   0.540  0.4441  0.5139  0.5696
 3057TIP3    H230807   5.424   3.622   0.503  0.6199  1.6272  1.8096
 3058TIP3   OH230808   3.893   4.802   8.536 -0.0380  0.1472 -0.4684
 3058TIP3    H130809   3.890   4.842   8.449  1.3603  0.5358 -0.3700
 3058TIP3    H230810   3.873   4.873   8.596 -0.8295 -0.0804 -0.4577
 3059TIP3   OH230811   2.725   5.628   7.337  0.3815 -0.0625  0.4122
 3059TIP3    H130812   2.730   5.563   7.267  2.1215  0.4749 -0.0146
 3059TIP3    H230813   2.639   5.670   7.325  0.6998  0.1274 -1.5235
 3060TIP3   OH230814   3.140   6.666   7.662 -0.6656 -0.7601  0.0978
 3060TIP3    H130815   3.095   6.677   7.746 -1.4628 -0.4290 -0.3574
 3060TIP3    H230816   3.156   6.755   7.631  0.9463 -0.8627  0.5670
 3061TIP3   OH230817   4.495   2.543   7.552 -0.2696 -0.1547  0.3621
 3061TIP3    H130818   4.439   2.611   7.589  0.2425  0.4985 -0.0453
 3061TIP3    H230819   4.461   2.461   7.589 -1.2165  0.2698  0.4465
 3062TIP3   OH230820   3.890   5.728   0.310 -0.0341  0.2783  0.0646
 3062TIP3    H130821   3.928   5.660   0.365 -1.5129 -2.2965 -1.8278
 3062TIP3    H230822   3.960   5.791   0.297  0.7487  0.3170  3.6739
 3063TIP3   OH230823   3.763   4.417   6.920  0.4532  0.3185 -0.2828
 3063TIP3    H130824   3.811   4.499   6.931  2.1428 -0.5669 -0.6881
 3063TIP3    H230825   3.768   4.374   7.006  0.1548  0.3412 -0.2536
 3064TIP3   OH230826   5.554   4.697   0.537  0.6649 -0.6649 -0.3381
 3064TIP3    H130827   5.583   4.641   0.609  0.8977 -0.0294  0.0687
 3064TIP3    H230828   5.461   4.711   0.555  0.9326  0.2900  0.3980
 3065TIP3   OH230829   1.319   4.252   7.279  0.4096 -0.1368 -0.3538
 3065TIP3    H130830   1.271   4.244   7.197 -1.7816  0.8443  0.7290
 3065TIP3    H230831   1.251   4.253   7.346  1.9716  1.1613  1.3180
 3066TIP3   OH230832   0.684   2.477   7.848  0.4851 -0.0022  0.1206
 3066TIP3    H130833   0.650   2.423   7.776  1.0428  0.1250 -0.2432
 3066TIP3    H230834   0.612   2.537   7.869  0.2531 -0.1612 -0.2059
 3067TIP3   OH230835   1.547   4.932   8.588 -0.3547  0.0260  0.8632
 3067TIP3    H130836   1.466   4.882   8.599 -0.5700  0.6528  2.3767
 3067TIP3    H230837   1.520   5.023   8.599  0.2511  0.3972 -0.5690
 3068TIP3   OH230838   2.574   6.429   1.780 -0.5388  0.2237 -0.4328
 3068TIP3    H130839   2.609   6.348   1.818  1.7319  1.7162  0.8550
 3068TIP3    H230840   2.482   6.430   1.807 -0.2803 -1.2802  0.6191
 3069TIP3   OH230841   1.961   2.322   0.548 -0.0089  0.4289  0.5997
 3069TIP3    H130842   1.915   2.242   0.521  0.2845  0.7663 -1.0267
 3069TIP3    H230843   2.019   2.341   0.475  0.7527  1.5182  1.4612
 3070TIP3   OH230844   2.048   4.167   8.570 -0.5624 -0.2799  0.2947
 3070TIP3    H130845   2.141   4.149   8.583 -0.7901 -1.9534 -0.1442
 3070TIP3    H230846   2.029   4.240   8.628  0.9487 -0.1406  0.6473
 3071TIP3   OH230847   6.202   2.840   0.588 -0.7274  0.4189 -0.1760
 3071TIP3    H130848   6.107   2.829   0.593 -0.6918 -0.8935 -1.4907
 3071TIP3    H230849   6.235   2.751   0.573  0.4940  1.1388 -2.0635
 3072TIP3   OH230850   5.133   3.305   1.900  0.0260  0.3086 -0.0300
 3072TIP3    H130851   5.221   3.327   1.931 -0.0018  0.9179 -0.3604
 3072TIP3    H230852   5.074   3.352   1.959 -0.1179 -0.7891  0.7311
 3073TIP3   OH230853   0.883   5.487   8.250  0.1210  0.1254  0.1873
 3073TIP3    H130854   0.879   5.567   8.302  2.1395  1.0708 -1.0052
 3073TIP3    H230855   0.792   5.457   8.245 -0.3382  0.8562  2.8496
 3074TIP3   OH230856   5.044   4.132   7.446  0.2594  0.4481  0.4304
 3074TIP3    H130857   5.044   4.085   7.529  2.0183  0.2233  0.3236
 3074TIP3    H230858   5.116   4.194   7.453 -0.6062  1.5902 -0.3066
 3075TIP3   OH230859   0.118   3.364   1.732  0.1176 -0.2368  0.2495
 3075TIP3    H130860   0.106   3.332   1.821 -1.2603  0.1236  0.2107
 3075TIP3    H230861   0.184   3.305   1.694  1.5325  0.2570  1.8164
 3076TIP3   OH230862   5.175   2.420   0.826 -0.3479 -0.1338  0.4668
 3076TIP3    H130863   5.187   2.515   0.823  0.3387 -0.2190  0.3740
 3076TIP3    H230864   5.122   2.404   0.904 -2.8496  0.5581 -0.9736
 3077TIP3   OH230865   2.553   5.001   7.882 -0.0263  0.8511 -0.0891
 3077TIP3    H130866   2.647   4.984   7.880 -0.4160 -1.6479  0.3876
 3077TIP3    H230867   2.534   5.039   7.796  1.1604 -0.1965 -0.8475
 3078TIP3   OH230868   1.206   3.634   7.857  0.9321  0.4440  0.2083
 3078TIP3    H130869   1.119   3.630   7.898  0.4090 -0.0782 -0.9340
 3078TIP3    H230870   1.258   3.569   7.905 -0.1172 -1.3039 -0.9475
 3079TIP3   OH230871   5.095   3.309   8.092 -0.0477 -0.6414  0.1647
 3079TIP3    H130872   5.085   3.306   7.997 -1.5126 -0.2455  0.2845
 3079TIP3    H230873   5.176   3.357   8.106  1.5666 -2.8732 -0.9126
 3080TIP3   OH230874   5.279   3.745   6.284  0.1545 -0.3744 -0.0260
 3080TIP3    H130875   5.320   3.683   6.344  1.6210 -0.5216 -1.1391
 3080TIP3    H230876   5.252   3.692   6.209 -1.0000 -0.0728  0.1538
 3081TIP3   OH230877   3.456   6.631   7.298 -0.4128  0.3099 -1.1065
 3081TIP3    H130878   3.382   6.685   7.324  0.4964  1.0682  0.0183
 3081TIP3    H230879   3.417   6.552   7.260 -1.7703  0.9127 -1.0094
 3082TIP3   OH230880   6.003   5.352   8.250 -0.2114 -0.2603 -0.5978
 3082TIP3    H130881   5.955   5.423   8.207 -3.5679 -1.7648  0.3664
 3082TIP3    H230882   5.982   5.274   8.199 -1.2424 -1.4503  1.5028
 3083TIP3   OH230883   4.590   3.293   7.704  0.0169  0.4317  0.0394
 3083TIP3    H130884   4.682   3.270   7.698  0.3266  1.7257 -0.7896
 3083TIP3    H230885   4.589   3.375   7.753 -0.6160  0.7378 -0.4616
 3084TIP3   OH230886   3.509   2.735   1.222 -0.2746 -0.3578  0.0141
 3084TIP3    H130887   3.519   2.830   1.228 -0.8831 -0.2895  0.0215
 3084TIP3    H230888   3.548   2.702   1.303  0.0265 -0.1275 -0.0313
 3085TIP3   OH230889   1.429   0.225   1.121 -0.3626  0.3817  0.2412
 3085TIP3    H130890   1.418   0.318   1.141 -0.4312  0.8149 -1.6561
 3085TIP3    H230891   1.448   0.222   1.027 -2.1765 -1.6425 -0.1361
 3086TIP3   OH230892   3.094   1.983   6.888  0.4264  0.2255  0.4141
 3086TIP3    H130893   3.054   1.901   6.919  0.9703 -1.0113 -1.9381
 3086TIP3    H230894   3.160   1.955   6.825 -0.9877  2.5438 -2.2737
 3087TIP3   OH230895   1.150   4.001   0.349  0.5898 -0.2558  0.4786
 3087TIP3    H130896   1.098   4.077   0.325 -0.0202 -0.7930  0.0701
 3087TIP3    H230897   1.100   3.958   0.419  0.4586 -0.7959  0.0595
 3088TIP3   OH230898   6.336   2.801   6.747  0.2761 -0.3090  0.2558
 3088TIP3    H130899   6.281   2.828   6.674  0.5205 -0.0019  0.1833
 3088TIP3    H230900   6.405   2.867   6.751  0.7770 -0.8201  0.1994
 3089TIP3   OH230901   0.559   6.530   2.740  0.3725 -0.1323  0.3359
 3089TIP3    H130902   0.471   6.558   2.715  0.4629  0.9728  1.1633
 3089TIP3    H230903   0.591   6.601   2.796  0.9852 -1.4774  1.7647
 3090TIP3   OH230904   5.733   0.944   8.231 -0.5251  0.1053  0.8466
 3090TIP3    H130905   5.639   0.925   8.244 -0.2408 -1.4299  0.9282
 3090TIP3    H230906   5.775   0.911   8.311  0.1994 -0.2913  0.3102
 3091TIP3   OH230907   6.105   5.870   7.952 -0.2555 -0.0740  0.2467
 3091TIP3    H130908   6.198   5.890   7.953 -0.3739  0.9655 -2.3280
 3091TIP3    H230909   6.080   5.874   7.860 -2.9219 -0.0066  0.8843
 3092TIP3   OH230910   3.193   6.738   7.371 -0.4570 -0.2100 -0.3843
 3092TIP3    H130911   3.132   6.667   7.351 -0.9043  0.6028 -2.1662
 3092TIP3    H230912   3.207   6.781   7.286  1.9504  0.1424  0.1273
 3093TIP3   OH230913   5.763   2.880   2.058  0.4105  0.2632  0.1514
 3093TIP3    H130914   5.739   2.926   2.139  2.7895  0.1399  0.9966
 3093TIP3    H230915   5.768   2.949   1.992  1.2832  0.8272  0.7920
 3094TIP3   OH230916   4.307   6.839   0.678  0.1921  0.1672  0.1156
 3094TIP3    H130917   4.283   6.915   0.625  1.5597  0.8803  0.4573
 3094TIP3    H230918   4.227   6.787   0.683 -0.8924  1.7653  0.1826
 3095TIP3   OH230919   2.031   5.308   8.339 -0.1942 -0.1915  0.4346
 3095TIP3    H130920   1.960   5.296   8.277 -0.4646 -1.0770  0.9017
 3095TIP3    H230921   1.992   5.360   8.410 -0.7397 -1.6283  1.2400
 3096TIP3   OH230922   3.452   2.793   8.785 -0.2801  0.6261  0.5992
 3096TIP3    H130923   3.486   2.825   8.869  0.8216  0.0327  0.4005
 3096TIP3    H230924   3.492   2.707   8.775 -0.8606  0.4538 -0.2669
 3097TIP3   OH230925   5.682   4.702   7.994 -0.3110  0.0268  0.0944
 3097TIP3    H130926   5.608   4.670   7.942 -0.6990  1.2368 -0.1331
 3097TIP3    H230927   5.660   4.677   8.084 -0.0657 -1.2870 -0.1900
 3098TIP3   OH230928   6.658   2.848   7.949 -0.4599  0.4451 -0.0037
 3098TIP3    H130929   6.701   2.863   8.034  0.8859  0.0624 -0.5880
 3098TIP3    H230930   6.626   2.934   7.923 -1.7634  0.3949  1.3337
 3099TIP3   OH230931   0.855   5.445   7.749 -0.2578  0.1920  0.2235
 3099TIP3    H130932   0.874   5.368   7.696 -2.3166  0.5682 -1.1838
 3099TIP3    H230933   0.885   5.519   7.696  2.6715  0.4479  2.0016
 3100TIP3   OH230934   3.129   5.564   7.568  0.0698  0.0523 -0.1634
 3100TIP3    H130935   3.063   5.582   7.501 -1.7182  0.6796  1.6893
 3100TIP3    H230936   3.209   5.604   7.534 -0.6311 -0.1285 -2.1618
 3101TIP3   OH230937   5.259   2.912   0.662 -0.4007 -0.3853  0.0039
 3101TIP3    H130938   5.295   2.921   0.574  1.3339  1.1728  0.8104
 3101TIP3    H230939   5.164   2.903   0.648 -0.2232  0.3266 -1.9879
 3102TIP3   OH230940   4.002   3.613   7.786 -0.0390  0.3228 -0.4841
 3102TIP3    H130941   4.010   3.630   7.880 -1.0271  1.2798 -0.5508
 3102TIP3    H230942   4.089   3.585   7.759 -0.2037 -1.9387  1.0883
 3103TIP3   OH230943   5.114   5.352   2.479 -0.0610 -0.4384 -0.1103
 3103TIP3    H130944   5.107   5.417   2.410 -0.3251  0.5567  0.8287
 3103TIP3    H230945   5.025   5.341   2.512  0.1104 -0.6291  0.3013
 3104TIP3   OH230946   3.401   4.561   7.346 -0.5727  0.0697 -0.1804
 3104TIP3    H130947   3.327   4.620   7.361 -0.4329  0.4110 -0.7606
 3104TIP3    H230948   3.437   4.544   7.432 -0.9268  0.4349  0.0422
 3105TIP3   OH230949   3.062   4.251   1.564 -0.4420 -0.4118  0.0176
 3105TIP3    H130950   3.075   4.186   1.495  1.0250  0.6617 -0.7880
 3105TIP3    H230951   3.146   4.255   1.609 -0.2643  1.3677 -0.3938
 3106TIP3   OH230952   5.595   0.755   6.825  0.2741 -0.4596 -0.6061
 3106TIP3    H130953   5.613   0.828   6.884 -1.8287 -0.0160 -0.4654
 3106TIP3    H230954   5.653   0.685   6.855 -0.0604  0.0622  1.3839
 3107TIP3   OH230955   1.860   4.716   8.233 -0.0536  0.3158 -0.3079
 3107TIP3    H130956   1.777   4.669   8.238  1.9316 -3.8636 -1.9508
 3107TIP3    H230957   1.867   4.743   8.141  0.5151  0.3946 -0.2469
 3108TIP3   OH230958   4.256   1.464   0.301 -0.0396  0.1869  0.1764
 3108TIP3    H130959   4.345   1.493   0.323  1.4713 -4.5328  1.4300
 3108TIP3    H230960   4.206   1.477   0.381  0.7187 -0.9461  0.8604
 3109TIP3   OH230961   2.384   3.821   1.626  0.1902 -0.1674  0.1531
 3109TIP3    H130962   2.450   3.839   1.693  0.1808 -0.8305  0.3421
 3109TIP3    H230963   2.301   3.843   1.668  0.1732 -0.7076  0.4054
 3110TIP3   OH230964   1.315   1.610   7.053 -0.0806 -0.0882 -0.4032
 3110TIP3    H130965   1.317   1.610   6.957  0.5308 -1.2586 -0.4174
 3110TIP3    H230966   1.254   1.679   7.076  1.0986  1.4191 -1.5992
 3111TIP3   OH230967   3.804   5.210   7.180  0.0906  0.1076 -0.1993
 3111TIP3    H130968   3.826   5.193   7.272  2.3592  0.5621 -0.5924
 3111TIP3    H230969   3.800   5.123   7.141  0.8967 -0.0325 -0.0047
 3112TIP3   OH230970   6.847   2.230   0.238  0.0100  0.3231  0.3792
 3112TIP3    H130971   6.814   2.237   0.149 -1.0230  1.1922  0.8002
 3112TIP3    H230972   6.925   2.285   0.240 -0.5368  1.1291  0.2453
 3113TIP3   OH230973   4.465   5.179   8.566  0.1037  0.0955  0.3359
 3113TIP3    H130974   4.513   5.226   8.498  1.1884 -1.1270  0.2050
 3113TIP3    H230975   4.533   5.153   8.629 -0.7114  0.1605  1.2666
 3114TIP3   OH230976   5.548   1.845   8.105 -0.3934 -0.1880  0.1557
 3114TIP3    H130977   5.548   1.919   8.167  2.5288  0.2603 -0.2654
 3114TIP3    H230978   5.506   1.881   8.027 -1.5866  0.1018  0.8938
 3115TIP3   OH230979   4.920   5.394   7.582  0.5940 -0.5158 -0.3442
 3115TIP3    H130980   4.826   5.392   7.562  0.1844  0.6565  1.2403
 3115TIP3    H230981   4.936   5.311   7.626  0.6803 -1.4416 -2.0811
 3116TIP3   OH230982   2.898   4.406   8.312  0.2606  0.6267 -0.2003
 3116TIP3    H130983   2.980   4.428   8.357 -0.0199  0.6224  0.3312
 3116TIP3    H230984   2.912   4.317   8.280  0.5848  0.7489 -0.4037
 3117TIP3   OH230985   4.767   5.305   1.767 -0.3658  0.5287  0.0384
 3117TIP3    H130986   4.793   5.213   1.764 -1.0355  0.3070  0.7697
 3117TIP3    H230987   4.849   5.354   1.765  0.0087 -0.0934  0.0795
 3118TIP3   OH230988   3.884   1.358   0.012 -0.1132  0.0388  0.6453
 3118TIP3    H130989   3.979   1.365   0.007  0.0630 -2.0179  0.0380
 3118TIP3    H230990   3.852   1.439  -0.027  1.3948  0.3959  0.0796
 3119TIP3   OH230991   4.138   6.637   0.205  0.2260 -0.3741  0.1121
 3119TIP3    H130992   4.090   6.630   0.288 -0.0154  0.1873  0.0247
 3119TIP3    H230993   4.189   6.718   0.213  0.1113 -0.2534 -0.3292
 3120TIP3   OH230994   5.454   4.356   0.441  0.2527  0.1798  0.0796
 3120TIP3    H130995   5.420   4.444   0.456  1.5783  0.7064  0.1117
 3120TIP3    H230996   5.436   4.338   0.349 -1.6034 -0.2550  0.4788
 3121TIP3   OH230997   6.421   0.004   0.809  0.5446  0.2762  0.0294
 3121TIP3    H130998   6.432   0.083   0.862 -0.4197 -0.0655  0.7717
 3121TIP3    H230999   6.459  -0.066   0.861  0.3177  0.0644 -0.0853
 3122TIP3   OH231000   1.040   1.891   0.194 -0.1611 -0.6232 -0.1935
 3122TIP3    H131001   0.966   1.897   0.134  0.9822 -0.9984 -1.6765
 3122TIP3    H231002   1.013   1.823   0.257 -0.9004 -1.0559 -0.9530
 3123TIP3   OH231003   2.125   0.372   7.548  0.1692  0.2304 -0.1919
 3123TIP3    H131004   2.196   0.433   7.530  1.4546 -1.1468  0.0136
 3123TIP3    H231005   2.164   0.304   7.602 -1.1658 -0.8535 -0.5145
 3124TIP3   OH231006   0.426   2.627   6.561  0.3242 -0.1452  0.2457
 3124TIP3    H131007   0.443   2.533   6.560  0.2403 -0.1924 -1.6562
 3124TIP3    H231008   0.513   2.666   6.551  0.5106  0.0677  2.2833
 3125TIP3   OH231009   4.417   0.638   0.570  0.1861 -0.0065  1.0834
 3125TIP3    H131010   4.362   0.619   0.493 -0.3007 -0.7743  1.6022
 3125TIP3    H231011   4.359   0.687   0.628  0.8226  1.3593  0.6119
 3126TIP3   OH231012   6.047   2.419   2.725  0.1416  0.0556  0.4663
 3126TIP3    H131013   5.982   2.379   2.667  0.2909 -0.0816  0.3923
 3126TIP3    H231014   6.096   2.479   2.669  1.7646 -1.7030 -0.1113
 3127TIP3   OH231015   5.576   5.606   7.507 -0.0116  0.3640  0.4789
 3127TIP3    H131016   5.522   5.685   7.513 -0.7753  0.0128 -1.3354
 3127TIP3    H231017   5.616   5.599   7.594 -2.2639  1.0763  1.6701
 3128TIP3   OH231018   0.253   0.300   8.391  0.3155  0.6430  0.3107
 3128TIP3    H131019   0.304   0.219   8.389 -0.7011 -0.0280 -1.8776
 3128TIP3    H231020   0.310   0.364   8.349  0.0438  0.3025 -0.6135
 3129TIP3   OH231021   4.949   2.338   0.116  0.0089  0.1247  0.3619
 3129TIP3    H131022   4.931   2.412   0.058  0.5110 -0.5444 -0.6795
 3129TIP3    H231023   4.919   2.261   0.066  2.7860 -0.7268 -0.1250
 3130TIP3   OH231024   3.869   4.766   0.777  0.3325  0.0914 -0.1355
 3130TIP3    H131025   3.946   4.709   0.783 -0.2345 -0.6956 -0.1787
 3130TIP3    H231026   3.847   4.786   0.868  0.8667  0.7191 -0.1345
 3131TIP3   OH231027   2.394   0.374   8.697  0.0074 -0.1146  0.1119
 3131TIP3    H131028   2.310   0.359   8.652  0.3966  2.0228 -1.5074
 3131TIP3    H231029   2.371   0.421   8.776 -0.7314 -4.2709  2.6648
 3132TIP3   OH231030   3.266   5.280   2.083 -0.3718 -0.1354 -0.6248
 3132TIP3    H131031   3.280   5.185   2.093  3.0760  0.2665 -0.3421
 3132TIP3    H231032   3.266   5.293   1.988  0.8833 -0.2807 -0.6658
 3133TIP3   OH231033   5.535   1.527   1.116 -0.4454 -0.2458  0.4111
 3133TIP3    H131034   5.619   1.482   1.110 -0.3684 -0.1260  0.5623
 3133TIP3    H231035   5.478   1.466   1.163 -0.6677 -0.6399 -0.3495
 3134TIP3   OH231036   1.223   0.281   7.093  0.5185 -0.0720 -0.2775
 3134TIP3    H131037   1.267   0.212   7.142 -0.0956  0.1922  0.6713
 3134TIP3    H231038   1.134   0.247   7.079  0.2435  0.4694  0.1062
 3135TIP3   OH231039   6.105   0.674   1.033 -0.5512  0.3217  0.0986
 3135TIP3    H131040   6.190   0.664   1.075 -1.3509 -0.8544  1.5543
 3135TIP3    H231041   6.079   0.764   1.052 -0.1563  0.3139  0.7066
 3136TIP3   OH231042   3.151   1.236   7.777 -0.1653 -0.0505  0.7602
 3136TIP3    H131043   3.224   1.175   7.761  2.9710  3.5138  0.0831
 3136TIP3    H231044   3.096   1.228   7.699 -1.0208 -3.2352  1.5210
 3137TIP3   OH231045   6.273   3.036   2.128 -0.0566 -0.1029  0.6663
 3137TIP3    H131046   6.337   2.980   2.084 -1.3630 -0.7229 -0.4979
 3137TIP3    H231047   6.326   3.106   2.166  1.3581 -0.8082  0.0800
 3138TIP3   OH231048   0.669   2.218   8.036  0.5427  0.3356  0.4781
 3138TIP3    H131049   0.589   2.268   8.016  0.5697  0.2642  0.1926
 3138TIP3    H231050   0.723   2.226   7.957  0.5986 -0.0486  0.4743
 3139TIP3   OH231051   5.111   1.943   8.702 -0.0820  0.5020 -0.1104
 3139TIP3    H131052   5.146   1.866   8.658  0.5376  0.7878 -0.1241
 3139TIP3    H231053   5.164   1.952   8.781 -0.5834  0.5296  0.2295
 3140TIP3   OH231054   4.507   0.415   7.534  0.8633  0.3508  0.2067
 3140TIP3    H131055   4.508   0.502   7.495  0.2460  0.6428  0.8433
 3140TIP3    H231056   4.592   0.408   7.577  0.3489  1.2153  1.4042
 3141TIP3   OH231057   0.646   6.143   7.547 -0.5669  0.1053 -0.1447
 3141TIP3    H131058   0.558   6.152   7.510 -0.5111 -0.8761 -0.5431
 3141TIP3    H231059   0.704   6.145   7.471 -0.4334 -1.6234 -0.1333
 3142TIP3   OH231060   5.847   0.756   7.115  0.6644  0.0167 -0.0662
 3142TIP3    H131061   5.754   0.759   7.093  0.2210 -0.8937  1.4729
 3142TIP3    H231062   5.884   0.835   7.075 -1.1034  1.2959  0.6781
 3143TIP3   OH231063   5.123   4.576   8.436 -0.0862 -0.1067 -0.0360
 3143TIP3    H131064   5.059   4.601   8.369 -0.6562 -1.0529  0.1303
 3143TIP3    H231065   5.122   4.480   8.435  0.0843 -0.1357  1.1355
 3144TIP3   OH231066   0.496   0.862   7.788 -0.3630  0.7483  0.0503
 3144TIP3    H131067   0.479   0.880   7.696 -0.7062 -0.0036 -0.0378
 3144TIP3    H231068   0.410   0.862   7.829 -0.2500  0.6365  0.2904
 3145TIP3   OH231069   1.721   3.747   0.354 -0.6048  0.1417  0.2021
 3145TIP3    H131070   1.804   3.769   0.311 -1.0969 -0.5833 -1.1742
 3145TIP3    H231071   1.733   3.657   0.384 -1.1293 -0.2250 -0.6504
 3146TIP3   OH231072   4.008   2.519   6.535 -0.5035  0.4204 -0.4230
 3146TIP3    H131073   4.022   2.588   6.601  0.6982  0.4757 -0.7259
 3146TIP3    H231074   3.919   2.487   6.553 -0.7598  1.4718  0.2567
 3147TIP3   OH231075   0.200   4.924   8.130  0.6196  0.2076 -0.5476
 3147TIP3    H131076   0.244   4.851   8.086  0.6385  1.0049 -1.8875
 3147TIP3    H231077   0.107   4.903   8.123  0.6464  0.0076 -0.3497
 3148TIP3   OH231078   4.669   6.784   2.501  0.2675  0.0005 -0.1094
 3148TIP3    H131079   4.733   6.713   2.497  0.2903  0.0427 -3.1285
 3148TIP3    H231080   4.722   6.863   2.513  0.7324 -0.0724 -1.5163
 3149TIP3   OH231081   4.979   0.402   0.638 -0.0763 -0.1737 -0.6001
 3149TIP3    H131082   4.999   0.485   0.681  2.2944 -0.7497 -0.4698
 3149TIP3    H231083   4.907   0.422   0.579 -0.5439  1.6170  0.5016
 3150TIP3   OH231084   3.501   1.567   7.768 -0.0590  0.2709  0.4256
 3150TIP3    H131085   3.446   1.502   7.814 -0.1590 -0.3234 -0.4944
 3150TIP3    H231086   3.586   1.560   7.811  0.6129 -2.1495 -1.0864
 3151TIP3   OH231087   0.630   4.936   2.740 -0.0160  0.2854 -0.2590
 3151TIP3    H131088   0.720   4.919   2.714 -0.0258  0.7363 -0.6017
 3151TIP3    H231089   0.576   4.883   2.681 -0.1248  2.6447 -2.4304
 3152TIP3   OH231090   6.059   0.026   1.873  0.0729 -0.2830  0.3467
 3152TIP3    H131091   6.010  -0.037   1.820 -0.5654  1.1849 -0.8630
 3152TIP3    H231092   6.147  -0.012   1.880 -0.1269 -1.0236 -0.8745
 3153TIP3   OH231093   6.115   4.254   8.276 -0.1340  0.3267  0.9517
 3153TIP3    H131094   6.208   4.267   8.293  0.0695 -1.0679  0.9914
 3153TIP3    H231095   6.073   4.332   8.312  1.0668  1.3281  0.2985
 3154TIP3   OH231096   0.672   3.567   2.297  0.4479 -0.0293 -0.4077
 3154TIP3    H131097   0.662   3.530   2.385 -0.0214 -3.5732 -1.7985
 3154TIP3    H231098   0.766   3.567   2.281  0.4900  0.0055 -0.1622
 3155TIP3   OH231099   6.769   2.174   0.934 -0.0363  0.1848  0.4003
 3155TIP3    H131100   6.691   2.133   0.898 -0.9212  0.3524  2.0145
 3155TIP3    H231101   6.761   2.266   0.911  1.4591 -0.2495 -2.3687
 3156TIP3   OH231102   1.011   2.126   1.536  0.2575 -0.4014 -0.2767
 3156TIP3    H131103   1.019   2.046   1.485 -0.1665  0.9435 -2.6204
 3156TIP3    H231104   0.917   2.145   1.535  0.4644  0.7015 -0.8038
 3157TIP3   OH231105   6.778   3.834   6.548  0.2377 -0.0499 -0.2246
 3157TIP3    H131106   6.862   3.872   6.575  1.0352 -1.5862 -0.4217
 3157TIP3    H231107   6.802   3.755   6.500 -1.3059 -2.7426  2.9596
 3158TIP3   OH231108   3.208   5.503   0.519  0.2341  0.0734 -0.4190
 3158TIP3    H131109   3.127   5.477   0.561 -0.0045  0.3538 -0.7014
 3158TIP3    H231110   3.248   5.421   0.490 -0.0943 -0.0405 -0.5468
 3159TIP3   OH231111   6.107   4.426   6.426 -0.9673 -0.5881 -0.4820
 3159TIP3    H131112   6.013   4.418   6.411 -1.5085 -1.1143  2.5166
 3159TIP3    H231113   6.121   4.521   6.434 -2.1613 -0.5383  3.0656
 3160TIP3   OH231114   0.550   4.706   7.939 -0.3150 -0.0082  0.1459
 3160TIP3    H131115   0.455   4.702   7.939 -0.3020 -0.4514  0.8791
 3160TIP3    H231116   0.576   4.670   8.023  0.4299  2.0475  0.8657
 3161TIP3   OH231117   6.494   5.958   0.599  0.0969 -0.1920  0.2361
 3161TIP3    H131118   6.432   5.963   0.526  0.3812 -0.9040 -0.0572
 3161TIP3    H231119   6.439   5.957   0.677 -0.2367 -0.2041  0.0032
 3162TIP3   OH231120   1.300   4.163   1.521  0.4862  0.2744 -0.3530
 3162TIP3    H131121   1.332   4.163   1.611 -1.6605 -1.1119  0.5035
 3162TIP3    H231122   1.261   4.250   1.510  2.5626  1.2210 -0.7263
 3163TIP3   OH231123   5.143   6.762   8.333  0.0249 -0.3213 -0.4872
 3163TIP3    H131124   5.056   6.724   8.322 -1.0661  1.9310 -0.1189
 3163TIP3    H231125   5.183   6.755   8.246  0.5474 -3.6389 -0.1193
 3164TIP3   OH231126   4.057   1.989   1.033 -0.4121  0.1244  0.4469
 3164TIP3    H131127   4.098   2.073   1.013 -0.7715 -0.1593 -1.6896
 3164TIP3    H231128   4.123   1.941   1.084  0.0780  1.3901  1.0441
 3165TIP3   OH231129   6.403   0.772   7.905  0.2884  0.2119  0.7741
 3165TIP3    H131130   6.322   0.727   7.931  0.2880 -0.0385  0.3427
 3165TIP3    H231131   6.427   0.732   7.822  1.9864 -1.1883  1.8690
 3166TIP3   OH231132   1.052   4.323   8.311 -0.4580 -0.2671 -0.6946
 3166TIP3    H131133   1.038   4.417   8.306 -1.1302 -0.3686 -0.7782
 3166TIP3    H231134   1.076   4.307   8.402 -0.7075 -0.0667 -0.5949
 3167TIP3   OH231135   5.345   5.960   0.783  0.0678 -0.2370  0.1579
 3167TIP3    H131136   5.367   5.972   0.691  0.7598  1.5421  0.5091
 3167TIP3    H231137   5.429   5.943   0.826 -0.3063 -1.5150  0.4218
 3168TIP3   OH231138   0.823   4.156   0.825  0.6072  0.2426 -0.5812
 3168TIP3    H131139   0.902   4.107   0.803 -0.2322 -2.0792  1.1775
 3168TIP3    H231140   0.823   4.161   0.920 -1.7980 -0.6616 -0.4549
 3169TIP3   OH231141   1.925   4.421   1.480 -0.0709 -0.1726 -0.2023
 3169TIP3    H131142   1.881   4.478   1.543  0.2934  0.9101 -0.9080
 3169TIP3    H231143   1.985   4.369   1.533  0.5407  1.0196  0.3265
 3170TIP3   OH231144   6.227   6.423   1.159  0.1637 -0.6334 -0.2157
 3170TIP3    H131145   6.222   6.330   1.139  0.7168 -0.6173 -0.4432
 3170TIP3    H231146   6.139   6.456   1.143 -0.7262 -1.5868  2.2932
 3171TIP3   OH231147   3.515   1.289   0.833 -0.0030  0.2403  0.2816
 3171TIP3    H131148   3.430   1.304   0.876 -0.5348  0.9629 -0.9668
 3171TIP3    H231149   3.524   1.363   0.773  0.4351 -1.0278 -1.2618
 3172TIP3   OH231150   5.997   5.623   7.485 -0.2927 -0.2432 -0.4944
 3172TIP3    H131151   5.913   5.642   7.527  0.0412 -0.4380  0.2826
 3172TIP3    H231152   5.988   5.658   7.397 -0.7285  0.9002 -0.0140
 3173TIP3   OH231153   0.747   4.576   1.659 -0.0013  0.6521  0.0167
 3173TIP3    H131154   0.803   4.529   1.598 -0.4360  0.9732 -0.6430
 3173TIP3    H231155   0.772   4.668   1.650  0.9582  0.5551  1.4227
 3174TIP3   OH231156   3.728   6.237   0.907  0.3047  0.7377  0.2846
 3174TIP3    H131157   3.740   6.318   0.857 -1.2710  0.3665 -0.7367
 3174TIP3    H231158   3.808   6.187   0.889  1.7933  2.4529  1.7769
 3175TIP3   OH231159   4.443   6.207   7.763 -0.0276  0.2867  0.0023
 3175TIP3    H131160   4.462   6.295   7.795 -0.8800  0.8873 -1.0795
 3175TIP3    H231161   4.350   6.210   7.739 -0.4785 -1.3519  1.3414
 3176TIP3   OH231162   1.966   6.353   0.602 -0.3775 -0.0348  0.0448
 3176TIP3    H131163   1.897   6.419   0.612  0.2388  1.0974 -2.3275
 3176TIP3    H231164   1.934   6.296   0.532  0.5180 -0.2927 -0.1658
 3177TIP3   OH231165   1.435   0.730   7.598  0.1097 -0.2918  0.4316
 3177TIP3    H131166   1.498   0.681   7.546 -0.0194 -0.4420  0.4167
 3177TIP3    H231167   1.466   0.821   7.593 -0.6515 -0.0774 -1.0474
 3178TIP3   OH231168   3.118   6.495   1.138  0.4402 -0.4870 -0.3318
 3178TIP3    H131169   3.054   6.535   1.079 -0.4134 -1.3801 -0.0310
 3178TIP3    H231170   3.182   6.564   1.155  1.0261 -0.3435 -2.7489
 3179TIP3   OH231171   0.206   4.102   0.599  0.4726 -0.5094  0.0636
 3179TIP3    H131172   0.160   4.184   0.620  1.5505  0.1397 -0.0302
 3179TIP3    H231173   0.229   4.111   0.506 -0.6849 -1.5764 -0.3477
 3180TIP3   OH231174   3.614   6.776   1.015  0.3306  0.6886  0.0642
 3180TIP3    H131175   3.608   6.710   1.085 -1.1404  1.8860  1.1570
 3180TIP3    H231176   3.642   6.856   1.060  1.3045  1.0250 -1.0923
 3181TIP3   OH231177   3.990   4.019   8.528 -0.4849 -0.2914 -0.6123
 3181TIP3    H131178   3.933   3.982   8.595  1.1458  1.2998  1.8147
 3181TIP3    H231179   4.041   4.085   8.574  1.9952 -0.3164 -3.0707
 3182TIP3   OH231180   1.080   0.731   2.620  0.1154 -0.0835  0.6245
 3182TIP3    H131181   1.035   0.727   2.704 -0.7618 -0.0485  0.1603
 3182TIP3    H231182   1.089   0.825   2.602 -2.1185 -0.0470 -0.5819
 3183TIP3   OH231183   2.322   3.209   1.519  0.1853  0.0656 -0.4219
 3183TIP3    H131184   2.302   3.273   1.450 -0.0513  0.9577  0.4450
 3183TIP3    H231185   2.416   3.215   1.532  0.3442 -0.6288 -1.1467
 3184TIP3   OH231186   0.893   2.290   7.857  0.2719 -0.1225 -0.1763
 3184TIP3    H131187   0.952   2.290   7.781 -0.7665 -1.0894 -1.0072
 3184TIP3    H231188   0.856   2.378   7.858 -0.0192 -0.2310 -1.0435
 3185TIP3   OH231189   6.602   1.908   1.605  0.5552 -0.5199 -0.1374
 3185TIP3    H131190   6.680   1.923   1.659  1.3955 -1.9047 -0.8999
 3185TIP3    H231191   6.529   1.934   1.661  1.5887  2.2795  0.0742
 3186TIP3   OH231192   1.212   1.832   1.197 -0.0265 -0.2143  0.4497
 3186TIP3    H131193   1.235   1.892   1.126 -0.0095  0.0542  0.6816
 3186TIP3    H231194   1.123   1.805   1.177 -0.6096  1.0820  1.1574
 3187TIP3   OH231195   5.216   2.711   7.398 -0.0917 -0.3536 -0.1043
 3187TIP3    H131196   5.132   2.665   7.397 -0.9521  1.1587 -0.3670
 3187TIP3    H231197   5.259   2.683   7.317 -0.2136 -1.3390  0.1592
 3188TIP3   OH231198   6.841   6.636   8.554 -0.1881 -0.5812 -0.4111
 3188TIP3    H131199   6.911   6.659   8.494 -0.9520  0.5989 -0.9036
 3188TIP3    H231200   6.838   6.709   8.617 -0.7170 -0.7926 -0.1786
 3189TIP3   OH231201   3.924   5.430   1.658  0.0022  0.4614 -0.2316
 3189TIP3    H131202   3.918   5.338   1.680  0.9833  1.0281  2.9239
 3189TIP3    H231203   4.018   5.446   1.647 -0.0911  1.1851 -0.0488
 3190TIP3   OH231204   0.770   6.218   6.680 -0.3592  0.1325 -0.3416
 3190TIP3    H131205   0.740   6.154   6.615 -0.3560  0.3020 -0.5092
 3190TIP3    H231206   0.705   6.288   6.676  0.4391  0.8488 -1.2229
 3191TIP3   OH231207   1.488   4.200   0.169 -0.4198  0.1212  0.6353
 3191TIP3    H131208   1.442   4.224   0.250 -0.2387  0.1698  0.7257
 3191TIP3    H231209   1.518   4.111   0.184  1.3315  0.7774  1.4331
 3192TIP3   OH231210   0.145   4.991   1.303 -0.1600  0.0798 -0.5963
 3192TIP3    H131211   0.196   5.041   1.367  0.1842 -2.2545  1.0964
 3192TIP3    H231212   0.054   5.013   1.321 -0.0086  0.1531  0.0947
 3193TIP3   OH231213   0.021   3.912   0.817 -0.2924  0.1963 -0.0237
 3193TIP3    H131214   0.061   3.866   0.891  0.7678  2.0380  0.5991
 3193TIP3    H231215   0.083   3.901   0.745  0.2829  1.1687  0.3109
 3194TIP3   OH231216   1.968   3.751   0.179  0.3542 -0.2747 -0.4269
 3194TIP3    H131217   1.991   3.696   0.103 -1.0573 -0.7390 -0.5531
 3194TIP3    H231218   1.978   3.840   0.147  1.5696 -0.4366 -0.5729
 3195TIP3   OH231219   2.375   6.565   0.375 -0.0448  0.1718  0.1308
 3195TIP3    H131220   2.379   6.506   0.451 -0.6867  0.0330  0.0604
 3195TIP3    H231221   2.465   6.571   0.345  0.7369  2.2785  2.4672
 3196TIP3   OH231222   6.636   1.019   2.288  1.0356  0.2727  0.6392
 3196TIP3    H131223   6.637   1.107   2.251  1.2578  0.6006  1.4166
 3196TIP3    H231224   6.587   1.028   2.370 -0.3345 -0.6427 -0.0377
 3197TIP3   OH231225   2.373   5.768   7.577  0.2854 -0.3586 -0.0251
 3197TIP3    H131226   2.394   5.726   7.660  0.8111  0.0185  0.0413
 3197TIP3    H231227   2.303   5.715   7.539 -0.6406  0.0234  1.0956
 3198TIP3   OH231228   3.595   5.190   7.901 -0.6932 -0.4300 -0.5721
 3198TIP3    H131229   3.510   5.185   7.857 -0.9256  2.0459 -0.5742
 3198TIP3    H231230   3.649   5.242   7.842 -0.2969  0.9873  0.9512
 3199TIP3   OH231231   1.859   4.724   7.755 -0.4526 -0.2784 -0.3324
 3199TIP3    H131232   1.813   4.801   7.722  1.8426  2.1026  1.6335
 3199TIP3    H231233   1.933   4.714   7.696 -1.4370 -1.9291 -1.3806
 3200TIP3   OH231234   1.224   5.889   2.025  0.5422  0.7214  0.4379
 3200TIP3    H131235   1.286   5.933   1.967  1.7696  0.2100  1.3392
 3200TIP3    H231236   1.221   5.944   2.103  1.2846 -0.2100  1.1429
 3201TIP3   OH231237   5.882   4.349   1.198  0.4959 -0.2422 -0.9715
 3201TIP3    H131238   5.861   4.350   1.291 -1.5649  0.0307 -1.3835
 3201TIP3    H231239   5.857   4.261   1.169 -0.3518  0.1742 -1.5419
 3202TIP3   OH231240   0.379   5.960   6.481  0.0845  1.4980 -0.4331
 3202TIP3    H131241   0.366   6.041   6.433  3.0702  1.9188 -0.7181
 3202TIP3    H231242   0.369   5.891   6.414 -0.2060  1.7649 -0.6694
 3203TIP3   OH231243   4.912   0.431   8.278 -0.0211 -0.3569 -0.0156
 3203TIP3    H131244   4.959   0.352   8.309 -0.3362 -0.3433  0.5150
 3203TIP3    H231245   4.964   0.462   8.204  1.2520  0.0922  1.0278
 3204TIP3   OH231246   5.695   6.014   8.650  0.9313  0.6948 -0.4776
 3204TIP3    H131247   5.637   5.951   8.693  0.8231  0.7212 -0.5857
 3204TIP3    H231248   5.668   6.099   8.686  0.1852  0.8262 -1.3178
 3205TIP3   OH231249   0.333   5.767   1.763  0.1701  0.0062 -0.1637
 3205TIP3    H131250   0.344   5.681   1.805 -0.7818  1.1470  2.7067
 3205TIP3    H231251   0.238   5.774   1.749  0.1317  0.9290  0.4960
 3206TIP3   OH231252   6.616   5.771   7.506  0.2025 -0.3915 -0.1504
 3206TIP3    H131253   6.609   5.682   7.542  0.0190 -0.2074  0.2761
 3206TIP3    H231254   6.591   5.761   7.414 -0.1833 -0.7214 -0.0172
 3207TIP3   OH231255   2.228   5.946   0.297  0.5614 -0.2125 -0.4422
 3207TIP3    H131256   2.178   5.865   0.296  1.1078 -0.5519 -0.5433
 3207TIP3    H231257   2.181   6.004   0.237  1.0157 -0.9767 -1.5616
 3208TIP3   OH231258   5.087   0.094   1.268  0.0113  0.1290  0.3238
 3208TIP3    H131259   5.059   0.013   1.310  0.6396 -0.4077 -0.2568
 3208TIP3    H231260   5.183   0.093   1.277 -0.0349  1.2938  1.1657
 3209TIP3   OH231261   6.318   1.164   0.125  0.0116  0.7682 -0.2852
 3209TIP3    H131262   6.286   1.103   0.057  0.0344  1.9173 -1.3740
 3209TIP3    H231263   6.325   1.111   0.204 -0.4680 -0.5172 -1.0753
 3210TIP3   OH231264   0.999   5.819   7.771  0.5339  0.1679  0.0511
 3210TIP3    H131265   1.018   5.735   7.730 -0.7276 -0.5672  0.9466
 3210TIP3    H231266   0.994   5.880   7.697 -0.2144 -0.8517 -0.7652
 3211TIP3   OH231267   3.747   5.473   7.091  0.0825  0.3047 -1.2178
 3211TIP3    H131268   3.823   5.518   7.053  2.2903  0.1141  2.4718
 3211TIP3    H231269   3.779   5.385   7.113  0.0170  1.1314  3.1982
 3212TIP3   OH231270   0.917   6.033   7.612  0.5769  0.1144  0.3507
 3212TIP3    H131271   0.849   6.011   7.549  1.1021 -1.8663  0.4026
 3212TIP3    H231272   0.892   6.119   7.645 -1.5394 -0.2616 -0.1021
 3213TIP3   OH231273   5.686   2.426   7.149  0.9045 -0.3760 -0.0436
 3213TIP3    H131274   5.673   2.448   7.241 -1.0702  2.0606 -0.7879
 3213TIP3    H231275   5.597   2.413   7.115  1.3624  1.4500 -2.1404
 3214TIP3   OH231276   2.368   5.631   1.130 -0.3948  0.0423 -0.3812
 3214TIP3    H131277   2.341   5.679   1.052 -1.0969  1.0264  0.4251
 3214TIP3    H231278   2.303   5.561   1.139  0.7405 -1.2323 -1.6683
 3215TIP3   OH231279   0.659   3.743   0.470 -0.6259 -0.5093  0.0386
 3215TIP3    H131280   0.650   3.777   0.559 -0.6285 -1.4589  0.4184
 3215TIP3    H231281   0.571   3.749   0.433 -0.6115 -0.0552  0.0757
 3216TIP3   OH231282   5.631   2.022   1.673  0.5833  0.5569  0.1096
 3216TIP3    H131283   5.683   2.080   1.618  0.0295  0.8267 -0.1417
 3216TIP3    H231284   5.554   2.001   1.620 -0.4010  1.5230  1.0748
 3217TIP3   OH231285   4.593   6.287   1.100  0.2236 -0.3986 -0.0931
 3217TIP3    H131286   4.568   6.357   1.160  0.8249 -0.0324 -0.2590
 3217TIP3    H231287   4.685   6.269   1.120  0.2346 -0.7506 -0.4347
 3218TIP3   OH231288   3.682   2.233   7.182 -0.5984  0.2491 -0.3330
 3218TIP3    H131289   3.677   2.239   7.277  0.1159  0.7153 -0.3220
 3218TIP3    H231290   3.766   2.191   7.164  0.6545  2.7804 -0.8205
 3219TIP3   OH231291   5.608   5.774   1.387  0.2058  0.1273  0.1545
 3219TIP3    H131292   5.589   5.803   1.298 -1.2438 -1.2162 -0.0271
 3219TIP3    H231293   5.700   5.749   1.385  0.6076  1.5701 -0.5342
 3220TIP3   OH231294   2.448   2.578   8.125 -0.1250 -0.5517 -0.0274
 3220TIP3    H131295   2.369   2.601   8.075 -0.2899  0.1567  0.5476
 3220TIP3    H231296   2.485   2.503   8.078 -1.4450 -1.2540  0.0061
 3221TIP3   OH231297   3.958   2.642   8.118  0.3619 -0.0060 -0.0940
 3221TIP3    H131298   3.957   2.737   8.116 -0.7802  0.2454  4.1657
 3221TIP3    H231299   4.041   2.619   8.160 -0.5840 -0.6474  1.5346
 3222TIP3   OH231300   0.047   5.474   0.254  0.3863 -0.1967 -0.4103
 3222TIP3    H131301   0.093   5.556   0.275 -0.7522  0.0867  1.0778
 3222TIP3    H231302  -0.017   5.500   0.188  0.3064  0.0236 -0.2475
 3223TIP3   OH231303   2.400   2.305   7.040  0.0564  0.8147 -0.2341
 3223TIP3    H131304   2.356   2.351   7.111 -1.0309  2.0872 -1.6531
 3223TIP3    H231305   2.491   2.336   7.044 -0.1640  1.4202  0.1659
 3224TIP3   OH231306   3.044   2.600   1.101  0.2810 -0.2005 -0.2369
 3224TIP3    H131307   3.140   2.601   1.099  0.2787 -0.0030 -1.9602
 3224TIP3    H231308   3.021   2.509   1.080  0.0747 -0.5122  1.2616
 3225TIP3   OH231309   5.616   2.286   0.761  0.0172 -0.0813  0.2844
 3225TIP3    H131310   5.685   2.223   0.740  1.5686  0.6456  2.8414
 3225TIP3    H231311   5.657   2.372   0.750 -1.2038  0.4623 -0.3301
 3226TIP3   OH231312   4.127   2.510   0.808 -0.2151 -0.9907  1.1025
 3226TIP3    H131313   4.139   2.462   0.726  0.4108 -0.1096  0.6597
 3226TIP3    H231314   4.100   2.443   0.871 -0.1197 -1.7840  0.3260
 3227TIP3   OH231315   4.734   6.003   7.841  0.6364 -0.0931 -0.0810
 3227TIP3    H131316   4.688   6.062   7.902  0.1473 -1.9468  1.4485
 3227TIP3    H231317   4.678   5.926   7.836  2.4330 -1.4608 -0.0481
 3228TIP3   OH231318   4.670   1.774   1.176 -0.1335 -0.1000  0.3478
 3228TIP3    H131319   4.678   1.867   1.155 -1.1270  0.1049  0.8248
 3228TIP3    H231320   4.598   1.770   1.239 -0.7887 -1.3125 -0.4438
 3229TIP3   OH231321   3.098   4.724   7.855 -0.0854 -0.3969 -0.6170
 3229TIP3    H131322   3.189   4.693   7.853 -0.2005 -0.9166  0.9046
 3229TIP3    H231323   3.098   4.796   7.917 -0.5277  0.3369 -1.4365
 3230TIP3   OH231324   5.332   2.254   7.533  0.0100 -0.0575 -0.3002
 3230TIP3    H131325   5.237   2.248   7.537 -0.0947  1.9357  1.4758
 3230TIP3    H231326   5.362   2.233   7.622  1.1146  0.7803 -0.4468
 3231TIP3   OH231327   0.432   4.270   0.061  0.2371 -0.4188 -0.0222
 3231TIP3    H131328   0.445   4.213  -0.016  0.9866  1.2809 -1.2255
 3231TIP3    H231329   0.512   4.259   0.112  0.8850  0.3499 -0.8322
 3232TIP3   OH231330   2.149   4.095   2.124 -0.8213 -0.0315 -0.0007
 3232TIP3    H131331   2.204   4.027   2.086 -2.1759 -0.3173 -1.5262
 3232TIP3    H231332   2.173   4.095   2.217  2.1353  0.2714 -0.6542
 3233TIP3   OH231333   0.093   2.225   7.086  0.7066 -0.2372 -0.2059
 3233TIP3    H131334   0.163   2.162   7.067 -0.9742 -2.1139 -0.4967
 3233TIP3    H231335   0.012   2.177   7.070 -0.6979  1.5466  1.0555
 3234TIP3   OH231336   4.373   1.143   7.036 -1.0225 -0.3245 -0.0813
 3234TIP3    H131337   4.287   1.184   7.030 -0.7339  0.1208 -1.4182
 3234TIP3    H231338   4.417   1.192   7.106 -1.6463 -0.1712  0.2115
 3235TIP3   OH231339   3.106   4.963   1.456  0.7063 -0.0658 -0.1824
 3235TIP3    H131340   3.104   5.029   1.388 -0.3620 -0.0601 -0.1565
 3235TIP3    H231341   3.057   4.889   1.420  1.0020 -0.4518  0.1888
 3236TIP3   OH231342   0.187   5.820   6.791 -0.6511 -0.3666 -0.1665
 3236TIP3    H131343   0.105   5.869   6.784 -1.5811 -1.7244  0.8416
 3236TIP3    H231344   0.197   5.805   6.885  0.1739 -1.1942 -0.3807
 3237TIP3   OH231345   1.327   6.658   1.292 -0.3344 -0.0456 -0.4690
 3237TIP3    H131346   1.244   6.704   1.276 -0.9941 -0.3375  1.7194
 3237TIP3    H231347   1.384   6.724   1.331 -0.4710 -0.4849  0.4927
 3238TIP3   OH231348   4.519   3.838   8.418  0.1949  0.1159 -0.4311
 3238TIP3    H131349   4.479   3.882   8.344  1.1590  1.8222 -0.0007
 3238TIP3    H231350   4.490   3.888   8.495  0.7800 -0.3936  0.1386
 3239TIP3   OH231351   2.366   0.086   0.996  0.6122  0.4448  0.0075
 3239TIP3    H131352   2.325   0.150   1.055  0.0382  0.7168 -0.6638
 3239TIP3    H231353   2.381   0.135   0.915  1.3362  0.0612 -0.0961
 3240TIP3   OH231354   6.695   5.417   6.909  0.5924  0.2130  0.5747
 3240TIP3    H131355   6.768   5.468   6.944  1.6787 -0.5116 -0.5310
 3240TIP3    H231356   6.631   5.482   6.882  1.2147  0.9138  0.7472
 3241TIP3   OH231357   1.727   6.134   6.922  0.4201  0.7466  0.1337
 3241TIP3    H131358   1.762   6.220   6.898 -0.0155  1.2088  1.1122
 3241TIP3    H231359   1.646   6.126   6.871  0.0916  1.2253  0.5765
 3242TIP3   OH231360   4.793   1.030   0.775 -0.4278  0.0272  0.2849
 3242TIP3    H131361   4.726   0.975   0.734 -1.3209  1.8237 -0.7826
 3242TIP3    H231362   4.750   1.066   0.852  0.7634 -2.1343  2.0960
 3243TIP3   OH231363   4.131   0.349   7.004  0.3289  0.3369  0.6354
 3243TIP3    H131364   4.135   0.326   6.912  0.1810 -0.6032  0.8575
 3243TIP3    H231365   4.111   0.267   7.049 -0.2903  0.9111  1.4404
 3244TIP3   OH231366   0.037   3.524   6.681 -0.5579 -0.1067 -0.0049
 3244TIP3    H131367   0.093   3.599   6.701 -0.1593 -0.0212 -1.3347
 3244TIP3    H231368   0.063   3.457   6.744 -0.2167  0.5364  0.5463
 3245TIP3   OH231369   1.530   3.007   0.509 -0.2912 -0.5443 -0.3477
 3245TIP3    H131370   1.476   3.035   0.435  0.3351  0.1371 -0.5580
 3245TIP3    H231371   1.619   3.009   0.475  0.1046  0.7227  0.7000
 3246TIP3   OH231372   1.879   0.468   8.086 -0.0367  0.1816  0.3086
 3246TIP3    H131373   1.789   0.497   8.068 -0.1162 -0.1700  0.1240
 3246TIP3    H231374   1.903   0.418   8.008 -0.7421 -2.2213  1.5582
 3247TIP3   OH231375   6.052   2.529   1.886 -0.0866  0.4352 -0.5775
 3247TIP3    H131376   5.971   2.571   1.855 -0.3553 -0.6124 -1.3852
 3247TIP3    H231377   6.116   2.548   1.818 -0.1806 -0.3219 -0.8974
 3248TIP3   OH231378   0.170   6.750   0.694  0.8866  0.2927 -0.4757
 3248TIP3    H131379   0.191   6.666   0.653  0.4861  0.4232 -0.9434
 3248TIP3    H231380   0.111   6.793   0.633  2.5880  1.7582 -1.1905
 3249TIP3   OH231381   5.478   0.568   0.450 -0.3219  0.5979  0.1743
 3249TIP3    H131382   5.476   0.553   0.356  1.0904  0.5946  0.1218
 3249TIP3    H231383   5.459   0.483   0.489 -0.7816  0.5732 -0.0999
 3250TIP3   OH231384   0.533   5.820   0.212 -0.2030 -0.0277 -0.4131
 3250TIP3    H131385   0.516   5.726   0.214 -0.9908  0.0389 -2.3345
 3250TIP3    H231386   0.517   5.846   0.121 -0.5783  2.0751  0.2010
 3251TIP3   OH231387   6.576   1.908   7.586 -0.6271  0.2182 -0.2460
 3251TIP3    H131388   6.592   1.911   7.492 -1.6528  2.8974 -0.4389
 3251TIP3    H231389   6.663   1.917   7.625  0.0250 -2.6435 -0.7976
 3252TIP3   OH231390   4.566   3.115   0.679 -0.7536 -0.3749 -0.7062
 3252TIP3    H131391   4.528   3.203   0.686 -0.7128 -0.4831  1.5885
 3252TIP3    H231392   4.579   3.102   0.585 -1.1450  1.9001 -1.1333
 3253TIP3   OH231393   6.555   1.203   8.340  0.5023  0.0024 -0.6851
 3253TIP3    H131394   6.519   1.216   8.252  0.7158 -2.3170 -1.1840
 3253TIP3    H231395   6.500   1.135   8.379  0.9596  0.3669  0.6561
 3254TIP3   OH231396   5.371   3.464   1.657  0.5469 -0.1475 -0.1659
 3254TIP3    H131397   5.289   3.423   1.631  1.1103 -0.0130 -2.3248
 3254TIP3    H231398   5.346   3.550   1.691 -0.1696  0.1559 -1.4157
 3255TIP3   OH231399   5.195   0.554   0.315 -0.3030  0.3153 -0.0051
 3255TIP3    H131400   5.240   0.635   0.338  0.2784 -0.6407  2.5802
 3255TIP3    H231401   5.103   0.579   0.305 -0.0478  1.3740  0.2057
 3256TIP3   OH231402   1.807   5.157   1.006 -0.3439 -0.1855 -0.0601
 3256TIP3    H131403   1.738   5.209   0.965 -1.1312 -0.5079  0.8025
 3256TIP3    H231404   1.845   5.107   0.934 -0.7375  0.3092 -0.6200
 3257TIP3   OH231405   2.378   1.354   1.098 -0.0954 -0.1485  0.9380
 3257TIP3    H131406   2.304   1.370   1.156  0.5487  0.3264  1.6351
 3257TIP3    H231407   2.438   1.300   1.149  0.0806 -0.4719  0.3999
 3258TIP3   OH231408   6.549   2.389   6.905 -0.2398  0.6186 -0.5084
 3258TIP3    H131409   6.466   2.343   6.896  0.9021 -1.1706 -4.2802
 3258TIP3    H231410   6.555   2.443   6.827  0.7013  3.5381  1.4187
 3259TIP3   OH231411   5.244   1.617   0.873 -0.4456 -0.6512  0.2077
 3259TIP3    H131412   5.226   1.559   0.947  0.8359  1.3723  2.2502
 3259TIP3    H231413   5.158   1.650   0.847 -0.8385 -0.3059  1.8094
 3260TIP3   OH231414   4.320   6.386   0.422  0.3696 -0.6857 -1.1242
 3260TIP3    H131415   4.405   6.423   0.447  0.6744 -1.4592 -0.9763
 3260TIP3    H231416   4.258   6.458   0.432  1.1923  0.2430 -2.4264
 3261TIP3   OH231417   6.556   5.113   8.088  0.1241 -0.6126 -0.0098
 3261TIP3    H131418   6.463   5.100   8.067  0.4932  0.0834 -2.3710
 3261TIP3    H231419   6.562   5.206   8.111  0.2354 -0.6475  0.1010
 3262TIP3   OH231420   4.479   6.017   0.633 -0.0834 -0.1223  0.3498
 3262TIP3    H131421   4.439   6.017   0.720 -0.3758 -1.7990  0.2630
 3262TIP3    H231422   4.405   6.014   0.573  0.0655 -2.3808  0.1706
 3263TIP3   OH231423   5.992   4.265   1.734  0.1779  0.3809 -0.3205
 3263TIP3    H131424   6.052   4.190   1.729  0.5284  0.6870 -0.7816
 3263TIP3    H231425   5.999   4.295   1.825  1.8900  1.3363 -0.7255
 3264TIP3   OH231426   4.456   5.334   1.725  0.0629 -0.5017 -1.0797
 3264TIP3    H131427   4.520   5.305   1.659  1.2063 -2.2698  0.7195
 3264TIP3    H231428   4.510   5.362   1.799 -1.1692 -2.8584  0.8321
 3265TIP3   OH231429   4.129   4.228   1.331 -0.3206 -0.3081 -0.3470
 3265TIP3    H131430   4.083   4.148   1.356 -2.4695  0.2770 -2.0866
 3265TIP3    H231431   4.104   4.243   1.240  1.8780  1.1304 -0.8003
 3266TIP3   OH231432   4.878   0.705   7.501 -0.0334  0.3246  0.0484
 3266TIP3    H131433   4.970   0.730   7.499  0.1316 -0.1384  1.1530
 3266TIP3    H231434   4.833   0.779   7.460  0.8943  0.1567 -1.3243
 3267TIP3   OH231435   0.302   4.577   0.401 -0.1671 -0.0463  0.4280
 3267TIP3    H131436   0.214   4.584   0.363 -0.4813  3.0784  1.4321
 3267TIP3    H231437   0.355   4.638   0.351  0.2562  1.4901  2.5693
 3268TIP3   OH231438   1.497   5.667   0.214 -0.5641  0.1061 -0.2314
 3268TIP3    H131439   1.496   5.652   0.309  0.9359  0.1705 -0.1887
 3268TIP3    H231440   1.585   5.699   0.196 -2.0058  4.1395 -1.0610
 3269TIP3   OH231441   5.210   6.473   1.683 -0.4402  0.1197 -0.1388
 3269TIP3    H131442   5.276   6.417   1.642 -1.3436 -0.9070 -0.2333
 3269TIP3    H231443   5.259   6.551   1.711  0.6385 -0.2248 -0.9893
 3270TIP3   OH231444   1.395   2.964   1.860 -0.0004  0.4397  0.2640
 3270TIP3    H131445   1.395   3.059   1.848 -0.6704  0.4641  0.4333
 3270TIP3    H231446   1.402   2.951   1.954 -4.3664  0.4351  0.7545
 3271TIP3   OH231447   4.049   4.284   0.725 -0.2803  0.3977 -0.6936
 3271TIP3    H131448   3.970   4.313   0.772 -0.0867  0.2917 -0.3040
 3271TIP3    H231449   4.069   4.357   0.666  2.7954  3.2337  3.3043
 3272TIP3   OH231450   1.167   2.265   1.887 -0.3852  0.0016  0.3739
 3272TIP3    H131451   1.151   2.207   1.962 -0.1437  0.9122  1.1594
 3272TIP3    H231452   1.251   2.236   1.851 -1.3285 -1.5849 -0.6730
 3273TIP3   OH231453   1.674   2.507   2.240 -0.5923 -0.7890 -0.0010
 3273TIP3    H131454   1.702   2.596   2.219 -2.7933 -0.3314 -1.3167
 3273TIP3    H231455   1.728   2.451   2.184  2.4295 -0.5819  2.4409
 3274TIP3   OH231456   4.368   1.240   0.715 -0.8145 -0.3332  0.2089
 3274TIP3    H131457   4.432   1.285   0.660  0.5053 -2.1540  0.1491
 3274TIP3    H231458   4.284   1.258   0.673 -0.3973  2.0909  0.2591
 3275TIP3   OH231459   5.477   4.790   7.136  0.0387  0.2832 -0.2454
 3275TIP3    H131460   5.428   4.850   7.079 -1.0033  0.1923  0.5340
 3275TIP3    H231461   5.538   4.846   7.183  1.1371  0.3207 -1.6543
 3276TIP3   OH231462   1.377   5.615   6.580  0.0734 -0.0965 -0.1959
 3276TIP3    H131463   1.287   5.641   6.565 -0.9553 -2.2231  1.7163
 3276TIP3    H231464   1.421   5.695   6.610 -1.2159  0.8940 -0.8663
 3277TIP3   OH231465   4.218   1.241   1.370  0.0351  0.1777  0.0290
 3277TIP3    H131466   4.200   1.334   1.356 -2.0447 -0.2329 -0.3780
 3277TIP3    H231467   4.200   1.200   1.286 -0.5036 -0.7576  0.5746
 3278TIP3   OH231468   5.885   5.922   7.192  0.0710  0.5346 -0.4382
 3278TIP3    H131469   5.819   5.935   7.125  0.1311  1.1352 -0.3866
 3278TIP3    H231470   5.886   5.827   7.207  0.1331  0.3794 -1.3570
 3279TIP3   OH231471   1.784   2.704   7.054  0.2856  0.3508  0.1588
 3279TIP3    H131472   1.870   2.661   7.055  0.5374  0.8270 -0.5304
 3279TIP3    H231473   1.794   2.778   6.993  0.2126  2.1166  2.1605
 3280TIP3   OH231474   5.915   3.667   1.240 -0.3687 -0.1102 -0.2310
 3280TIP3    H131475   5.869   3.702   1.316 -2.7511 -0.8051 -1.2578
 3280TIP3    H231476   5.949   3.582   1.269 -2.4838 -1.0229 -0.2850
 3281TIP3   OH231477   1.462   3.005   8.200  0.2781  0.5807 -0.8436
 3281TIP3    H131478   1.424   3.008   8.112  0.8400  1.0427 -1.0744
 3281TIP3    H231479   1.408   2.941   8.246 -1.6856  2.1789 -0.7432
 3282TIP3   OH231480   2.315   5.198   8.265  0.3318  0.0456  0.5769
 3282TIP3    H131481   2.281   5.125   8.213  1.1849 -2.0446  2.7521
 3282TIP3    H231482   2.237   5.237   8.305 -0.1426  0.4234 -0.6578
 3283TIP3   OH231483   6.858   1.754   2.391 -0.5167 -1.1205 -0.3914
 3283TIP3    H131484   6.861   1.849   2.399  0.7986 -1.2917  1.7993
 3283TIP3    H231485   6.774   1.736   2.348 -1.1468  0.9569 -0.1273
 3284TIP3   OH231486   5.762   5.344   7.363 -0.0523 -0.1339 -0.2868
 3284TIP3    H131487   5.804   5.297   7.435 -0.0925  0.5127  0.1675
 3284TIP3    H231488   5.834   5.364   7.303  0.5004  1.6907  0.8755
 3285TIP3   OH231489   0.185   3.728   7.644  0.3005 -0.5224  0.3926
 3285TIP3    H131490   0.271   3.734   7.604 -0.4465  0.2234 -1.1975
 3285TIP3    H231491   0.130   3.689   7.576 -0.8510  0.0291  0.9777
 3286TIP3   OH231492   2.254   4.377   0.649 -0.4005  0.3493  0.0258
 3286TIP3    H131493   2.176   4.378   0.705 -0.4027 -0.3190  0.0455
 3286TIP3    H231494   2.231   4.434   0.576 -1.9782 -1.8228 -1.3233
 3287TIP3   OH231495   6.847   2.414   1.884 -0.2436  0.1046 -0.0540
 3287TIP3    H131496   6.810   2.454   1.805  1.3156 -1.0720 -1.4631
 3287TIP3    H231497   6.771   2.379   1.931 -1.2800  1.4920 -0.6342
 3288TIP3   OH231498   4.954   2.240   2.271 -0.3638 -0.4825 -0.5527
 3288TIP3    H131499   4.864   2.272   2.270 -0.3825  0.0593  2.9617
 3288TIP3    H231500   4.950   2.161   2.325  1.1704 -0.8057 -0.8751
 3289TIP3   OH231501   2.472   3.809   8.390  0.3263 -0.5260 -0.0441
 3289TIP3    H131502   2.404   3.836   8.328  1.1868 -1.4244 -1.4454
 3289TIP3    H231503   2.553   3.814   8.340  1.0892 -1.0737  1.0910
 3290TIP3   OH231504   6.366   3.781   7.029 -0.1685 -0.2620  0.3679
 3290TIP3    H131505   6.324   3.713   7.082 -1.6729  2.0865  2.3957
 3290TIP3    H231506   6.306   3.855   7.032  1.3756  1.2146 -1.7681
 3291TIP3   OH231507   1.250   6.597   6.933  0.3484  0.2802 -0.4691
 3291TIP3    H131508   1.194   6.611   7.009 -0.1286  0.5775 -0.8694
 3291TIP3    H231509   1.329   6.555   6.969 -0.7845 -1.6384 -0.1160
 3292TIP3   OH231510   6.263   3.771   0.838  0.1789  0.3237  0.0208
 3292TIP3    H131511   6.223   3.777   0.924  2.4299 -1.1779  1.2770
 3292TIP3    H231512   6.231   3.848   0.791 -0.5726  1.5843  2.4273
 3293TIP3   OH231513   5.231   3.401   0.261  0.3718 -0.3630  0.3592
 3293TIP3    H131514   5.282   3.344   0.319  0.5724 -0.3684  0.1778
 3293TIP3    H231515   5.156   3.347   0.234  0.0273 -0.2056  0.9826
 3294TIP3   OH231516   2.305   2.132   7.291 -0.0307  0.5561 -0.2553
 3294TIP3    H131517   2.213   2.139   7.268  0.5653  0.8589 -2.8615
 3294TIP3    H231518   2.341   2.220   7.279  0.4604  0.6784  1.6885
 3295TIP3   OH231519   1.317   2.018   8.589 -0.5333  0.1192  0.0725
 3295TIP3    H131520   1.412   2.010   8.591 -0.2221  2.7521 -0.7126
 3295TIP3    H231521   1.290   2.013   8.681  0.3865 -0.3015  0.3277
 3296TIP3   OH231522   0.532   4.347   7.106 -0.1441  0.5224 -0.1783
 3296TIP3    H131523   0.612   4.370   7.058  0.6979 -1.3346  0.2670
 3296TIP3    H231524   0.494   4.275   7.056  2.6322 -4.0214  3.5002
 3297TIP3   OH231525   4.995   3.182   6.957 -0.3733  0.2628  0.0219
 3297TIP3    H131526   5.006   3.110   7.020  0.7493 -0.5018 -0.9912
 3297TIP3    H231527   4.987   3.138   6.872  1.2828  1.3267 -0.7505
 3298TIP3   OH231528   4.357   5.688   0.511 -0.1344 -0.5250  0.2457
 3298TIP3    H131529   4.303   5.714   0.585 -1.2713  1.5052 -1.1975
 3298TIP3    H231530   4.368   5.593   0.522 -3.4583 -0.9612  1.0016
 3299TIP3   OH231531   1.616   5.437   8.210 -0.5105  0.4676 -0.4723
 3299TIP3    H131532   1.577   5.521   8.185 -0.7870  0.2975 -0.6146
 3299TIP3    H231533   1.552   5.371   8.182 -0.9094  0.2726  0.8191
 3300TIP3   OH231534   1.846   5.536   7.484  0.2376  0.0241 -0.6337
 3300TIP3    H131535   1.916   5.560   7.544 -1.4781 -1.4084  2.1071
 3300TIP3    H231536   1.773   5.594   7.507 -0.2995 -0.1664 -1.7467
 3301TIP3   OH231537   4.097   2.341   6.322 -0.2197  0.0712  0.2286
 3301TIP3    H131538   4.006   2.367   6.334 -0.4852 -0.1593 -1.1520
 3301TIP3    H231539   4.093   2.249   6.294  0.4087  0.1462 -0.1400
 3302TIP3   OH231540   2.768   4.238   6.880 -0.0787  0.0043  0.1270
 3302TIP3    H131541   2.806   4.179   6.945 -0.3840  0.2982  0.5816
 3302TIP3    H231542   2.713   4.182   6.826  1.2718 -0.4984 -0.7839
 3303TIP3   OH231543   4.020   1.412   8.107  0.3465  0.4324 -0.2875
 3303TIP3    H131544   4.041   1.380   8.195 -0.3858  0.5929 -0.0506
 3303TIP3    H231545   4.105   1.435   8.069  0.5598  1.8034  0.9391
 3304TIP3   OH231546   6.348   5.024   1.393 -0.3466  0.3303 -0.0575
 3304TIP3    H131547   6.421   4.987   1.343  0.1811  2.7343 -1.1900
 3304TIP3    H231548   6.312   4.949   1.441  1.8929 -1.2176 -0.6323
 3305TIP3   OH231549   1.962   2.849   8.567  0.0517  0.3444  0.0666
 3305TIP3    H131550   1.881   2.898   8.550  0.4344  0.1589 -2.5956
 3305TIP3    H231551   1.990   2.817   8.482  0.6882 -3.2525  1.4416
 3306TIP3   OH231552   5.362   2.056   0.044 -0.3930  0.0966 -0.0577
 3306TIP3    H131553   5.448   2.059   0.002 -0.2018 -2.1437  0.0248
 3306TIP3    H231554   5.342   2.147   0.065  2.3456  0.6270  0.6632
 3307TIP3   OH231555   0.573   2.013   2.022  0.1426 -0.1383 -0.4220
 3307TIP3    H131556   0.518   2.072   1.971 -1.9976 -1.8227 -0.1886
 3307TIP3    H231557   0.563   2.042   2.112  0.9762  0.5612 -0.5452
 3308TIP3   OH231558   0.731   2.413   0.086  0.5385 -0.0514 -0.4736
 3308TIP3    H131559   0.707   2.335   0.036 -0.2865  0.6102 -1.1449
 3308TIP3    H231560   0.716   2.388   0.177  0.0941 -0.6221 -0.6925
 3309TIP3   OH231561   3.165   4.099   7.105 -0.4370 -0.1522 -0.4270
 3309TIP3    H131562   3.106   4.069   7.174  0.5878 -3.7936 -0.9311
 3309TIP3    H231563   3.245   4.049   7.118  0.1468 -0.2571 -3.5907
 3310TIP3   OH231564   1.297   2.778   0.201  0.1546  0.6629  0.0189
 3310TIP3    H131565   1.244   2.702   0.224 -1.6161  2.4839  2.4769
 3310TIP3    H231566   1.387   2.748   0.211 -0.0903 -2.6113 -4.5105
 3311TIP3   OH231567   5.751   3.594   0.504 -0.4193 -0.1341 -0.1013
 3311TIP3    H131568   5.820   3.616   0.566 -0.5912  1.8623 -0.5477
 3311TIP3    H231569   5.791   3.530   0.446 -0.1129 -1.7149  1.7518
 3312TIP3   OH231570   5.168   3.671   1.149 -0.5856  0.1191  0.8365
 3312TIP3    H131571   5.094   3.715   1.191 -1.3568 -1.2355  0.9383
 3312TIP3    H231572   5.129   3.624   1.075  0.2891 -0.0409  0.4640
 3313TIP3   OH231573   2.385   0.273   1.968 -0.2695 -0.1263 -0.1783
 3313TIP3    H131574   2.332   0.339   1.923 -0.7921 -0.0990  0.4695
 3313TIP3    H231575   2.362   0.191   1.925 -1.9536 -0.3407  1.0264
 3314TIP3   OH231576   2.643   0.737   0.740  0.1548  0.1897  0.7632
 3314TIP3    H131577   2.637   0.700   0.827  0.3010 -2.2101 -0.1712
 3314TIP3    H231578   2.731   0.712   0.709 -0.9681 -1.7315 -1.1516
 3315TIP3   OH231579   2.475   6.055   7.818  0.3084  0.1039 -0.3900
 3315TIP3    H131580   2.442   6.055   7.907 -0.1621 -0.9987 -0.5457
 3315TIP3    H231581   2.548   6.117   7.819  2.5329 -2.3155  1.6373
 3316TIP3   OH231582   3.526   4.931   0.280 -0.5627 -0.2360 -0.0284
 3316TIP3    H131583   3.591   4.966   0.341 -0.1497 -1.7983  0.4705
 3316TIP3    H231584   3.495   5.007   0.232  1.0855  0.6630  0.2524
 3317TIP3   OH231585   2.932   3.329   1.091 -1.1209  0.2957 -0.0888
 3317TIP3    H131586   2.901   3.419   1.079  0.7123  0.9230 -0.4540
 3317TIP3    H231587   2.885   3.278   1.026 -1.7595  1.1007 -0.2672
 3318TIP3   OH231588   3.433   4.246   1.980 -0.1138  0.2830 -0.2286
 3318TIP3    H131589   3.394   4.323   2.022 -1.2903  0.2304 -1.1775
 3318TIP3    H231590   3.374   4.174   2.003  0.2799 -0.1001 -0.4080
 3319TIP3   OH231591   6.795   5.849   7.100 -0.6248  0.4682 -0.0408
 3319TIP3    H131592   6.719   5.859   7.043  0.1524 -0.8085 -1.3841
 3319TIP3    H231593   6.769   5.779   7.161 -0.6659  0.2904 -0.2594
 3320TIP3   OH231594   5.051   1.027   1.132 -0.0032  0.7103 -0.3229
 3320TIP3    H131595   5.039   1.073   1.049  1.4016  2.0484  0.1696
 3320TIP3    H231596   5.145   1.005   1.134  0.3251  2.0445  1.5371
 3321TIP3   OH231597   2.646   5.608   8.600 -0.6746  0.0081 -0.1646
 3321TIP3    H131598   2.713   5.674   8.615  2.2698 -2.5357 -1.1624
 3321TIP3    H231599   2.626   5.573   8.687  0.8668 -0.5543 -0.0068
 3322TIP3   OH231600   6.023   5.761   1.840 -0.4764  0.3344  0.1083
 3322TIP3    H131601   6.036   5.725   1.928  3.3474 -1.0747 -0.8209
 3322TIP3    H231602   6.058   5.849   1.845 -1.9033  0.9259  0.3226
 3323TIP3   OH231603   0.990   3.952   0.773  0.0710  0.3421  0.0777
 3323TIP3    H131604   1.075   3.944   0.730  0.3978  0.7675  0.6397
 3323TIP3    H231605   0.979   3.870   0.821  0.6353  0.7053  0.8408
 3324TIP3   OH231606   5.164   1.456   8.651 -0.1348  0.8702 -0.1556
 3324TIP3    H131607   5.135   1.428   8.564 -1.3597  1.2409  0.1140
 3324TIP3    H231608   5.092   1.433   8.709  0.1203  1.7914  0.5505
 3325TIP3   OH231609   6.489   0.719   0.393  0.0952 -0.1202 -0.6240
 3325TIP3    H131610   6.454   0.650   0.449  0.1961 -0.3162 -0.8011
 3325TIP3    H231611   6.557   0.761   0.445 -0.9510  0.8026  0.0398
 3326TIP3   OH231612   4.591   6.347   2.315 -0.3703  0.7682  0.0231
 3326TIP3    H131613   4.580   6.392   2.399  0.5721  1.6302 -0.2908
 3326TIP3    H231614   4.610   6.417   2.253  2.5032 -0.1092 -0.2427
 3327TIP3   OH231615   5.637   1.658   0.255  0.2423  0.5187 -0.9685
 3327TIP3    H131616   5.659   1.579   0.206  0.5128  0.9161 -1.4889
 3327TIP3    H231617   5.601   1.625   0.338  1.3848 -0.1493 -0.7169
 3328TIP3   OH231618   6.363   0.967   6.606 -0.7082  0.4071  0.0383
 3328TIP3    H131619   6.409   0.995   6.527 -2.1732 -0.3094 -1.1251
 3328TIP3    H231620   6.427   0.913   6.652  0.3350  1.2198 -0.3974
 3329TIP3   OH231621   4.434   2.776   1.241 -0.3572 -0.4091 -0.5247
 3329TIP3    H131622   4.479   2.752   1.160  0.2333 -1.8617  0.2036
 3329TIP3    H231623   4.407   2.693   1.279 -0.3457  0.2264  0.9363
 3330TIP3   OH231624   0.629   3.008   7.254 -0.1286  0.0380  0.0007
 3330TIP3    H131625   0.636   2.913   7.261 -0.9750 -0.0768 -0.6135
 3330TIP3    H231626   0.685   3.031   7.179  2.4936  0.3871  1.9393
 3331TIP3   OH231627   5.376   4.355   8.774  0.3370  0.2462 -0.0448
 3331TIP3    H131628   5.295   4.382   8.731 -0.0915 -0.1135  0.5374
 3331TIP3    H231629   5.415   4.292   8.714  0.1201  0.3146 -0.2587
 3332TIP3   OH231630   5.649   4.836   0.857  1.0108  0.3293 -0.1588
 3332TIP3    H131631   5.655   4.744   0.835  2.5285  0.4468 -0.3600
 3332TIP3    H231632   5.619   4.838   0.948  1.2250 -0.3764 -0.0720
 3333TIP3   OH231633   4.107   0.496   2.589  0.0335  0.0689 -0.0898
 3333TIP3    H131634   4.138   0.510   2.499  0.4281  2.8253  0.4052
 3333TIP3    H231635   4.013   0.516   2.585 -0.4514 -1.9635 -0.2583
 3334TIP3   OH231636   1.793   5.989   7.546  0.5911 -0.4645  0.1845
 3334TIP3    H131637   1.798   6.003   7.640 -3.2840 -0.5722  0.5706
 3334TIP3    H231638   1.855   6.052   7.509  1.0753  0.6842  2.7397
 3335TIP3   OH231639   4.889   1.487   0.275  1.0780 -0.1567 -0.7087
 3335TIP3    H131640   4.928   1.568   0.241  0.7112  0.7950  1.0326
 3335TIP3    H231641   4.807   1.478   0.227  0.7082  0.9917 -0.3201
 3336TIP3   OH231642   3.376   3.143   8.297 -0.3896 -0.6457  0.6851
 3336TIP3    H131643   3.298   3.130   8.243 -0.6090  0.2506  0.7804
 3336TIP3    H231644   3.448   3.113   8.241 -0.3380  2.3619 -1.0935
 3337TIP3   OH231645   4.186   6.071   1.234 -0.2499 -0.5189  0.2878
 3337TIP3    H131646   4.137   6.006   1.184 -0.5859  0.1686 -0.2905
 3337TIP3    H231647   4.204   6.141   1.171 -0.8990  0.4754  1.1857
 3338TIP3   OH231648   6.058   1.278   0.025  0.1311 -0.4034  0.6203
 3338TIP3    H131649   6.129   1.259   0.085  0.4555  0.9096  0.6961
 3338TIP3    H231650   5.991   1.320   0.079  0.7717  1.5676 -0.0033
 3339TIP3   OH231651   0.663   1.504   8.561 -0.1404  0.0231 -0.7315
 3339TIP3    H131652   0.572   1.482   8.581  0.2458 -0.5490  0.4547
 3339TIP3    H231653   0.713   1.428   8.590  0.9723  1.3920  1.1267
 3340TIP3   OH231654   4.125   2.833   2.277 -0.1415 -0.5449  0.0162
 3340TIP3    H131655   4.180   2.912   2.271 -0.5939 -0.0539  1.7485
 3340TIP3    H231656   4.036   2.866   2.287 -0.7421 -1.3386 -2.1244
 3341TIP3   OH231657   2.580   1.358   1.780 -0.3354 -0.4025  0.3019
 3341TIP3    H131658   2.631   1.311   1.715  0.8826  0.2245  0.7802
 3341TIP3    H231659   2.596   1.311   1.862 -1.1734 -0.6755  0.3180
 3342TIP3   OH231660   0.057   6.366   0.863  0.4532  0.3437 -0.3395
 3342TIP3    H131661   0.076   6.402   0.776 -0.3516  1.2001 -0.1810
 3342TIP3    H231662   0.096   6.279   0.862 -0.2593  0.0109 -1.8618
 3343TIP3   OH231663   2.054   4.122   7.588  0.3500 -0.5141  0.8456
 3343TIP3    H131664   2.048   4.064   7.664 -0.7237  2.4623  3.1988
 3343TIP3    H231665   2.007   4.201   7.613 -1.2940  0.1669 -3.4873
 3344TIP3   OH231666   3.984   3.001   7.703 -0.0234  0.0170  0.1530
 3344TIP3    H131667   4.023   3.087   7.691  1.5377 -0.7142 -0.2594
 3344TIP3    H231668   3.899   3.019   7.743  0.5432  1.6943  0.6987
 3345TIP3   OH231669   4.200   1.609   8.256 -0.1550  0.6715  0.1927
 3345TIP3    H131670   4.185   1.528   8.305 -2.2787  0.0732 -1.2942
 3345TIP3    H231671   4.287   1.598   8.217 -0.4126 -0.9215  0.0016
 3346TIP3   OH231672   4.935   4.837   1.795 -0.3583  0.0016 -0.0553
 3346TIP3    H131673   5.023   4.808   1.770 -0.8627 -1.3450 -0.3753
 3346TIP3    H231674   4.944   4.931   1.810  0.8183  0.1726 -1.5667
 3347TIP3   OH231675   1.612   2.477   0.524  0.0741  0.2319 -0.0387
 3347TIP3    H131676   1.616   2.472   0.619  0.7820  0.3461 -0.0531
 3347TIP3    H231677   1.614   2.386   0.494  0.9474  0.2194  0.0311
 3348TIP3   OH231678   3.267   1.737   7.085  0.2814 -0.0536  0.3114
 3348TIP3    H131679   3.328   1.675   7.124  1.3559  0.9669  0.3092
 3348TIP3    H231680   3.319   1.782   7.017 -0.2476  1.3329  0.7899
 3349TIP3   OH231681   2.054   0.136   8.767 -0.1288 -0.2030 -0.6549
 3349TIP3    H131682   2.133   0.098   8.728  1.4707  0.4906  1.6743
 3349TIP3    H231683   2.081   0.164   8.855 -3.0711 -0.2002  0.3790
 3350TIP3   OH231684   5.748   2.380   8.445 -0.5276 -0.4105 -0.1641
 3350TIP3    H131685   5.831   2.374   8.491 -0.6364 -0.2087  0.0602
 3350TIP3    H231686   5.707   2.294   8.458 -1.1072  0.0396  1.1835
 3351TIP3   OH231687   0.843   3.704   0.173  0.1617 -0.0912  0.2857
 3351TIP3    H131688   0.927   3.709   0.219  0.4402 -0.3120 -0.1901
 3351TIP3    H231689   0.829   3.610   0.158 -1.6228 -0.3488  2.9700
 3352TIP3   OH231690   0.946   0.170   1.070  0.2976  0.0123  0.5355
 3352TIP3    H131691   1.028   0.126   1.093  0.9813  0.2207 -1.3055
 3352TIP3    H231692   0.968   0.221   0.992 -1.6238 -0.0490 -0.0931
 3353TIP3   OH231693   5.322   1.409   1.261 -0.6576 -0.8910  0.0480
 3353TIP3    H131694   5.257   1.427   1.193  0.7727  1.4707 -0.8168
 3353TIP3    H231695   5.292   1.459   1.337 -0.2686 -0.4143 -0.1077
 3354TIP3   OH231696   2.731   0.645   2.750  0.2203 -0.2065  0.1472
 3354TIP3    H131697   2.670   0.572   2.735 -0.4117  0.2974  0.2082
 3354TIP3    H231698   2.682   0.723   2.723 -0.3880  0.5839  3.1605
 3355TIP3   OH231699   2.042   4.823   8.647 -0.5053  0.2678 -0.7529
 3355TIP3    H131700   2.098   4.899   8.664  0.6160 -0.8418  0.8502
 3355TIP3    H231701   2.059   4.765   8.721 -2.2459 -1.0250 -1.3234
 3356TIP3   OH231702   6.551   3.565   6.257 -0.4143 -0.7548  0.0868
 3356TIP3    H131703   6.489   3.582   6.328 -0.0301  2.2952 -0.1523
 3356TIP3    H231704   6.633   3.542   6.301 -0.2089  1.0151  0.6856
 3357TIP3   OH231705   3.931   2.732   7.333  0.4592  0.0028  0.4164
 3357TIP3    H131706   3.892   2.763   7.415  1.1555  0.6163  0.5341
 3357TIP3    H231707   3.884   2.779   7.264  0.5851  0.2909  0.5246
 3358TIP3   OH231708   2.882   4.501   7.730  0.7472  0.9187 -0.0448
 3358TIP3    H131709   2.870   4.593   7.757 -0.1570  0.3155  1.7953
 3358TIP3    H231710   2.936   4.463   7.799  2.0437  0.2892 -1.3522
 3359TIP3   OH231711   4.343   0.566   0.296 -0.1528 -0.1674 -0.8137
 3359TIP3    H131712   4.255   0.544   0.326 -0.6545  0.9459 -1.4284
 3359TIP3    H231713   4.391   0.483   0.298 -1.0535 -0.6740  0.0576
 3360TIP3   OH231714   4.242   6.329   1.699 -0.4869 -0.5259 -0.5204
 3360TIP3    H131715   4.223   6.411   1.745  1.5425 -0.6399  0.6110
 3360TIP3    H231716   4.256   6.355   1.608  0.9686  0.5350 -0.0214
 3361TIP3   OH231717   6.821   6.203   6.984 -0.0400 -0.0903 -0.4205
 3361TIP3    H131718   6.897   6.158   6.948 -0.0041 -1.0737  0.7981
 3361TIP3    H231719   6.746   6.156   6.947 -0.0052 -0.9335  0.5246
 3362TIP3   OH231720   6.277   6.648   0.563  0.1912 -0.5283 -0.4809
 3362TIP3    H131721   6.211   6.664   0.631  1.2774  1.0066  0.2535
 3362TIP3    H231722   6.338   6.721   0.570  0.9949 -0.9580 -2.3518
 3363TIP3   OH231723   4.005   5.810   8.781 -0.2925  0.2270 -0.0240
 3363TIP3    H131724   4.031   5.823   8.689 -0.9729 -1.4812 -0.4883
 3363TIP3    H231725   3.996   5.899   8.815  1.0330  0.8946 -1.2928
 3364TIP3   OH231726   4.353   2.466   0.391 -0.1162 -0.1426 -0.1653
 3364TIP3    H131727   4.352   2.386   0.338 -0.3763 -0.5411  0.4419
 3364TIP3    H231728   4.441   2.468   0.429 -0.5778 -0.9106  0.9793
 3365TIP3   OH231729   5.585   6.444   6.989  0.0570  0.3266 -0.3915
 3365TIP3    H131730   5.517   6.406   7.045  3.0605 -0.5177  3.0241
 3365TIP3    H231731   5.650   6.375   6.980  2.1462  2.2016 -0.4307
 3366TIP3   OH231732   0.037   3.677   7.412 -0.1538  0.2585 -0.1424
 3366TIP3    H131733  -0.052   3.663   7.443 -0.3299 -0.8813 -1.0859
 3366TIP3    H231734   0.027   3.719   7.326  0.0589 -2.1787 -1.4637
 3367TIP3   OH231735   2.854   5.361   1.040 -0.4546 -0.1346 -0.2375
 3367TIP3    H131736   2.769   5.404   1.030 -1.2984 -0.7232  3.1221
 3367TIP3    H231737   2.835   5.280   1.088  1.9266 -0.6835 -0.0843
 3368TIP3   OH231738   1.564   2.279   2.337  0.4582 -0.3014 -0.1033
 3368TIP3    H131739   1.616   2.357   2.313  1.5953 -1.2810 -0.9391
 3368TIP3    H231740   1.593   2.258   2.426 -1.4152  1.4443  0.9938
 3369TIP3   OH231741   0.400   2.686   1.775  0.3475 -0.5015  0.7866
 3369TIP3    H131742   0.417   2.726   1.860  0.9533  1.0607 -0.0260
 3369TIP3    H231743   0.478   2.707   1.723  0.2316 -1.8921 -0.0111
 3370TIP3   OH231744   5.480   1.372   0.139  0.0435 -0.3146  0.8657
 3370TIP3    H131745   5.485   1.399   0.231  0.7309  1.5078  0.3337
 3370TIP3    H231746   5.571   1.373   0.109 -0.1570 -1.0866  0.1961
 3371TIP3   OH231747   6.090   5.606   2.082  0.2816  0.2952  0.2006
 3371TIP3    H131748   6.040   5.531   2.114 -1.8721  1.7942  0.5578
 3371TIP3    H231749   6.178   5.571   2.067 -0.9114 -2.5739 -0.8525
 3372TIP3   OH231750   6.484   4.729   2.314  0.1211 -0.1447  0.1312
 3372TIP3    H131751   6.416   4.764   2.371 -0.1474  0.3384 -0.4673
 3372TIP3    H231752   6.459   4.637   2.300  0.1357 -0.2369  0.6999
 3373TIP3   OH231753   6.751   3.528   1.926  0.6458 -0.4486 -0.3609
 3373TIP3    H131754   6.746   3.576   2.008  0.3871  0.4446 -0.8838
 3373TIP3    H231755   6.833   3.479   1.931  0.9262  0.0658  0.1723
 3374TIP3   OH231756   3.852   6.545   0.326  0.3596 -0.1745 -0.2276
 3374TIP3    H131757   3.922   6.482   0.338  0.0443 -0.6795 -0.9454
 3374TIP3    H231758   3.794   6.533   0.402  0.2882 -0.7693 -0.3737
 3375TIP3   OH231759   0.286   4.766   7.459 -0.1984 -0.1905 -0.2291
 3375TIP3    H131760   0.332   4.765   7.376 -2.1241  2.4744 -1.4761
 3375TIP3    H231761   0.202   4.725   7.440 -0.7345  0.6190  0.3148
 3376TIP3   OH231762   2.720   6.051   7.058  0.1452  0.0160 -0.4098
 3376TIP3    H131763   2.803   6.099   7.057 -0.4531  1.0843 -0.6913
 3376TIP3    H231764   2.655   6.116   7.031 -0.7664 -0.8390 -0.3167
 3377TIP3   OH231765   5.943   5.243   0.689  0.6588 -0.3809 -0.2554
 3377TIP3    H131766   5.891   5.183   0.635  1.1031 -1.0363  0.0282
 3377TIP3    H231767   5.905   5.236   0.776 -0.2341  0.8886 -0.5263
 3378TIP3   OH231768   1.268   6.314   7.619 -0.3434 -0.2853  0.2674
 3378TIP3    H131769   1.364   6.309   7.613 -0.4038 -1.1258 -0.1919
 3378TIP3    H231770   1.247   6.405   7.596  0.4582  0.4452  2.2098
 3379TIP3   OH231771   6.315   5.840   7.340 -0.1708 -0.1215  0.1854
 3379TIP3    H131772   6.248   5.783   7.303  0.6194 -0.6532 -0.4643
 3379TIP3    H231773   6.314   5.820   7.433  0.5867 -1.7610 -0.1236
 3380TIP3   OH231774   1.090   2.412   8.440 -0.3759  0.2153  0.0040
 3380TIP3    H131775   1.039   2.427   8.360  0.4762 -0.5709 -0.7115
 3380TIP3    H231776   1.048   2.466   8.506 -1.2716  0.6678 -0.9142
 3381TIP3   OH231777   2.955   6.527   0.301  0.6319  0.0502 -0.4052
 3381TIP3    H131778   3.033   6.505   0.351  0.2709  0.5970  0.4241
 3381TIP3    H231779   2.894   6.563   0.366  0.3536  1.3012 -1.3210
 3382TIP3   OH231780   0.103   3.791   1.607  0.8534  0.5550 -0.4654
 3382TIP3    H131781   0.085   3.875   1.565  2.6840  1.4824  0.4893
 3382TIP3    H231782   0.121   3.813   1.699 -0.6566 -1.1461  0.3052
 3383TIP3   OH231783   1.419   6.340   1.099 -0.5541 -0.2485  0.4054
 3383TIP3    H131784   1.380   6.380   1.021  1.9824 -1.6745 -1.7399
 3383TIP3    H231785   1.495   6.395   1.118 -0.5963 -0.4900  1.3212
 3384TIP3   OH231786   2.124   3.033   0.879 -0.8212 -0.5207  0.7972
 3384TIP3    H131787   2.123   3.121   0.917 -1.2865 -0.3620  0.4383
 3384TIP3    H231788   2.173   2.980   0.941  3.4624  0.8957 -0.9818
 3385TIP3   OH231789   6.642   4.855   6.850 -0.3149 -0.5485  0.0452
 3385TIP3    H131790   6.578   4.923   6.832 -1.9939 -2.0681  0.0103
 3385TIP3    H231791   6.691   4.887   6.927 -0.1914  1.2140 -0.7185
 3386TIP3   OH231792   1.586   3.890   1.214 -0.5456  0.0801 -0.1384
 3386TIP3    H131793   1.554   3.980   1.216  1.2636  0.8273 -1.3585
 3386TIP3    H231794   1.680   3.898   1.233 -0.6291 -1.7512  1.3198
 3387TIP3   OH231795   6.116   5.484   6.955 -0.2838 -0.0547 -0.0431
 3387TIP3    H131796   6.114   5.579   6.960  0.2228 -0.0356 -0.1422
 3387TIP3    H231797   6.209   5.462   6.956 -0.2390 -0.3758 -2.7424
 3388TIP3   OH231798   1.816   2.382   0.175 -0.1801  0.9838  0.7150
 3388TIP3    H131799   1.770   2.333   0.243  3.1184  0.0128  2.4171
 3388TIP3    H231800   1.836   2.318   0.107  0.1826  1.0110  0.7959
 3389TIP3   OH231801   1.647   0.609   1.019 -0.0012  0.4381 -0.2635
 3389TIP3    H131802   1.650   0.528   1.071  0.3442  1.5208  1.4910
 3389TIP3    H231803   1.725   0.606   0.965  1.1016  0.4933  1.2573
 3390TIP3   OH231804   4.022   3.879   0.173 -0.3106 -0.2898  0.2111
 3390TIP3    H131805   4.094   3.923   0.218 -0.9434  1.4370 -0.3952
 3390TIP3    H231806   4.019   3.792   0.213  2.3435 -0.5686 -0.0105
 3391TIP3   OH231807   4.519   3.083   1.549 -0.3506 -0.1708  0.1429
 3391TIP3    H131808   4.596   3.113   1.501 -0.3123  1.1860  0.9952
 3391TIP3    H231809   4.499   3.154   1.610  0.0180 -2.0410  2.6350
 3392TIP3   OH231810   6.858   6.294   7.862 -0.1512  0.9160  0.4305
 3392TIP3    H131811   6.929   6.355   7.885 -1.3560  2.4321  0.3492
 3392TIP3    H231812   6.841   6.311   7.770 -0.5561  0.4960  0.4261
 3393TIP3   OH231813   5.442   3.988   0.618  0.0960 -0.4554  0.1191
 3393TIP3    H131814   5.481   4.039   0.689  0.7777 -2.9595  1.6713
 3393TIP3    H231815   5.517   3.953   0.569 -0.3222 -0.9104 -0.2111
 3394TIP3   OH231816   5.598   0.398   8.137  0.8900  0.2877  0.0298
 3394TIP3    H131817   5.658   0.379   8.209  0.7195  0.1504  0.1366
 3394TIP3    H231818   5.538   0.463   8.173 -0.0162 -0.7451  0.4495
 3395TIP3   OH231819   2.195   1.253   6.709 -0.7161 -0.0751 -0.0327
 3395TIP3    H131820   2.214   1.222   6.798  1.5836 -0.5997 -0.6356
 3395TIP3    H231821   2.223   1.345   6.710 -1.3604  0.1254 -0.0389
 3396TIP3   OH231822   0.515   0.675   1.391  0.7360 -0.1581 -0.5305
 3396TIP3    H131823   0.583   0.739   1.373  1.8413  0.0350  3.3144
 3396TIP3    H231824   0.435   0.726   1.401  1.1748  0.3793  0.3512
 3397TIP3   OH231825   5.649   4.097   7.424 -0.4823 -0.3811  0.2992
 3397TIP3    H131826   5.697   4.038   7.366 -0.1029  0.6269 -0.4306
 3397TIP3    H231827   5.559   4.095   7.390  0.1023  1.6237 -1.5374
 3398TIP3   OH231828   6.760   3.468   1.615  0.4966  0.0301 -0.3074
 3398TIP3    H131829   6.841   3.438   1.657  0.0693  0.8233  1.1613
 3398TIP3    H231830   6.786   3.493   1.527  1.7131 -0.4088 -0.0953
 3399TIP3   OH231831   3.496   2.982   8.116  0.0504  0.2595  0.0631
 3399TIP3    H131832   3.588   3.011   8.118  1.4010 -3.4802 -0.1510
 3399TIP3    H231833   3.475   2.977   8.023  0.1087 -0.1518  0.0702
 3400TIP3   OH231834   6.525   1.604   1.152 -0.2331 -0.2979 -0.3462
 3400TIP3    H131835   6.445   1.574   1.110 -0.8399  1.7920 -0.8184
 3400TIP3    H231836   6.494   1.657   1.226  0.7349 -0.0772 -0.0871
 3401TIP3   OH231837   2.530   3.815   6.642 -0.1184  0.4879 -0.1578
 3401TIP3    H131838   2.539   3.791   6.550 -2.5323  2.2092 -0.9416
 3401TIP3    H231839   2.523   3.911   6.641 -2.9749  0.4021  1.4331
 3402TIP3   OH231840   3.501   0.517   8.419 -0.2089  0.6543  0.1531
 3402TIP3    H131841   3.569   0.453   8.440 -0.9633 -0.3238 -0.2644
 3402TIP3    H231842   3.443   0.471   8.359 -1.9154  1.0166  1.4322
 3403TIP3   OH231843   6.745   5.586   0.056 -0.3481  0.2372 -0.2925
 3403TIP3    H131844   6.801   5.622  -0.013  0.4719  1.5238  0.9819
 3403TIP3    H231845   6.656   5.612   0.030 -0.4999 -2.1146 -2.5201
 3404TIP3   OH231846   2.297   6.072   6.430 -0.4850 -0.6181  0.0311
 3404TIP3    H131847   2.217   6.033   6.395 -0.4032 -0.2743 -0.5663
 3404TIP3    H231848   2.273   6.164   6.446 -0.1353 -0.4414 -0.4303
 3405TIP3   OH231849   2.787   1.393   7.295  0.1049 -0.1753 -0.4103
 3405TIP3    H131850   2.752   1.345   7.370 -3.2215  3.8628  1.0181
 3405TIP3    H231851   2.851   1.454   7.333  0.9711 -0.4257 -1.4320
 3406TIP3   OH231852   5.472   0.628   1.644 -0.9730 -0.1880 -0.0476
 3406TIP3    H131853   5.556   0.605   1.684 -0.3372  0.5585 -0.9189
 3406TIP3    H231854   5.495   0.681   1.568 -2.2763  0.8728  0.2550
 3407TIP3   OH231855   6.552   2.852   0.285 -0.1792 -0.2152  0.2195
 3407TIP3    H131856   6.469   2.898   0.269 -1.1329 -2.0306 -0.2476
 3407TIP3    H231857   6.575   2.813   0.201  0.1445 -1.3319  0.8151
 3408TIP3   OH231858   5.308   0.239   0.998  0.0336  0.5244 -0.0347
 3408TIP3    H131859   5.222   0.267   1.029  0.7917  1.9319  0.9100
 3408TIP3    H231860   5.302   0.144   0.992 -1.4902  0.5810  0.3097
 3409TIP3   OH231861   3.271   0.703   7.822 -0.3165  0.0078 -0.0594
 3409TIP3    H131862   3.308   0.641   7.759 -1.0470  0.7413 -1.2664
 3409TIP3    H231863   3.271   0.656   7.905 -0.7362 -1.5671 -0.9085
 3410TIP3   OH231864   4.108   2.891   1.325  0.5642  0.1302 -0.5790
 3410TIP3    H131865   4.035   2.830   1.334 -0.2333  1.0290 -0.7725
 3410TIP3    H231866   4.128   2.918   1.414 -0.2035  0.8514 -0.6106
 3411TIP3   OH231867   5.546   4.951   0.480  0.4840 -0.4180 -0.4825
 3411TIP3    H131868   5.564   4.858   0.485  0.4746 -0.4626 -1.1091
 3411TIP3    H231869   5.523   4.977   0.569 -0.6923 -1.2562 -0.5213
 3412TIP3   OH231870   0.859   0.894   7.735  0.3540 -0.0139 -0.2681
 3412TIP3    H131871   0.830   0.986   7.735  1.2795  0.3058  0.6920
 3412TIP3    H231872   0.895   0.881   7.648  1.8943  1.1219  0.1572
 3413TIP3   OH231873   4.893   2.258   1.058 -0.3617  0.0819 -0.0960
 3413TIP3    H131874   4.853   2.175   1.083  0.0438 -0.3000 -0.6765
 3413TIP3    H231875   4.896   2.309   1.139  1.6897 -1.4206  0.8527
 3414TIP3   OH231876   6.101   0.984   8.239 -0.1894 -0.3787  0.1200
 3414TIP3    H131877   6.021   1.035   8.252 -1.0732 -1.4308 -0.8942
 3414TIP3    H231878   6.073   0.893   8.248  0.9047 -0.7661 -0.2376
 3415TIP3   OH231879   5.945   1.838   0.903 -0.0409  0.2082  0.0601
 3415TIP3    H131880   5.915   1.781   0.974 -1.1494  0.9248  0.1925
 3415TIP3    H231881   5.925   1.788   0.823 -0.1369  0.0137  0.2028
 3416TIP3   OH231882   5.680   3.803   6.625  0.3392 -0.0637  0.2694
 3416TIP3    H131883   5.712   3.871   6.567  0.5381 -0.0360  0.4097
 3416TIP3    H231884   5.729   3.724   6.599 -0.7344 -0.4401 -0.6835
 3417TIP3   OH231885   5.269   6.201   1.289 -0.6627 -0.2336 -0.4400
 3417TIP3    H131886   5.178   6.173   1.291 -0.4170 -1.0321  0.9594
 3417TIP3    H231887   5.315   6.130   1.244 -0.6345 -0.1765 -0.5003
 3418TIP3   OH231888   3.423   4.291   7.240 -0.0115  0.3359  0.1833
 3418TIP3    H131889   3.370   4.290   7.161  0.7594  1.1980 -0.3557
 3418TIP3    H231890   3.414   4.380   7.274 -0.8228 -0.1845  1.4173
 3419TIP3   OH231891   1.602   1.992   8.028 -0.2230  0.3350  0.0374
 3419TIP3    H131892   1.568   1.951   7.949 -1.8762  2.5007 -0.4967
 3419TIP3    H231893   1.524   2.028   8.072  0.7651  0.1350  2.0992
 3420TIP3   OH231894   2.931   5.243   8.652 -0.2447 -0.4924  0.2980
 3420TIP3    H131895   2.973   5.305   8.712 -0.8556  2.2517 -1.8905
 3420TIP3    H231896   2.842   5.234   8.686 -0.0620 -0.4001  0.8070
 3421TIP3   OH231897   5.758   6.008   0.451 -0.0314  0.2272 -0.8880
 3421TIP3    H131898   5.695   6.060   0.402 -0.1992  0.1472 -0.7618
 3421TIP3    H231899   5.741   6.030   0.543 -2.3494 -2.4236 -0.5292
 3422TIP3   OH231900   3.239   1.311   7.307 -0.0389  0.1229 -0.2700
 3422TIP3    H131901   3.261   1.251   7.235  1.2084  1.4568 -1.0453
 3422TIP3    H231902   3.178   1.261   7.362 -0.3336 -1.2437 -1.7720
 3423TIP3   OH231903   6.198   2.252   7.444 -0.5998 -0.0061 -0.3740
 3423TIP3    H131904   6.209   2.241   7.350  0.7179  0.4620 -0.2862
 3423TIP3    H231905   6.229   2.170   7.483  0.1920  0.3400 -0.2701
 3424TIP3   OH231906   6.828   2.308   8.094 -0.8161  0.0965 -0.4538
 3424TIP3    H131907   6.847   2.366   8.168  0.2460  0.0716 -0.6953
 3424TIP3    H231908   6.773   2.239   8.132  1.0617 -0.8325  0.7406
 3425TIP3   OH231909   5.412   1.517   0.421 -0.3326 -0.0582 -0.2362
 3425TIP3    H131910   5.455   1.522   0.506  0.6212  0.3382 -0.7219
 3425TIP3    H231911   5.351   1.590   0.420 -0.0959  0.1428 -0.0176
 3426TIP3   OH231912   2.161   3.823   0.682  0.4643 -0.0028  0.2936
 3426TIP3    H131913   2.163   3.752   0.617  0.3772 -0.5271  0.8604
 3426TIP3    H231914   2.089   3.799   0.741  0.9198  0.1724  0.9240
 3427TIP3   OH231915   5.873   5.689   8.474  0.3168  0.1350 -0.4555
 3427TIP3    H131916   5.811   5.717   8.407  0.2143 -0.8348 -0.7803
 3427TIP3    H231917   5.917   5.770   8.502 -0.9258  0.8005 -0.3751
 3428TIP3   OH231918   2.626   2.467   7.415 -0.6639  0.0173 -0.5264
 3428TIP3    H131919   2.640   2.373   7.426 -0.8710 -0.2685 -2.4712
 3428TIP3    H231920   2.712   2.506   7.429 -0.5857 -0.4442  0.3408
 3429TIP3   OH231921   6.215   2.621   1.684  0.0323 -0.3650  0.3188
 3429TIP3    H131922   6.291   2.597   1.631 -0.3194  1.1043 -0.9439
 3429TIP3    H231923   6.249   2.684   1.748  0.1667 -0.9367  0.8139
 3430TIP3   OH231924   0.316   1.504   1.371  0.2985  0.2638  0.3454
 3430TIP3    H131925   0.231   1.529   1.336  0.9593  1.2691 -0.6105
 3430TIP3    H231926   0.315   1.533   1.462  0.7273  3.1785 -0.4816
 3431TIP3   OH231927   6.000   5.710   1.043  0.2477 -0.1352  0.4691
 3431TIP3    H131928   6.013   5.700   0.949  0.6959 -0.1683  0.5339
 3431TIP3    H231929   5.908   5.686   1.057 -0.7374  2.7040 -0.3809
 3432TIP3   OH231930   2.684   4.287   6.199  0.5988 -0.4885  0.4521
 3432TIP3    H131931   2.739   4.352   6.242 -1.8477  0.3185  2.5964
 3432TIP3    H231932   2.704   4.205   6.244  0.4764 -0.3043  0.8514
 3433TIP3   OH231933   2.166   6.288   1.532 -0.0211 -0.3369  0.1128
 3433TIP3    H131934   2.156   6.211   1.477  1.3406 -0.3269 -0.1999
 3433TIP3    H231935   2.218   6.258   1.607 -0.0480  0.1215  0.3217
 3434TIP3   OH231936   4.747   3.885   1.661 -0.1896 -0.1947 -0.3946
 3434TIP3    H131937   4.772   3.832   1.585  0.6748  0.2808 -0.4403
 3434TIP3    H231938   4.829   3.907   1.704 -0.7083 -1.2794  1.2565
 3435TIP3   OH231939   3.847   3.325   8.552 -0.0152 -0.2348  0.2466
 3435TIP3    H131940   3.862   3.277   8.633 -2.1641  0.7197  1.2872
 3435TIP3    H231941   3.772   3.381   8.570 -0.1473  0.5255 -2.2073
 3436TIP3   OH231942   0.560   2.192   0.871  0.3657  0.1971  0.6686
 3436TIP3    H131943   0.635   2.133   0.872  0.9526  0.9258  0.4579
 3436TIP3    H231944   0.537   2.204   0.963  0.1528 -0.4596  0.7065
 3437TIP3   OH231945   2.166   3.764   8.041 -0.2151  0.0979 -0.3151
 3437TIP3    H131946   2.188   3.832   8.105 -1.0294 -1.0522  1.2659
 3437TIP3    H231947   2.244   3.758   7.985  0.3003  1.5479  0.2017
 3438TIP3   OH231948   0.026   5.381   0.881  0.8532 -0.6857 -0.2024
 3438TIP3    H131949  -0.010   5.388   0.969 -0.0352 -0.0754 -0.6053
 3438TIP3    H231950   0.042   5.288   0.868  1.9348 -0.6882  0.9686
 3439TIP3   OH231951   5.266   5.373   7.619 -0.0535  0.1458  0.2390
 3439TIP3    H131952   5.189   5.427   7.603 -1.6909 -2.2453 -0.6712
 3439TIP3    H231953   5.313   5.372   7.536  0.4736  0.8743  0.5242
 3440TIP3   OH231954   5.935   1.006   1.454  0.3175 -0.3086  0.5212
 3440TIP3    H131955   5.986   1.026   1.532  2.1585 -1.2520 -0.4050
 3440TIP3    H231956   5.845   1.000   1.486  0.8101  0.8759  2.2810
 3441TIP3   OH231957   4.431   2.208   0.611  0.9636  0.6993  0.0936
 3441TIP3    H131958   4.385   2.157   0.677 -0.9676  0.6138 -1.2345
 3441TIP3    H231959   4.474   2.142   0.556  2.5008  0.7676  1.1297
 3442TIP3   OH231960   2.348   2.590   0.840  0.1721 -0.3340  0.4365
 3442TIP3    H131961   2.403   2.668   0.847 -1.5638  1.1003 -1.0236
 3442TIP3    H231962   2.259   2.623   0.837 -0.5678 -2.2709 -1.3725
 3443TIP3   OH231963   3.802   5.047   8.387  0.6584  0.1226 -0.0860
 3443TIP3    H131964   3.874   5.109   8.395  1.5607 -1.0369  1.3665
 3443TIP3    H231965   3.757   5.052   8.472  0.7819 -1.2106  0.0826
 3444TIP3   OH231966   3.280   5.759   8.171 -0.2998 -0.5231  0.3119
 3444TIP3    H131967   3.344   5.782   8.104  0.3614 -0.5237  0.9410
 3444TIP3    H231968   3.205   5.816   8.152  0.4651  0.5826  0.4999
 3445TIP3   OH231969   6.231   3.458   6.704 -0.2952  0.1761 -0.2032
 3445TIP3    H131970   6.212   3.533   6.761  0.6337  0.4146 -0.1981
 3445TIP3    H231971   6.197   3.383   6.751 -3.6329  0.7900 -1.3243
 3446TIP3   OH231972   4.410   6.723   1.275  0.1946 -0.3748 -0.2537
 3446TIP3    H131973   4.402   6.816   1.298  1.6917 -0.4479  0.7720
 3446TIP3    H231974   4.321   6.690   1.279 -0.2374  0.7845  0.5102
 3447TIP3   OH231975   0.450   2.156   7.008 -0.2001  0.0829  0.7305
 3447TIP3    H131976   0.414   2.155   7.096  1.4885 -1.9024  1.4733
 3447TIP3    H231977   0.492   2.241   7.000  1.4126 -0.4669  2.6688
 3448TIP3   OH231978   0.914   3.151   8.252  0.3055 -0.0033  0.2408
 3448TIP3    H131979   0.986   3.089   8.258  0.1453 -0.2106  0.0755
 3448TIP3    H231980   0.923   3.190   8.165  1.2502  1.2685  0.8787
 3449TIP3   OH231981   5.940   2.958   1.120  0.4572 -0.0105 -0.2780
 3449TIP3    H131982   5.970   2.919   1.038 -0.7878 -0.7132 -0.4299
 3449TIP3    H231983   5.862   3.008   1.096  0.4312  0.2830  0.3833
 3450TIP3   OH231984   2.948   5.884   7.377 -0.1569  0.0989 -0.7961
 3450TIP3    H131985   2.902   5.800   7.368  1.8750 -1.0797 -0.8836
 3450TIP3    H231986   2.971   5.909   7.288 -0.2904  0.4770 -0.7260
 3451TIP3   OH231987   3.471   6.819   1.694 -0.1702  0.2789 -0.3791
 3451TIP3    H131988   3.497   6.774   1.775  1.3487 -0.0648 -1.0244
 3451TIP3    H231989   3.426   6.751   1.643  0.0111  0.1377 -0.3539
 3452TIP3   OH231990   0.059   6.477   0.614 -0.3463  0.2545 -0.3474
 3452TIP3    H131991   0.008   6.495   0.535 -0.8961  0.3409  0.0203
 3452TIP3    H231992   0.134   6.428   0.583 -0.8911 -0.2822 -0.8463
 3453TIP3   OH231993   5.232   2.214   8.597 -0.3900 -0.3097  0.7097
 3453TIP3    H131994   5.170   2.156   8.554 -0.4654  0.4551 -0.2494
 3453TIP3    H231995   5.295   2.156   8.641 -1.1311 -1.0868  0.7464
 3454TIP3   OH231996   0.920   5.808   2.255 -0.5450 -0.6853  0.0991
 3454TIP3    H131997   0.874   5.739   2.303 -1.2070  0.3064  0.9209
 3454TIP3    H231998   0.989   5.837   2.314 -1.0846  0.2421  0.2845
 3455TIP3   OH231999   3.181   4.937   0.839 -0.0304 -0.3141  0.0146
 3455TIP3    H132000   3.181   4.968   0.748  2.5702  1.3271  0.4565
 3455TIP3    H232001   3.114   4.990   0.882 -0.3806 -0.1811 -0.6851
 3456TIP3   OH232002   2.744   0.949   7.791  0.0377  0.0686  0.0224
 3456TIP3    H132003   2.682   0.890   7.747  1.4972  1.0160 -3.6677
 3456TIP3    H232004   2.729   1.034   7.750  2.6622  0.6562  0.1407
 3457TIP3   OH232005   6.689   0.754   0.619 -0.5296  0.7811  0.0326
 3457TIP3    H132006   6.775   0.794   0.628  0.2310 -0.5929 -0.7840
 3457TIP3    H232007   6.632   0.807   0.675  1.5580 -0.4916  3.7519
 3458TIP3   OH232008   5.673   1.463   2.413  0.5703  0.2452 -0.3152
 3458TIP3    H132009   5.674   1.557   2.431  1.0490  0.2896 -0.5396
 3458TIP3    H232010   5.757   1.432   2.447 -0.5119 -0.5134  1.7858
 3459TIP3   OH232011   1.811   2.895   8.152 -0.2072 -0.3281  0.8121
 3459TIP3    H132012   1.783   2.953   8.082  1.1194 -0.7186 -0.0756
 3459TIP3    H232013   1.732   2.880   8.204 -0.6318  2.0436  0.9392
 3460TIP3   OH232014   0.198   3.800   8.470  0.4652  0.0116  0.0712
 3460TIP3    H132015   0.202   3.711   8.504 -0.8920 -0.0026  0.2686
 3460TIP3    H232016   0.109   3.829   8.490  0.6545  1.1493 -0.6434
 3461TIP3   OH232017   6.238   0.967   8.784  0.4944 -0.0423  0.2370
 3461TIP3    H132018   6.172   0.915   8.830  0.5097 -0.0761  0.2198
 3461TIP3    H232019   6.322   0.934   8.817  0.5069 -0.1019  0.1468
 3462TIP3   OH232020   2.722   4.271   7.695 -0.0254 -0.3433 -0.4669
 3462TIP3    H132021   2.738   4.264   7.601 -0.0608  2.8561 -0.8188
 3462TIP3    H232022   2.777   4.343   7.723 -0.1136 -1.1516  1.9864
 3463TIP3   OH232023   3.074   5.498   8.397 -0.0250 -0.3545 -0.0618
 3463TIP3    H132024   3.106   5.411   8.375  0.8905 -0.5309  1.7410
 3463TIP3    H232025   2.978   5.491   8.392  0.0826 -1.0139 -1.4129
 3464TIP3   OH232026   0.042   5.726   1.129 -0.7799 -0.2819  0.6136
 3464TIP3    H132027   0.098   5.795   1.165 -0.9827 -0.1274  0.6299
 3464TIP3    H232028   0.064   5.723   1.036 -0.7444 -0.2211  0.6202
 3465TIP3   OH232029   1.491   0.961   7.837 -0.2087 -0.2811 -0.2376
 3465TIP3    H132030   1.573   0.956   7.887 -0.1271  1.7278 -0.0962
 3465TIP3    H232031   1.508   1.026   7.769 -1.8311  0.5549  0.1016
 3466TIP3   OH232032   2.397   4.769   1.136 -0.5913  0.4251  0.0093
 3466TIP3    H132033   2.320   4.726   1.099 -0.3161  0.6463 -0.8430
 3466TIP3    H232034   2.459   4.697   1.150 -0.7569  0.3180  0.1990
 3467TIP3   OH232035   5.218   0.252   8.067 -0.1533  0.3357  0.4327
 3467TIP3    H132036   5.287   0.236   8.003  2.1214  0.2958  2.7332
 3467TIP3    H232037   5.140   0.211   8.029  1.2750 -0.3941 -1.8915
 3468TIP3   OH232038   0.352   0.270   1.802  0.1691 -0.0267 -0.2407
 3468TIP3    H132039   0.390   0.283   1.715  1.0972 -1.7045 -0.1216
 3468TIP3    H232040   0.259   0.252   1.784  0.4186 -0.6955 -0.9230
 3469TIP3   OH232041   3.818   4.042   0.402  0.4516 -0.2144 -0.1729
 3469TIP3    H132042   3.789   4.131   0.425  0.9603 -0.5245  1.8859
 3469TIP3    H232043   3.888   4.056   0.339 -0.3155  0.7783 -0.8481
 3470TIP3   OH232044   0.855   6.065   6.889  0.2010  0.1249  0.2224
 3470TIP3    H132045   0.898   5.993   6.841 -1.8299 -0.2814 -1.1498
 3470TIP3    H232046   0.813   6.117   6.820  0.8759  2.1419  1.2788
 3471TIP3   OH232047   4.727   2.002   1.414 -0.1102  0.3485 -0.0060
 3471TIP3    H132048   4.641   2.041   1.404 -0.2622 -0.1679 -0.7940
 3471TIP3    H232049   4.756   1.983   1.324  0.0717 -1.0699  0.3178
 3472TIP3   OH232050   2.290   5.022   6.778 -0.0429  0.2812  1.0257
 3472TIP3    H132051   2.368   5.034   6.723 -0.6945 -0.1254 -0.0274
 3472TIP3    H232052   2.312   4.948   6.835 -0.2628 -0.9826 -0.4606
 3473TIP3   OH232053   3.053   4.875   1.827  0.1349 -0.2597 -0.6440
 3473TIP3    H132054   3.025   4.791   1.790  0.2494 -0.6206  0.0804
 3473TIP3    H232055   3.148   4.868   1.834  0.0920 -0.2748 -0.0761
 3474TIP3   OH232056   5.342   5.778   7.841  0.2338 -0.1328 -0.1055
 3474TIP3    H132057   5.396   5.825   7.778 -0.9458 -0.2204 -1.2056
 3474TIP3    H232058   5.371   5.687   7.834 -0.3831 -0.2660 -1.0649
 3475TIP3   OH232059   2.229   5.572   0.271  0.1916 -0.3404 -0.4092
 3475TIP3    H132060   2.300   5.636   0.267 -0.3646  0.3689  0.6250
 3475TIP3    H232061   2.224   5.537   0.182  1.8099 -0.3907 -0.5131
 3476TIP3   OH232062   4.717   2.024   1.104  0.2083 -0.6008 -0.0384
 3476TIP3    H132063   4.751   1.975   1.029  2.7434  0.5070  0.2750
 3476TIP3    H232064   4.647   2.078   1.068  1.6616  0.2406 -1.8012
 3477TIP3   OH232065   1.810   1.431   1.142 -0.4855  0.0901 -0.1138
 3477TIP3    H132066   1.726   1.476   1.154 -0.1123  1.1308 -1.1713
 3477TIP3    H232067   1.875   1.496   1.169 -0.0003 -0.5301  0.2207
 3478TIP3   OH232068   5.441   1.369   8.653 -0.4101 -0.5578 -0.6205
 3478TIP3    H132069   5.369   1.432   8.658 -1.2128 -1.5502  0.8141
 3478TIP3    H232070   5.461   1.346   8.743  2.3448  0.3337 -0.9116
 3479TIP3   OH232071   4.670   0.485   1.689  0.4366 -0.1819 -0.1908
 3479TIP3    H132072   4.581   0.518   1.684 -0.4808 -2.0199  2.3732
 3479TIP3    H232073   4.708   0.506   1.603 -2.4189  0.6214 -1.3572
 3480TIP3   OH232074   2.950   4.622   1.745 -0.1455 -0.1221  0.6367
 3480TIP3    H132075   2.870   4.572   1.760 -0.1822 -0.1279  0.4237
 3480TIP3    H232076   3.005   4.564   1.692 -0.6799  0.5207 -0.6667
 3481TIP3   OH232077   3.115   2.695   1.363  0.3448 -0.0397  0.0898
 3481TIP3    H132078   3.034   2.723   1.407  0.0470 -2.2898  1.1448
 3481TIP3    H232079   3.089   2.678   1.273  0.7096  3.5457 -0.8275
 3482TIP3   OH232080   5.703   6.264   1.111 -0.2392 -0.6477 -0.3510
 3482TIP3    H132081   5.661   6.238   1.194 -0.6912  0.6233 -0.1512
 3482TIP3    H232082   5.770   6.197   1.096 -0.2424 -0.9798  0.9704
 3483TIP3   OH232083   2.845   4.824   2.415 -0.4615 -0.3378  0.5851
 3483TIP3    H132084   2.877   4.831   2.325 -0.4425 -1.7874  0.4586
 3483TIP3    H232085   2.781   4.753   2.412 -0.1074 -0.7315  1.8174
 3484TIP3   OH232086   0.273   5.627   7.810  0.2892  0.6731  0.2458
 3484TIP3    H132087   0.297   5.559   7.747  0.0271  0.4361  0.4040
 3484TIP3    H232088   0.286   5.586   7.896 -0.8188  0.4950  0.3344
 3485TIP3   OH232089   0.273   6.668   8.364 -0.4307 -0.1815  0.1389
 3485TIP3    H132090   0.206   6.616   8.319 -0.7356 -0.2816  0.6969
 3485TIP3    H232091   0.259   6.758   8.333  0.1545 -0.4269 -0.8955
 3486TIP3   OH232092   5.473   4.250   6.410  0.1783 -0.3504  0.2264
 3486TIP3    H132093   5.514   4.177   6.364  1.1328 -0.7005  1.5718
 3486TIP3    H232094   5.545   4.291   6.458 -0.2923  1.6068 -0.6217
 3487TIP3   OH232095   2.943   1.470   1.344  0.2956 -0.2013  0.4333
 3487TIP3    H132096   2.848   1.464   1.335  0.3843 -0.6106 -0.3237
 3487TIP3    H232097   2.963   1.413   1.418  0.1027 -1.4120 -0.4207
 3488TIP3   OH232098   3.965   2.178   0.145 -0.1005 -0.5045  0.0736
 3488TIP3    H132099   4.020   2.117   0.095 -0.5422  0.3485 -1.5291
 3488TIP3    H232100   3.875   2.154   0.121 -0.2816  2.6938 -3.1834
 3489TIP3   OH232101   1.466   3.072   2.105 -0.0279 -0.4720 -0.3045
 3489TIP3    H132102   1.548   3.027   2.127  1.5170  2.2137 -0.1430
 3489TIP3    H232103   1.463   3.147   2.164 -1.8108  0.3836 -1.4025
 3490TIP3   OH232104   0.414   2.675   8.522 -0.2160  0.0867  0.3512
 3490TIP3    H132105   0.342   2.734   8.502  0.6612  1.4376  1.0321
 3490TIP3    H232106   0.389   2.633   8.604 -0.8381 -0.5213 -0.1333
 3491TIP3   OH232107   5.320   5.122   0.402  0.1882  0.6823  0.6018
 3491TIP3    H132108   5.411   5.092   0.403 -0.2319 -0.6989 -0.2877
 3491TIP3    H232109   5.273   5.055   0.451 -0.5553  0.6920 -0.0946
 3492TIP3   OH232110   0.892   4.819   1.743 -0.6220 -0.2870  0.3600
 3492TIP3    H132111   0.861   4.909   1.755 -1.1567 -0.4727  0.4077
 3492TIP3    H232112   0.960   4.825   1.677 -0.4764  0.1894  0.5475
 3493TIP3   OH232113   4.187   3.388   0.535 -0.9822 -0.2617 -0.0175
 3493TIP3    H132114   4.119   3.347   0.588 -0.4381 -1.2157 -0.0329
 3493TIP3    H232115   4.161   3.480   0.529 -2.7758 -0.7887 -0.8416
 3494TIP3   OH232116   5.365   0.111   0.375  0.2866 -0.2393 -0.5096
 3494TIP3    H132117   5.308   0.067   0.312 -0.8678  0.2006  0.1833
 3494TIP3    H232118   5.323   0.195   0.390  0.8268 -0.1265  0.4489
 3495TIP3   OH232119   2.200   0.790   1.664  0.1547  0.1199  0.0484
 3495TIP3    H132120   2.163   0.726   1.603 -0.1552 -0.2673  0.6315
 3495TIP3    H232121   2.290   0.760   1.677  0.2522  0.2580 -0.2842
 3496TIP3   OH232122   4.211   6.534   1.875  0.8324  0.2017  0.3257
 3496TIP3    H132123   4.159   6.527   1.955  1.2375  0.6663  0.6340
 3496TIP3    H232124   4.301   6.522   1.904  0.9133 -0.4834 -0.1901
 3497TIP3   OH232125   0.393   3.310   8.724 -0.3260  0.1899  0.0727
 3497TIP3    H132126   0.442   3.378   8.770  2.2978 -1.7430  0.3539
 3497TIP3    H232127   0.347   3.357   8.654  2.3036  2.1507 -0.4850
 3498TIP3   OH232128   5.968   3.266   7.324  0.0881  0.6009  0.1220
 3498TIP3    H132129   5.946   3.286   7.233  0.6692  2.8282  0.4111
 3498TIP3    H232130   6.024   3.189   7.318  1.5419  1.7046 -1.6225
 3499TIP3   OH232131   3.067   2.644   7.533  0.1812 -0.3641  0.1006
 3499TIP3    H132132   3.067   2.657   7.628 -0.8543 -1.3623  0.2527
 3499TIP3    H232133   3.005   2.710   7.500  0.8838  0.2874  0.0586
 3500TIP3   OH232134   1.875   6.453   0.231  0.3150 -0.1834 -0.0068
 3500TIP3    H132135   1.873   6.503   0.149  0.3155 -0.8777 -0.4378
 3500TIP3    H232136   1.783   6.431   0.247  0.2732  0.2495  0.3728
 3501TIP3   OH232137   3.636   2.135   6.874 -0.1073 -0.4762  0.1941
 3501TIP3    H132138   3.571   2.119   6.942 -0.2153  1.2603  0.5408
 3501TIP3    H232139   3.625   2.062   6.813 -1.7184 -0.7331  0.7458
 3502TIP3   OH232140   1.663   3.898   0.641  0.1191  0.2665  0.1790
 3502TIP3    H132141   1.691   3.844   0.566  1.3350 -0.9110  1.4085
 3502TIP3    H232142   1.605   3.964   0.603  0.7835 -0.2176 -1.8148
 3503TIP3   OH232143   6.435   4.287   0.641  0.1732  0.2070 -0.0786
 3503TIP3    H132144   6.379   4.307   0.565  0.2821 -0.3352 -0.3073
 3503TIP3    H232145   6.462   4.373   0.673  2.2397  0.4665 -2.2193
 3504TIP3   OH232146   5.973   1.318   1.404 -0.1073 -0.1986 -0.5843
 3504TIP3    H132147   5.968   1.223   1.395 -0.0600 -0.0548 -2.4904
 3504TIP3    H232148   6.044   1.333   1.466 -1.6974 -1.4275  1.6682
 3505TIP3   OH232149   6.473   0.466   2.344 -0.0592  0.6049 -0.3895
 3505TIP3    H132150   6.474   0.479   2.439  0.3606  1.0478 -0.4529
 3505TIP3    H232151   6.442   0.549   2.309  0.1060  0.5506 -0.6599
 3506TIP3   OH232152   5.190   1.894   8.112 -0.1800 -0.4336  0.7324
 3506TIP3    H132153   5.168   1.985   8.093 -0.0841 -0.5752 -0.0831
 3506TIP3    H232154   5.271   1.899   8.162  0.8313 -0.1274 -0.8687
 3507TIP3   OH232155   0.776   3.302   8.685  0.7609  0.2306 -0.2196
 3507TIP3    H132156   0.726   3.358   8.625 -1.3294 -1.1941  0.0822
 3507TIP3    H232157   0.867   3.326   8.669  0.0895  2.1778 -1.6214
 3508TIP3   OH232158   6.086   5.643   0.770 -0.2297 -0.2344 -0.1454
 3508TIP3    H132159   6.077   5.548   0.760 -0.4479 -0.1050 -1.2960
 3508TIP3    H232160   6.175   5.655   0.804  0.4445 -0.7661 -1.6368
 3509TIP3   OH232161   0.435   6.542   2.169  0.1919 -0.3155  0.0099
 3509TIP3    H132162   0.417   6.635   2.154  0.5431 -0.0562  1.0617
 3509TIP3    H232163   0.360   6.511   2.219  0.7079 -0.2390  0.8610
 3510TIP3   OH232164   6.111   6.663   2.107  0.0286  0.2163  0.4785
 3510TIP3    H132165   6.131   6.574   2.138 -0.5059  1.4559  5.1418
 3510TIP3    H232166   6.016   6.663   2.096 -0.2930  0.6653  2.7366
 3511TIP3   OH232167   5.264   4.338   6.738  0.0760  0.1600 -0.9311
 3511TIP3    H132168   5.297   4.375   6.656 -1.9720 -0.1568 -1.9845
 3511TIP3    H232169   5.208   4.408   6.773 -0.0206 -0.1630 -0.4439
 3512TIP3   OH232170   6.469   5.729   0.341 -0.0304  0.2706  0.5747
 3512TIP3    H132171   6.440   5.691   0.424 -5.1031 -1.1319 -1.5004
 3512TIP3    H232172   6.441   5.820   0.346 -1.3656 -0.0908  0.0753
 3513TIP3   OH232173   2.357   3.169   6.939  0.3120 -0.3493  0.1250
 3513TIP3    H132174   2.404   3.120   6.872  1.2456  0.7982 -0.0965
 3513TIP3    H232175   2.417   3.170   7.013 -0.5929 -1.3547  0.9087
 3514TIP3   OH232176   6.362   5.092   7.653 -0.0688  0.7174  0.0200
 3514TIP3    H132177   6.411   5.147   7.592  0.2125 -0.0783 -0.4917
 3514TIP3    H232178   6.342   5.013   7.603 -1.7617  0.9589  0.2781
 3515TIP3   OH232179   4.794   4.494   6.204  0.0855 -0.5328  0.3958
 3515TIP3    H132180   4.801   4.574   6.153  1.7335 -0.0148  1.3614
 3515TIP3    H232181   4.704   4.465   6.191 -0.8823  2.0327  0.8343
 3516TIP3   OH232182   3.607   5.474   2.257 -0.0414  0.0151 -0.4457
 3516TIP3    H132183   3.634   5.537   2.324 -1.7888 -0.2589  0.5920
 3516TIP3    H232184   3.650   5.392   2.282 -1.2451 -0.2730  0.8403
 3517TIP3   OH232185   2.543   3.158   1.084 -0.5158 -0.0498  0.1742
 3517TIP3    H132186   2.615   3.095   1.094 -0.2860  0.0768 -0.6340
 3517TIP3    H232187   2.466   3.111   1.116 -0.2459 -0.5341  0.1291
 3518TIP3   OH232188   0.071   5.488   8.648  0.3691  0.0493 -0.4764
 3518TIP3    H132189   0.130   5.456   8.716 -0.1051  0.7903  0.2998
 3518TIP3    H232190   0.081   5.426   8.576  2.0500  0.1179 -0.3479
 3519TIP3   OH232191   3.799   2.525   7.741 -0.2739  0.0456 -0.0563
 3519TIP3    H132192   3.780   2.551   7.831 -0.5309  0.6135 -0.2691
 3519TIP3    H232193   3.818   2.432   7.747  0.1283  0.1604  0.6477
 3520TIP3   OH232194   6.041   6.229   0.627 -0.1119  0.0949 -0.1846
 3520TIP3    H132195   6.059   6.322   0.614 -0.2806  0.0496 -0.7714
 3520TIP3    H232196   6.001   6.201   0.544 -1.5067 -0.1395  0.5354
 3521TIP3   OH232197   6.426   5.001   7.171 -0.0686 -0.3070  0.3764
 3521TIP3    H132198   6.505   4.970   7.216 -0.0094  1.2194  1.3579
 3521TIP3    H232199   6.460   5.047   7.094 -0.1313 -1.8351 -0.6192
 3522TIP3   OH232200   6.468   4.943   8.698 -0.2412  0.1604 -0.3912
 3522TIP3    H132201   6.490   4.983   8.614  0.7884  1.2741  0.3773
 3522TIP3    H232202   6.434   4.857   8.676  0.9363  0.0519 -1.9009
 3523TIP3   OH232203   5.671   5.796   2.586  0.2756  0.1153  0.0445
 3523TIP3    H132204   5.610   5.860   2.548 -0.1016  1.2232  2.3678
 3523TIP3    H232205   5.747   5.798   2.528 -0.5553  1.1643 -1.0597
 3524TIP3   OH232206   4.994   6.345   1.818  0.2741 -0.0111 -0.3237
 3524TIP3    H132207   5.083   6.368   1.792  0.0809  0.3997 -0.6410
 3524TIP3    H232208   5.005   6.286   1.892  0.7895  1.1510  0.5614
 3525TIP3   OH232209   1.398   2.454   0.163  0.0733 -0.3816  0.0691
 3525TIP3    H132210   1.445   2.503   0.230 -0.3655 -0.2294  0.2667
 3525TIP3    H232211   1.457   2.454   0.088 -0.1458  0.9282 -0.1247
 3526TIP3   OH232212   2.599   0.274   8.042  0.4006  0.3831 -0.3246
 3526TIP3    H132213   2.517   0.316   8.067  0.2313 -0.2270  0.1887
 3526TIP3    H232214   2.584   0.242   7.953  0.2362  0.6525 -0.3945
 3527TIP3   OH232215   2.409   6.765   7.811 -0.3447  0.0292  0.3587
 3527TIP3    H132216   2.424   6.737   7.721  0.1373  1.2027  0.0481
 3527TIP3    H232217   2.345   6.703   7.846  0.9036 -1.6091 -0.1624
 3528TIP3   OH232218   6.268   4.433   1.627  0.2032  0.6191 -0.2420
 3528TIP3    H132219   6.331   4.504   1.642 -0.0396  1.0769 -1.2785
 3528TIP3    H232220   6.191   4.476   1.590  0.4668 -0.2887 -1.9552
 3529TIP3   OH232221   0.893   6.571   7.420 -0.2563  0.4363 -0.3076
 3529TIP3    H132222   0.923   6.656   7.451  0.8555  0.7990 -2.2121
 3529TIP3    H232223   0.958   6.509   7.455  0.0790  0.6418 -0.5535
 3530TIP3   OH232224   4.911   4.331   0.828 -0.1304 -0.1424 -0.0022
 3530TIP3    H132225   4.856   4.304   0.755 -0.6518 -0.2563  0.4208
 3530TIP3    H232226   4.885   4.422   0.846  0.8819  0.3031 -0.7550
 3531TIP3   OH232227   1.502   5.595   0.467 -0.2640  0.1685 -0.7714
 3531TIP3    H132228   1.585   5.597   0.515 -0.1342 -0.9423 -0.9148
 3531TIP3    H232229   1.447   5.660   0.510  0.4538  0.4450 -0.2535
 3532TIP3   OH232230   5.972   6.234   0.366  0.0935 -0.0301  0.1490
 3532TIP3    H132231   6.060   6.268   0.349 -0.1093  0.4482  0.0366
 3532TIP3    H232232   5.972   6.147   0.327  0.3015  0.2348 -0.4610
 3533TIP3   OH232233   0.603   2.322   0.594 -0.0910  0.1428  0.3373
 3533TIP3    H132234   0.563   2.399   0.634  0.5037  0.9374 -0.5460
 3533TIP3    H232235   0.666   2.291   0.658  0.3549  0.9848  0.3203
 3534TIP3   OH232236   2.561   2.274   8.187  0.5448 -0.6390  0.0026
 3534TIP3    H132237   2.578   2.301   8.277  2.8629 -1.9900  0.0394
 3534TIP3    H232238   2.583   2.181   8.185 -0.2184 -0.8264 -1.7890
 3535TIP3   OH232239   5.120   2.958   7.472  0.1955  0.3312 -0.0286
 3535TIP3    H132240   5.129   2.871   7.434  0.5616  0.0462  0.6966
 3535TIP3    H232241   5.027   2.977   7.469  0.1474  0.0467 -0.4590
 3536TIP3   OH232242   4.677   4.279   8.527 -0.5955 -0.3588  0.0034
 3536TIP3    H132243   4.612   4.330   8.479  0.0743  1.2287  0.7042
 3536TIP3    H232244   4.725   4.231   8.459 -1.3132 -0.1354 -0.6734
 3537TIP3   OH232245   2.467   5.790   7.202 -0.6304  0.1825  0.4170
 3537TIP3    H132246   2.480   5.726   7.132  0.0427  0.7863 -0.0193
 3537TIP3    H232247   2.473   5.875   7.159  0.9153  0.5950  1.3814
 3538TIP3   OH232248   5.960   4.474   0.541 -0.6206 -0.0851  0.6354
 3538TIP3    H132249   5.867   4.488   0.525 -0.8404 -0.8741  1.1751
 3538TIP3    H232250   5.972   4.379   0.532  0.1722  0.0283  0.3769
 3539TIP3   OH232251   0.234   6.065   2.541 -0.0536  0.2323 -0.1081
 3539TIP3    H132252   0.251   6.074   2.447  1.9932 -0.3324  0.1591
 3539TIP3    H232253   0.283   5.987   2.567 -1.0735  0.0369  1.3349
 3540TIP3   OH232254   5.878   6.416   1.957  0.4175  0.3939 -0.0556
 3540TIP3    H132255   5.869   6.507   1.985 -0.9809 -0.2743  1.9498
 3540TIP3    H232256   5.910   6.371   2.035  0.9852 -0.8558 -0.9802
 3541TIP3   OH232257   1.847   1.200   2.193  0.8541 -0.3418 -0.0643
 3541TIP3    H132258   1.873   1.185   2.103  1.5547  1.4784 -0.2258
 3541TIP3    H232259   1.774   1.141   2.208  2.5769 -2.8342 -0.8601
 3542TIP3   OH232260   1.524   2.630   0.326 -0.0698  0.4930 -0.0727
 3542TIP3    H132261   1.583   2.705   0.327 -1.1428  1.3679 -0.0123
 3542TIP3    H232262   1.564   2.567   0.385  1.8961  0.1597 -1.6580
 3543TIP3   OH232263   4.969   2.355   7.553  0.0301  0.2064  0.0362
 3543TIP3    H132264   4.874   2.347   7.546 -0.0218  0.9445 -0.1972
 3543TIP3    H232265   4.992   2.298   7.626 -0.6006  0.0807  0.1470
 3544TIP3   OH232266   3.857   3.989   7.672  0.1994 -0.3483  0.3516
 3544TIP3    H132267   3.906   4.049   7.615 -1.2468 -0.0182 -0.5901
 3544TIP3    H232268   3.838   3.914   7.616  0.5966 -0.9677  1.0461
 3545TIP3   OH232269   3.508   0.456   1.637  0.7052  0.6768  0.0279
 3545TIP3    H132270   3.504   0.362   1.652  1.2370  0.3661 -1.6047
 3545TIP3    H232271   3.416   0.484   1.635  0.5481  0.2127  0.5450
 3546TIP3   OH232272   0.201   3.556   1.517 -0.4524  0.0324  0.2687
 3546TIP3    H132273   0.138   3.629   1.514  0.0419  0.4418 -0.6498
 3546TIP3    H232274   0.191   3.519   1.604  0.4364  2.2218  1.3632
 3547TIP3   OH232275   1.668   2.997   1.043 -0.0392 -0.4693  0.1904
 3547TIP3    H132276   1.755   2.971   1.073 -0.1797 -0.8622  0.2727
 3547TIP3    H232277   1.672   2.986   0.948  0.0960 -0.1883  0.1626
 3548TIP3   OH232278   0.869   2.647   0.449 -0.0754 -0.0998  0.1917
 3548TIP3    H132279   0.806   2.664   0.519  0.4322  0.6765  0.4675
 3548TIP3    H232280   0.858   2.720   0.388  0.4596 -0.0313  0.1728
 3549TIP3   OH232281   1.470   5.619   1.768  0.0758 -1.0614  0.2302
 3549TIP3    H132282   1.399   5.669   1.728 -1.1148 -0.1212  3.2605
 3549TIP3    H232283   1.513   5.682   1.827  0.6140 -2.7683  1.7296
 3550TIP3   OH232284   6.858   4.406   7.716 -0.0661  0.0646  0.0990
 3550TIP3    H132285   6.770   4.393   7.751  0.5637 -0.2058  1.6758
 3550TIP3    H232286   6.901   4.462   7.780  2.0359 -2.7331  1.3443
 3551TIP3   OH232287   1.526   3.853   8.544  0.2200 -0.2602  0.4574
 3551TIP3    H132288   1.565   3.834   8.458 -1.4889 -0.3825 -0.3282
 3551TIP3    H232289   1.574   3.930   8.575  0.2564  0.3601 -1.0424
 3552TIP3   OH232290   6.652   0.101   8.571 -0.3500 -0.8654  0.0255
 3552TIP3    H132291   6.731   0.067   8.613  0.0664  1.0153  0.9037
 3552TIP3    H232292   6.666   0.086   8.478  0.1462 -2.2966  0.3028
 3553TIP3   OH232293   3.291   1.350   8.753 -0.5541  0.7712  0.0858
 3553TIP3    H132294   3.319   1.260   8.735 -2.0751  0.6674 -2.0199
 3553TIP3    H232295   3.321   1.400   8.677  0.4198  2.1338  1.3054
 3554TIP3   OH232296   2.522   6.732   1.901 -0.1123  0.0032 -0.4317
 3554TIP3    H132297   2.614   6.754   1.883  0.2241 -0.8810  0.1625
 3554TIP3    H232298   2.482   6.727   1.814  0.2497  0.9761 -0.6730
 3555TIP3   OH232299   1.218   1.081   2.407 -0.6851 -0.2581  0.4029
 3555TIP3    H132300   1.236   0.988   2.396 -0.0484 -0.0173 -0.6296
 3555TIP3    H232301   1.178   1.108   2.324  1.6928  0.9864 -0.4314
 3556TIP3   OH232302   1.568   3.670   1.411 -0.0683 -0.3035 -0.0069
 3556TIP3    H132303   1.661   3.648   1.416  0.0918  0.2995 -0.1996
 3556TIP3    H232304   1.564   3.744   1.350 -0.8944 -1.5359 -1.5303
 3557TIP3   OH232305   5.158   3.159   8.329  0.0549 -0.1811 -0.5021
 3557TIP3    H132306   5.212   3.090   8.293  2.6325  0.9716  0.9247
 3557TIP3    H232307   5.130   3.210   8.252 -1.1403 -2.1963 -1.4676
 3558TIP3   OH232308   1.641   3.460   7.828 -0.1720  0.6057 -0.2476
 3558TIP3    H132309   1.644   3.440   7.921  0.8849 -1.5117 -0.6707
 3558TIP3    H232310   1.642   3.555   7.823  0.1741  0.7472  1.8754
 3559TIP3   OH232311   2.683   0.651   0.995 -1.4258 -0.7396  0.4822
 3559TIP3    H132312   2.654   0.561   1.007  1.3910 -1.6578  1.2459
 3559TIP3    H232313   2.761   0.659   1.049 -1.3187  2.0506  0.0843
 3560TIP3   OH232314   1.383   2.462   6.883 -0.0987 -0.0754  0.0705
 3560TIP3    H132315   1.445   2.416   6.940  1.0395 -0.7518 -1.6416
 3560TIP3    H232316   1.297   2.432   6.912  0.5407 -1.9880  0.1298
 3561TIP3   OH232317   2.701   0.080   8.471 -0.3187 -0.1820  0.3439
 3561TIP3    H132318   2.769   0.144   8.494 -1.2492  0.5975  1.0130
 3561TIP3    H232319   2.691   0.090   8.376  2.2300 -2.0910 -0.2258
 3562TIP3   OH232320   1.782   0.687   1.376  0.2751  0.3975  0.1785
 3562TIP3    H132321   1.747   0.776   1.376  1.3811  0.8773  1.8102
 3562TIP3    H232322   1.874   0.697   1.352  1.1734  0.1132  3.1260
 3563TIP3   OH232323   1.660   2.446   1.007  0.2385 -0.3476 -0.6751
 3563TIP3    H132324   1.678   2.375   1.068  0.7849 -0.4293 -0.9244
 3563TIP3    H232325   1.630   2.518   1.062 -1.1632 -1.0360 -0.5015
 3564TIP3   OH232326   3.260   5.803   0.582  0.4713 -0.6502  0.2668
 3564TIP3    H132327   3.194   5.743   0.549 -0.2996  1.1551 -1.7468
 3564TIP3    H232328   3.327   5.806   0.513  0.6445  0.5020  0.4554
 3565TIP3   OH232329   0.460   5.572   0.255  0.3550 -0.0889 -0.0584
 3565TIP3    H132330   0.418   5.512   0.193 -0.2678  0.8888 -0.6145
 3565TIP3    H232331   0.476   5.519   0.333 -0.5128 -0.8831 -0.4013
 3566TIP3   OH232332   3.858   5.319   1.140 -0.6311 -0.3856 -0.0818
 3566TIP3    H132333   3.767   5.291   1.137 -0.9886  0.5436  1.3090
 3566TIP3    H232334   3.866   5.367   1.222  0.6062  1.2472 -1.0920
 3567TIP3   OH232335   0.350   6.645   0.479  0.2749  0.3736 -0.3892
 3567TIP3    H132336   0.437   6.605   0.479  0.0006 -0.2329 -0.1539
 3567TIP3    H232337   0.296   6.584   0.429  0.0019  0.7867 -0.5960
 3568TIP3   OH232338   6.733   1.109   6.671 -0.2660  0.0940  0.3912
 3568TIP3    H132339   6.720   1.141   6.761  2.5624 -1.4403  1.4569
 3568TIP3    H232340   6.808   1.158   6.639  0.6910 -1.5105  0.0576
 3569TIP3   OH232341   2.280   2.996   7.644 -0.0869  0.0101 -0.3216
 3569TIP3    H132342   2.293   2.905   7.670 -1.6092  0.0582  0.7567
 3569TIP3    H232343   2.301   3.046   7.723 -2.3103  0.3499  0.1082
 3570TIP3   OH232344   5.839   2.905   0.090  0.0072  0.0782  0.3654
 3570TIP3    H132345   5.912   2.966   0.106 -0.2585  0.3027  0.7496
 3570TIP3    H232346   5.868   2.822   0.128  1.0760 -0.5310 -1.6449
 3571TIP3   OH232347   5.704   0.950   0.268  0.3775  0.4601 -0.2727
 3571TIP3    H132348   5.721   1.031   0.315  0.5001 -0.6932  1.8224
 3571TIP3    H232349   5.612   0.956   0.241  0.2797  1.1476  0.1916
 3572TIP3   OH232350   4.103   0.721   1.941 -0.8967 -0.1221 -0.2880
 3572TIP3    H132351   4.066   0.753   2.023 -1.2708 -1.4558  0.0803
 3572TIP3    H232352   4.098   0.797   1.882 -1.2948  0.6404  0.6894
 3573TIP3   OH232353   2.872   2.741   1.533  0.2530  0.0091 -0.0317
 3573TIP3    H132354   2.801   2.735   1.597 -1.7624  0.2568 -2.1421
 3573TIP3    H232355   2.866   2.830   1.498  0.4984 -0.5028 -1.4486
 3574TIP3   OH232356   2.078   5.555   8.510 -0.0097  0.3204 -0.1192
 3574TIP3    H132357   2.082   5.647   8.483 -0.4074  0.4573  0.2810
 3574TIP3    H232358   2.170   5.529   8.517  0.2274  1.5175  2.4717
 3575TIP3   OH232359   5.757   0.211   6.990 -0.1496 -0.5501 -0.1306
 3575TIP3    H132360   5.680   0.208   6.934 -0.3418 -0.5065  0.1296
 3575TIP3    H232361   5.725   0.245   7.073  0.0461 -1.0294  0.1439
 3576TIP3   OH232362   1.641   3.946   6.216  0.4918 -0.1282 -0.1736
 3576TIP3    H132363   1.576   3.894   6.168  1.8981 -1.7750 -0.3801
 3576TIP3    H232364   1.633   4.034   6.179 -1.6083 -0.2853 -0.1772
 3577TIP3   OH232365   2.076   3.400   7.134  0.2521  0.2186  0.3058
 3577TIP3    H132366   2.131   3.411   7.212  2.9348 -1.0901 -1.2544
 3577TIP3    H232367   2.075   3.487   7.095  3.5807 -0.1620 -0.9681
 3578TIP3   OH232368   2.703   1.834   7.162 -0.0945  0.4928 -0.2730
 3578TIP3    H132369   2.654   1.895   7.106  1.6190  1.1177 -1.1565
 3578TIP3    H232370   2.785   1.879   7.181  1.5314 -1.7783 -1.4994
 3579TIP3   OH232371   2.290   4.122   0.920 -0.0800 -0.7708 -0.1339
 3579TIP3    H132372   2.262   4.118   1.011 -0.9899 -0.3703 -0.3825
 3579TIP3    H232373   2.346   4.200   0.915 -2.4808  1.0324 -0.5185
 3580TIP3   OH232374   0.968   3.897   1.169 -0.3300  0.2248 -0.2078
 3580TIP3    H132375   0.873   3.899   1.177 -0.3521  0.2373 -0.4956
 3580TIP3    H232376   0.997   3.977   1.215 -0.6010  1.5304 -2.1948
 3581TIP3   OH232377   0.976   3.453   2.282 -0.2122  0.5401 -0.6660
 3581TIP3    H132378   0.999   3.528   2.227  0.1666 -0.1189 -1.4102
 3581TIP3    H232379   0.997   3.482   2.371 -1.0336  1.6951 -0.8145
 3582TIP3   OH232380   2.195   3.087   0.619  0.1676 -0.2806  0.2834
 3582TIP3    H132381   2.190   3.091   0.715  1.3231  0.1344  0.3523
 3582TIP3    H232382   2.228   2.999   0.601  0.2044 -0.2672  0.2852
 3583TIP3   OH232383   1.253   0.648   0.261 -0.3983  0.0091  0.3928
 3583TIP3    H132384   1.236   0.555   0.275  1.4753 -0.1751  2.0410
 3583TIP3    H232385   1.279   0.655   0.169 -0.5687 -1.0948  0.2553
 3584TIP3   OH232386   3.588   5.383   7.572  0.2596 -0.1886  0.2130
 3584TIP3    H132387   3.613   5.433   7.495 -0.7621 -2.7217 -1.9203
 3584TIP3    H232388   3.668   5.375   7.623  0.9230  1.6902 -0.4481
 3585TIP3   OH232389   2.707   5.647   0.188  0.5964 -0.2482  0.2200
 3585TIP3    H132390   2.687   5.736   0.215  0.9690  0.1190 -0.6607
 3585TIP3    H232391   2.797   5.632   0.216  0.6716 -0.1948  0.0115
 3586TIP3   OH232392   4.538   5.828   7.463  0.1459 -0.5832 -0.0309
 3586TIP3    H132393   4.590   5.825   7.382 -0.1496  1.7311 -0.3683
 3586TIP3    H232394   4.465   5.887   7.442  0.3219  0.4544  2.0444
 3587TIP3   OH232395   1.419   1.686   0.008  0.8794  0.4853 -0.3193
 3587TIP3    H132396   1.356   1.758   0.014  0.8340  0.3714  0.8346
 3587TIP3    H232397   1.408   1.652  -0.081 -1.6752 -0.3970  0.2563
 3588TIP3   OH232398   6.474   6.760   0.327 -0.6342 -0.3633 -0.5488
 3588TIP3    H132399   6.448   6.790   0.413  3.1617 -0.5403  0.8650
 3588TIP3    H232400   6.416   6.686   0.309 -2.3283  0.4421  1.2350
 3589TIP3   OH232401   5.339   3.324   6.226  0.4166  0.5624 -0.5354
 3589TIP3    H132402   5.280   3.309   6.301  1.6333 -0.9506  0.1814
 3589TIP3    H232403   5.330   3.245   6.173 -0.7170  1.7699 -2.2672
 3590TIP3   OH232404   5.977   4.140   8.071 -0.1918 -0.2979  0.4410
 3590TIP3    H132405   6.037   4.181   8.133 -0.1545  0.5179 -0.1203
 3590TIP3    H232406   5.892   4.140   8.117 -0.3897  1.2437  0.1252
 3591TIP3   OH232407   0.649   5.172   8.510  0.5814  0.2893  0.6245
 3591TIP3    H132408   0.591   5.096   8.511  1.9434 -0.8118  0.1398
 3591TIP3    H232409   0.680   5.180   8.601 -0.3626  0.9226  0.8982
 3592TIP3   OH232410   5.600   1.512   7.336  0.0348 -0.3366 -0.5256
 3592TIP3    H132411   5.561   1.555   7.260 -1.6572 -0.2822  0.3335
 3592TIP3    H232412   5.534   1.450   7.366 -0.2161  1.0159  2.0543
 3593TIP3   OH232413   5.818   2.616   7.506 -0.5267  0.5775  0.5347
 3593TIP3    H132414   5.871   2.544   7.471 -0.2341  0.7542  0.6177
 3593TIP3    H232415   5.779   2.656   7.428 -0.9424  0.1395  0.5064
 3594TIP3   OH232416   4.998   1.712   7.378  0.4074 -0.1640 -0.0728
 3594TIP3    H132417   5.088   1.689   7.353  0.5053  1.1201 -1.0004
 3594TIP3    H232418   4.963   1.632   7.417  0.5762 -2.0811 -3.4482
 3595TIP3   OH232419   1.031   4.833   0.564  0.6318  0.8230  0.2675
 3595TIP3    H132420   1.006   4.750   0.604  1.6202  0.1577 -0.4527
 3595TIP3    H232421   1.099   4.810   0.500 -0.6254  1.8731 -1.5427
 3596TIP3   OH232422   6.112   6.555   8.316  0.2368  0.3048  0.1707
 3596TIP3    H132423   6.192   6.534   8.364  0.2551  1.9775  0.9564
 3596TIP3    H232424   6.041   6.521   8.370  0.3076  1.2558  0.8776
 3597TIP3   OH232425   1.391   3.718   7.675 -0.2511  0.2885  0.0657
 3597TIP3    H132426   1.474   3.735   7.719 -0.4481 -1.4256  1.2010
 3597TIP3    H232427   1.327   3.708   7.746 -1.3590  1.1582 -0.7686
 3598TIP3   OH232428   6.087   6.723   0.745 -0.3011 -0.1047 -0.0213
 3598TIP3    H132429   5.998   6.731   0.711 -0.3940 -1.8073 -0.2847
 3598TIP3    H232430   6.093   6.789   0.813 -1.7220  0.1478 -0.1127
 3599TIP3   OH232431   2.780   2.149   6.725  0.4300 -0.4661 -0.4637
 3599TIP3    H132432   2.799   2.068   6.772  1.0736 -0.1802 -0.2213
 3599TIP3    H232433   2.686   2.163   6.738  0.7623  0.1786  1.6869
 3600TIP3   OH232434   3.323   0.598   7.577  0.1126  0.0392  0.5178
 3600TIP3    H132435   3.353   0.508   7.560 -0.9229 -0.4137  0.9920
 3600TIP3    H232436   3.403   0.650   7.577  0.5136 -0.3949 -2.6024
 3601TIP3   OH232437   3.859   1.292   7.922  0.2676  0.2781  0.6980
 3601TIP3    H132438   3.908   1.326   7.997  1.1597 -0.2661  0.3719
 3601TIP3    H232439   3.809   1.367   7.890 -1.0815  0.2681  2.5452
 3602TIP3   OH232440   4.729   6.557   8.022 -0.0238 -0.5295  0.1312
 3602TIP3    H132441   4.757   6.491   8.085  1.1643 -1.1631 -1.0153
 3602TIP3    H232442   4.634   6.561   8.032  0.1198 -0.6658  1.8830
 3603TIP3   OH232443   3.786   0.274   2.056 -0.9037  0.4869 -0.5829
 3603TIP3    H132444   3.832   0.350   2.021 -1.3741  0.4189 -1.3662
 3603TIP3    H232445   3.855   0.216   2.088 -0.5710  2.1063  1.9307
 3604TIP3   OH232446   3.686   6.217   8.271 -0.0551  0.7163 -0.5123
 3604TIP3    H132447   3.750   6.225   8.201  0.6616 -0.2807  0.0103
 3604TIP3    H232448   3.702   6.293   8.327  0.8931  0.3227 -0.2238
 3605TIP3   OH232449   3.381   6.179   2.449  0.5766 -0.2520 -0.3500
 3605TIP3    H132450   3.418   6.107   2.397 -1.2865 -0.8276 -0.9387
 3605TIP3    H232451   3.421   6.258   2.411  4.7332 -0.9191  1.9918
 3606TIP3   OH232452   0.371   3.066   0.298  0.0611  0.2724  0.3340
 3606TIP3    H132453   0.319   3.056   0.218  0.8146 -0.2739 -0.0982
 3606TIP3    H232454   0.377   2.977   0.333  1.1786  0.2345  0.0740
 3607TIP3   OH232455   3.965   6.838   0.603 -0.1188 -0.3946  0.1848
 3607TIP3    H132456   3.879   6.811   0.634 -0.2342  0.7448  0.9129
 3607TIP3    H232457   4.008   6.876   0.680  0.0921  1.2974 -0.7221
 3608TIP3   OH232458   5.296   4.258   7.518 -0.5916 -0.5780 -0.6527
 3608TIP3    H132459   5.356   4.309   7.464  0.4099 -0.8075  0.2230
 3608TIP3    H232460   5.252   4.323   7.573 -1.3082 -0.3909 -1.4155
 3609TIP3   OH232461   5.053   3.051   2.843 -0.2870 -0.5438  0.2405
 3609TIP3    H132462   5.016   3.108   2.910  0.0087 -0.3573  0.2472
 3609TIP3    H232463   5.104   3.110   2.787 -0.2503 -0.7513  0.0544
 3610TIP3   OH232464   2.709   5.707   0.869 -0.1676 -0.4466 -0.1897
 3610TIP3    H132465   2.805   5.703   0.870 -0.1512 -0.4305  1.5776
 3610TIP3    H232466   2.689   5.785   0.816  0.8133 -0.1362 -0.1216
 3611TIP3   OH232467   6.842   4.117   7.162  0.1571 -0.1853 -0.5471
 3611TIP3    H132468   6.757   4.074   7.172  0.6070 -1.0130 -0.2094
 3611TIP3    H232469   6.821   4.207   7.138 -0.8757  0.2839  1.8280
 3612TIP3   OH232470   3.068   3.503   1.768 -1.0255 -0.4529  0.2315
 3612TIP3    H132471   2.974   3.518   1.777 -0.9753 -0.4506  0.7283
 3612TIP3    H232472   3.099   3.488   1.857 -0.2468  1.3279  0.3180
 3613TIP3   OH232473   1.851   6.607   8.814  0.0720  0.2084 -0.1664
 3613TIP3    H132474   1.851   6.625   8.720  0.4675 -2.3060 -0.6924
 3613TIP3    H232475   1.926   6.657   8.848  0.3688  0.5457 -1.2829
 3614TIP3   OH232476   2.773   1.041   2.565  0.3325  0.5035  0.1043
 3614TIP3    H132477   2.831   0.980   2.609  1.0837  0.7844 -0.4845
 3614TIP3    H232478   2.774   1.119   2.620 -1.9823 -0.5297  1.8219
 3615TIP3   OH232479   1.165   3.034   6.944  0.6509  0.2568 -0.3325
 3615TIP3    H132480   1.225   2.995   6.881  0.0963 -0.0201 -0.6896
 3615TIP3    H232481   1.094   2.971   6.954 -0.5287  1.3649 -1.3213
 3616TIP3   OH232482   5.454   1.918   1.472 -0.0665  0.2479  0.1197
 3616TIP3    H132483   5.448   1.825   1.449 -0.9876 -0.3520  2.5037
 3616TIP3    H232484   5.372   1.956   1.440  0.5737  0.4126 -1.3984
 3617TIP3   OH232485   6.078   3.106   5.926 -0.4875  0.2035 -0.2204
 3617TIP3    H132486   5.988   3.106   5.895 -0.9419 -0.6878  1.0099
 3617TIP3    H232487   6.097   3.014   5.945  1.1031  0.1900 -1.5845
 3618TIP3   OH232488   1.296   0.694   8.802 -0.1656 -0.0124  0.1359
 3618TIP3    H132489   1.243   0.747   8.742  0.2189  0.0071 -0.1893
 3618TIP3    H232490   1.362   0.755   8.836 -0.8269  0.1670  1.1522
 3619TIP3   OH232491   0.683   5.136   0.035  0.1356  0.2074 -0.2263
 3619TIP3    H132492   0.766   5.181   0.022 -0.0878  0.1839 -1.9961
 3619TIP3    H232493   0.641   5.183   0.108  1.5627  0.3750  0.5156
 3620TIP3   OH232494   0.723   3.080   1.763 -0.0445 -0.5433  0.1048
 3620TIP3    H132495   0.671   3.058   1.840 -1.3423  1.3141 -0.1781
 3620TIP3    H232496   0.678   3.155   1.724  2.2588  0.4528 -0.7957
 3621TIP3   OH232497   4.452   6.206   7.414 -0.0041  0.1248 -0.0783
 3621TIP3    H132498   4.403   6.133   7.375 -1.5796  1.1311 -0.0696
 3621TIP3    H232499   4.385   6.261   7.453  1.3049  0.6576  1.5258
 3622TIP3   OH232500   4.951   3.819   6.876  0.1270  0.3359  0.1572
 3622TIP3    H132501   4.954   3.909   6.843 -0.0371 -0.3655 -1.9466
 3622TIP3    H232502   4.858   3.802   6.892 -0.1631 -0.1908 -1.8114
 3623TIP3   OH232503   3.984   3.999   7.918 -0.3655  0.3817  0.1104
 3623TIP3    H132504   3.952   4.022   7.831  0.0272  1.0584  0.1373
 3623TIP3    H232505   4.053   3.934   7.902 -1.4808 -0.8214  0.0339
 3624TIP3   OH232506   5.105   0.813   8.138 -0.0963  0.2049  0.1745
 3624TIP3    H132507   5.182   0.852   8.180 -0.0419 -0.9328  1.2022
 3624TIP3    H232508   5.040   0.883   8.138  0.9012  1.1832 -0.6940
 3625TIP3   OH232509   1.857   3.251   8.146  0.2288  0.2558 -0.0041
 3625TIP3    H132510   1.794   3.207   8.202  0.8786  0.5530  0.9838
 3625TIP3    H232511   1.811   3.329   8.115 -0.2938 -0.1561 -0.2632
 3626TIP3   OH232512   4.048   2.522   6.836 -0.3376  0.5158  0.2818
 3626TIP3    H132513   4.068   2.614   6.856  0.5018  0.5772 -0.7405
 3626TIP3    H232514   4.067   2.476   6.918 -0.5517  1.2153  0.7420
 3627TIP3   OH232515   6.054   2.669   6.840  0.0580  0.6797 -0.1977
 3627TIP3    H132516   6.144   2.702   6.837 -0.0559  1.0115 -0.0844
 3627TIP3    H232517   6.020   2.684   6.752 -0.7604  3.1050  0.4576
 3628TIP3   OH232518   1.821   0.619   7.136  0.0940 -0.4708  0.3274
 3628TIP3    H132519   1.876   0.653   7.066  1.0049  0.0668  1.2843
 3628TIP3    H232520   1.798   0.530   7.107  0.4761 -0.2647 -0.6329
 3629TIP3   OH232521   3.015   4.143   7.681 -0.7297  0.5338  0.3281
 3629TIP3    H132522   3.046   4.192   7.604  1.8397  0.7031  1.3601
 3629TIP3    H232523   3.026   4.203   7.754 -4.2560  0.8013  0.8195
 3630TIP3   OH232524   2.189   2.628   8.612 -0.1195  0.1453  0.2666
 3630TIP3    H132525   2.185   2.724   8.617  0.5967  0.1333  2.2264
 3630TIP3    H232526   2.245   2.610   8.537 -0.5543  1.2351 -0.3525
 3631TIP3   OH232527   5.805   3.565   6.529 -0.0085 -0.3047  0.4895
 3631TIP3    H132528   5.800   3.485   6.581 -0.7099 -0.2276  0.5455
 3631TIP3    H232529   5.772   3.539   6.443  1.2171 -0.4506  0.0399
 3632TIP3   OH232530   1.749   5.584   0.636  0.1038  0.0825 -0.5825
 3632TIP3    H132531   1.816   5.556   0.574  1.2516 -0.1976  0.7314
 3632TIP3    H232532   1.706   5.503   0.663 -0.4354  0.2101 -1.0512
 3633TIP3   OH232533   5.229   3.904   2.774 -0.4594  0.0077 -0.6937
 3633TIP3    H132534   5.291   3.834   2.752 -1.0460 -0.8112  0.1815
 3633TIP3    H232535   5.187   3.926   2.691 -1.2175 -1.6253 -0.7846
 3634TIP3   OH232536   3.562   5.078   7.623 -0.2681  0.3410 -0.2586
 3634TIP3    H132537   3.506   5.148   7.589  1.1074  0.1798 -3.2200
 3634TIP3    H232538   3.606   5.044   7.545  0.4800 -2.6252  1.3296
 3635TIP3   OH232539   5.517   3.228   2.054 -0.0761  0.4567  0.5119
 3635TIP3    H132540   5.593   3.191   2.098  1.0601  1.0938 -0.8179
 3635TIP3    H232541   5.526   3.199   1.963 -2.4512 -1.0125  0.6602
 3636TIP3   OH232542   1.624   0.752   1.750 -0.2535  0.4589  0.1197
 3636TIP3    H132543   1.689   0.698   1.705 -0.5881  0.9270 -0.9739
 3636TIP3    H232544   1.598   0.701   1.826  0.6545 -0.1709  0.0170
 3637TIP3   OH232545   1.574   4.715   0.396  0.3599 -0.0497  0.1795
 3637TIP3    H132546   1.603   4.751   0.479 -0.7530  1.5362 -0.0690
 3637TIP3    H232547   1.639   4.649   0.374  1.2913  0.3017  1.7410
 3638TIP3   OH232548   4.845   0.027   8.268 -0.0274 -0.2324  0.3469
 3638TIP3    H132549   4.823   0.025   8.361 -1.1897 -1.3354  0.0632
 3638TIP3    H232550   4.799   0.104   8.234 -0.8248 -0.6785  0.3993
 3639TIP3   OH232551   3.370   3.630   0.408  0.1944  0.5483  0.3265
 3639TIP3    H132552   3.301   3.580   0.366 -0.8058  0.8589  1.5345
 3639TIP3    H232553   3.427   3.565   0.448  0.2438  0.3040 -0.1478
 3640TIP3   OH232554   1.904   1.861   7.982 -0.1863 -0.1608  0.0989
 3640TIP3    H132555   1.944   1.894   7.901  0.7211 -1.7992 -0.1667
 3640TIP3    H232556   1.821   1.909   7.989 -0.9360 -0.8929 -2.5318
 3641TIP3   OH232557   0.608   4.273   0.349  0.0117  0.3706  0.1634
 3641TIP3    H132558   0.636   4.236   0.266 -0.1321  1.1036 -0.2154
 3641TIP3    H232559   0.666   4.232   0.414 -0.6902 -1.1509 -0.1228
 3642TIP3   OH232560   4.396   0.491   8.192 -0.1577 -0.2432  0.0465
 3642TIP3    H132561   4.375   0.450   8.108  0.5734  0.1027 -0.3128
 3642TIP3    H232562   4.491   0.481   8.200 -0.3594 -1.4069  1.4419
 3643TIP3   OH232563   4.651   1.247   0.364 -0.1470 -0.2949  0.2976
 3643TIP3    H132564   4.660   1.164   0.410  1.4845 -0.1707  0.2454
 3643TIP3    H232565   4.652   1.313   0.433  1.3152 -0.1715  0.1901
 3644TIP3   OH232566   4.622   5.805   2.318  0.2753  0.2265  0.5376
 3644TIP3    H132567   4.636   5.875   2.381  2.1715 -1.1060  1.7289
 3644TIP3    H232568   4.562   5.744   2.361  0.0596  0.2439  0.2635
 3645TIP3   OH232569   1.629   4.093   8.341  0.2599  0.1328  0.3183
 3645TIP3    H132570   1.638   4.188   8.345  0.6689  0.0762  1.0659
 3645TIP3    H232571   1.705   4.060   8.390 -0.2871 -0.5601  0.7102
 3646TIP3   OH232572   2.790   1.608   0.381 -0.3489 -0.1189  0.2347
 3646TIP3    H132573   2.752   1.548   0.316 -1.0530  0.7642 -0.1880
 3646TIP3    H232574   2.884   1.598   0.370 -0.4204  0.8722 -1.7733
 3647TIP3   OH232575   6.280   3.001   0.986 -0.5190 -0.4757 -0.0716
 3647TIP3    H132576   6.343   2.956   0.930 -0.0703 -0.7597  0.6605
 3647TIP3    H232577   6.239   3.066   0.928 -0.6752 -1.3419 -0.9557
 3648TIP3   OH232578   6.359   1.864   6.662  0.1341  0.3182 -0.4084
 3648TIP3    H132579   6.429   1.926   6.685  1.9624 -2.0393  0.8328
 3648TIP3    H232580   6.299   1.915   6.608  1.6580  3.0735  0.2917
 3649TIP3   OH232581   0.884   5.264   1.016  0.2112 -0.2782 -0.4503
 3649TIP3    H132582   0.933   5.292   0.938  1.2206  0.4233  0.4058
 3649TIP3    H232583   0.950   5.222   1.071 -0.0728  0.8786  0.8320
 3650TIP3   OH232584   1.677   0.466   7.504 -0.1897 -0.0513  0.1088
 3650TIP3    H132585   1.722   0.501   7.581  0.3273 -1.9695  0.7320
 3650TIP3    H232586   1.747   0.428   7.451 -0.9132 -2.0733  0.5377
 3651TIP3   OH232587   1.993   5.781   0.305  0.4675 -0.5444 -0.0196
 3651TIP3    H132588   2.028   5.693   0.292  1.7828 -0.0283 -0.1707
 3651TIP3    H232589   1.977   5.787   0.399 -0.7422 -1.3204 -0.1532
 3652TIP3   OH232590   2.293   1.988   2.274 -0.2926  0.0691  0.3050
 3652TIP3    H132591   2.201   1.964   2.273 -0.1611 -0.4353 -0.3308
 3652TIP3    H232592   2.332   1.935   2.343 -0.6461  0.9850  1.2402
 3653TIP3   OH232593   5.049   3.953   8.695 -0.0137  0.0601  0.2981
 3653TIP3    H132594   5.003   4.037   8.683 -0.8050 -0.4557 -0.4053
 3653TIP3    H232595   5.084   3.932   8.609 -1.8901 -1.4880 -0.1696
 3654TIP3   OH232596   4.140   2.223   6.613  0.0419 -0.3887  0.0184
 3654TIP3    H132597   4.051   2.199   6.638 -0.5912 -0.4394 -2.1313
 3654TIP3    H232598   4.175   2.146   6.569 -0.2252  0.8173 -2.4635
 3655TIP3   OH232599   6.663   0.127   2.214  0.6027 -0.3941  0.7701
 3655TIP3    H132600   6.659   0.041   2.172 -0.5460  0.4042 -0.8275
 3655TIP3    H232601   6.586   0.129   2.271 -0.5869  0.3358 -0.7963
 3656TIP3   OH232602   6.554   4.413   0.370  0.1436  0.1298  0.5157
 3656TIP3    H132603   6.541   4.324   0.405 -0.2996  0.4014  1.0478
 3656TIP3    H232604   6.466   4.449   0.363  0.2383  0.1483 -0.7474
 3657TIP3   OH232605   4.822   5.245   8.787 -0.0678  0.3411  0.5557
 3657TIP3    H132606   4.839   5.204   8.702 -0.1551 -0.0754  0.7358
 3657TIP3    H232607   4.908   5.274   8.817  0.4399 -1.9157  1.5459
 3658TIP3   OH232608   5.728   3.128   2.794 -0.3138  0.2050  0.3045
 3658TIP3    H132609   5.783   3.193   2.750 -0.6071 -1.2893 -2.4625
 3658TIP3    H232610   5.653   3.116   2.736  0.4835 -3.7121 -0.1504
 3659TIP3   OH232611   2.864   4.022   0.750  0.8160  0.3157 -0.1296
 3659TIP3    H132612   2.802   4.067   0.807 -0.1154  1.2632 -1.8374
 3659TIP3    H232613   2.874   3.935   0.790  1.2891  1.3695  2.2327
 3660TIP3   OH232614   0.294   1.054   1.244 -0.3468 -0.3638 -0.4093
 3660TIP3    H132615   0.368   1.105   1.277 -1.2646  0.2128  0.8215
 3660TIP3    H232616   0.232   1.119   1.211 -0.6538 -0.7990 -0.7038
 3661TIP3   OH232617   4.242   4.485   1.849  0.1350  1.1468 -0.0687
 3661TIP3    H132618   4.220   4.432   1.925  0.4297  0.1330 -0.6684
 3661TIP3    H232619   4.312   4.543   1.879  0.5124  0.4899  0.3468
 3662TIP3   OH232620   2.943   0.716   1.112 -0.3264  0.0587  0.2120
 3662TIP3    H132621   2.959   0.737   1.204 -1.3734  1.6927  0.0509
 3662TIP3    H232622   3.022   0.747   1.067  0.9237 -2.2063  0.6817
 3663TIP3   OH232623   6.527   3.371   8.587  0.4063  1.0455  0.1678
 3663TIP3    H132624   6.469   3.342   8.657  2.4185  0.9457  1.8893
 3663TIP3    H232625   6.474   3.431   8.534 -1.2267  0.9713  1.6617
 3664TIP3   OH232626   6.139   1.686   1.799 -0.1988 -0.4051  0.1719
 3664TIP3    H132627   6.106   1.733   1.876  1.3602  0.6358  0.2650
 3664TIP3    H232628   6.154   1.755   1.734  2.9468 -0.5651  0.5961
 3665TIP3   OH232629   3.517   5.825   8.029  0.1255  0.3166 -0.4231
 3665TIP3    H132630   3.582   5.757   8.049  0.4218  0.3343 -1.2791
 3665TIP3    H232631   3.523   5.886   8.102 -0.5706 -0.8864  0.6736
 3666TIP3   OH232632   2.023   1.488   2.067 -0.2598 -0.1454  0.5193
 3666TIP3    H132633   1.962   1.555   2.037 -0.0963 -0.0185  0.4705
 3666TIP3    H232634   2.073   1.529   2.137  0.5518  0.1286 -0.2059
 3667TIP3   OH232635   4.012   3.805   1.583 -0.2227  0.1130 -0.0145
 3667TIP3    H132636   3.921   3.783   1.561 -0.3632 -0.7551  1.2894
 3667TIP3    H232637   4.014   3.802   1.679  1.7775 -2.6428 -0.0134
 3668TIP3   OH232638   0.599   0.021   7.432  0.4972 -0.4722  0.2730
 3668TIP3    H132639   0.640   0.009   7.347 -0.5459 -0.5423 -0.2371
 3668TIP3    H232640   0.660  -0.018   7.494  2.0429  1.0407 -0.2396
 3669TIP3   OH232641   4.387   5.375   8.119  0.3444  0.5850 -0.1246
 3669TIP3    H132642   4.336   5.425   8.182 -0.6925 -0.7867  0.1958
 3669TIP3    H232643   4.340   5.386   8.036  0.5058  0.7016 -0.2002
 3670TIP3   OH232644   1.861   1.795   6.947 -0.5571 -0.4648  0.3645
 3670TIP3    H132645   1.921   1.856   6.903 -1.0024 -0.6409 -0.5122
 3670TIP3    H232646   1.901   1.709   6.935  0.8204 -0.2766  2.8311
 3671TIP3   OH232647   2.785   1.794   2.194  0.6934  0.1425 -0.8976
 3671TIP3    H132648   2.808   1.764   2.282 -1.3888  2.0799  0.4461
 3671TIP3    H232649   2.867   1.826   2.157  1.1183  2.5425  1.7814
 3672TIP3   OH232650   1.870   4.983   7.658 -0.3670 -0.0181 -0.2679
 3672TIP3    H132651   1.824   4.960   7.577  1.3441 -1.0393 -1.0047
 3672TIP3    H232652   1.941   5.041   7.630  0.7560 -1.0529  0.3397
 3673TIP3   OH232653   0.877   4.344   8.010  0.1372  0.4347 -0.0824
 3673TIP3    H132654   0.808   4.292   7.967  1.1236  0.8131 -2.2759
 3673TIP3    H232655   0.947   4.349   7.945  2.1105  0.4134  1.9018
 3674TIP3   OH232656   1.565   2.708   1.147 -0.1693  0.2635  0.0268
 3674TIP3    H132657   1.574   2.803   1.138 -0.1986  0.2407 -0.2817
 3674TIP3    H232658   1.510   2.696   1.224  0.5761  0.4693  0.6010
 3675TIP3   OH232659   4.094   6.426   7.266  0.3485  0.3079  0.1130
 3675TIP3    H132660   4.150   6.353   7.240  0.3864  0.6145 -0.6876
 3675TIP3    H232661   4.065   6.464   7.184  1.3687  2.0015  0.4931
 3676TIP3   OH232662   1.404   6.508   8.572  0.0008 -0.1626  0.4937
 3676TIP3    H132663   1.439   6.447   8.507 -0.5012 -0.1033  0.1618
 3676TIP3    H232664   1.339   6.560   8.524 -1.9966 -1.5704  1.5545
 3677TIP3   OH232665   2.734   2.514   2.197  0.0594 -0.9106  0.0747
 3677TIP3    H132666   2.820   2.530   2.159 -0.2016 -0.3410 -0.2844
 3677TIP3    H232667   2.682   2.590   2.172 -1.2458 -2.3010 -1.7552
 3678TIP3   OH232668   0.458   2.753   2.467  0.5051 -0.3596 -0.0548
 3678TIP3    H132669   0.509   2.734   2.388  0.3209 -1.6269  0.1103
 3678TIP3    H232670   0.523   2.787   2.529  0.6866  0.4498 -0.6687
 3679TIP3   OH232671   3.187   5.028   0.579 -0.8211  0.3516  0.4680
 3679TIP3    H132672   3.237   5.109   0.581 -0.4871  0.1414  0.6490
 3679TIP3    H232673   3.156   5.021   0.489  0.4952 -0.1355  0.0357
 3680TIP3   OH232674   6.201   4.960   1.796  0.3843 -0.3327  0.3211
 3680TIP3    H132675   6.213   5.017   1.872  0.0743 -0.1043  0.2023
 3680TIP3    H232676   6.106   4.960   1.782  0.3625 -1.0386  0.4422
 3681TIP3   OH232677   6.297   5.541   0.498  0.0319  0.2883 -0.2173
 3681TIP3    H132678   6.254   5.505   0.421  0.6192 -1.4815  0.2374
 3681TIP3    H232679   6.273   5.481   0.569  1.8726  0.1811  0.3594
 3682TIP3   OH232680   6.650   4.583   7.440 -0.5798  0.5666  0.2313
 3682TIP3    H132681   6.733   4.603   7.397 -1.0012 -1.2718 -1.5396
 3682TIP3    H232682   6.670   4.589   7.534  1.2243  1.3306 -0.1661
 3683TIP3   OH232683   0.759   6.285   0.032 -0.3516  0.2468  0.0194
 3683TIP3    H132684   0.683   6.236   0.062 -0.6452  0.0087 -1.0471
 3683TIP3    H232685   0.774   6.351   0.099 -1.3137  0.0955  0.3944
 3684TIP3   OH232686   1.045   6.498   1.046 -0.3336 -0.0304  0.0464
 3684TIP3    H132687   1.032   6.416   1.095 -0.1163  0.4461  0.9304
 3684TIP3    H232688   1.132   6.487   1.006 -0.5008 -0.4168 -0.2213
 3685TIP3   OH232689   2.531   2.768   0.223  0.7952 -0.2375 -0.2094
 3685TIP3    H132690   2.511   2.710   0.150 -2.5958 -0.9677  1.1221
 3685TIP3    H232691   2.510   2.856   0.192 -0.5966 -0.5404 -0.1546
 3686TIP3   OH232692   5.200   3.776   7.017 -0.3418 -0.0632  0.2224
 3686TIP3    H132693   5.214   3.871   7.024  2.3476 -0.2865 -1.0496
 3686TIP3    H232694   5.125   3.768   6.957  0.3986  1.2817 -0.9619
 3687TIP3   OH232695   2.503   0.447   8.419 -0.6634  0.4728  0.1329
 3687TIP3    H132696   2.439   0.381   8.394 -1.3782  0.4884  1.7811
 3687TIP3    H232697   2.501   0.448   8.515  0.4407  1.8104  0.1816
 3688TIP3   OH232698   0.095   4.767   1.969  0.6843 -0.5581  0.5220
 3688TIP3    H132699   0.165   4.705   1.992  0.5372 -1.2659 -0.8207
 3688TIP3    H232700   0.023   4.711   1.941  0.2162  0.2148  0.1778
 3689TIP3   OH232701   0.857   6.394   8.626 -0.0147  0.4652 -0.3050
 3689TIP3    H132702   0.819   6.353   8.704  0.0223  1.2115  0.1098
 3689TIP3    H232703   0.951   6.378   8.635 -0.2017 -1.8167 -1.5789
 3690TIP3   OH232704   1.792   5.063   8.418 -0.0471 -0.2847 -0.1408
 3690TIP3    H132705   1.698   5.045   8.419  0.1377 -1.2758  0.9339
 3690TIP3    H232706   1.798   5.158   8.414 -1.0822 -0.2500 -1.4674
 3691TIP3   OH232707   2.316   3.673   0.362 -0.1250 -0.0580 -0.0818
 3691TIP3    H132708   2.239   3.624   0.333 -1.2409  0.5886  1.6347
 3691TIP3    H232709   2.321   3.747   0.302 -0.3779 -0.4898 -0.6522
 3692TIP3   OH232710   2.116   1.333   1.841 -0.2510  0.0629  0.0431
 3692TIP3    H132711   2.131   1.415   1.887 -0.0639 -0.7212  1.4199
 3692TIP3    H232712   2.199   1.314   1.798 -0.6401  1.1621 -1.2803
 3693TIP3   OH232713   1.611   6.752   1.998  0.0868  0.0916 -0.3021
 3693TIP3    H132714   1.663   6.706   2.064 -0.3783  0.4944  0.3498
 3693TIP3    H232715   1.617   6.844   2.021  0.0629  0.2592 -0.9281
 3694TIP3   OH232716   1.417   3.121   0.279  0.0896  0.1833  0.3279
 3694TIP3    H132717   1.497   3.079   0.246  0.0726 -0.4023  0.9986
 3694TIP3    H232718   1.449   3.200   0.324  0.1120  0.9898 -1.0409
 3695TIP3   OH232719   2.290   0.714   0.527 -0.3363 -0.3782 -0.2437
 3695TIP3    H132720   2.304   0.808   0.515  0.0454 -0.3514  0.3927
 3695TIP3    H232721   2.378   0.678   0.538 -0.5482 -0.6687  0.5312
 3696TIP3   OH232722   3.585   4.958   0.677 -0.1599  0.1930 -0.2771
 3696TIP3    H132723   3.537   4.876   0.673  1.7595 -1.3191  3.3168
 3696TIP3    H232724   3.534   5.014   0.735  1.2962 -0.7801  2.1126
 3697TIP3   OH232725   1.299   5.221   7.973 -0.0048 -0.1724 -0.6425
 3697TIP3    H132726   1.244   5.275   8.029  1.1900 -0.8233  1.2609
 3697TIP3    H232727   1.245   5.145   7.951  0.9233 -2.4983  3.9065
 3698TIP3   OH232728   1.317   3.739   0.466  0.2963  0.4376 -0.1076
 3698TIP3    H132729   1.322   3.791   0.546 -0.5715 -0.6670  0.6920
 3698TIP3    H232730   1.350   3.653   0.491 -2.4937 -0.7421 -0.1807
 3699TIP3   OH232731   4.034   3.617   0.741  0.4845 -0.5079 -0.5821
 3699TIP3    H132732   4.106   3.668   0.704  0.2855  0.4230  0.2633
 3699TIP3    H232733   4.075   3.564   0.809  0.6115 -1.1162 -1.1276
 3700TIP3   OH232734   6.731   1.800   7.908  0.6043  0.5663  0.3761
 3700TIP3    H132735   6.765   1.805   7.997 -0.1864  1.4139  0.6498
 3700TIP3    H232736   6.793   1.852   7.856  1.4415 -0.4941  0.3000
 3701TIP3   OH232737   6.709   6.018   7.325 -0.3153  0.0138  0.0238
 3701TIP3    H132738   6.710   5.969   7.242 -2.3289 -1.1635  0.6066
 3701TIP3    H232739   6.616   6.035   7.341 -0.0146 -0.1202  2.2133
 3702TIP3   OH232740   0.830   2.394   8.253  0.3356 -0.1286 -0.1481
 3702TIP3    H132741   0.752   2.428   8.210 -0.6476  0.5834  2.0621
 3702TIP3    H232742   0.877   2.346   8.185 -1.9640 -0.4776 -1.5625
 3703TIP3   OH232743   6.677   1.048   1.519  0.0119  0.1838 -0.1137
 3703TIP3    H132744   6.738   1.066   1.591  1.6827  0.3915 -1.5259
 3703TIP3    H232745   6.733   1.038   1.442 -1.8061  1.2822 -1.6561
 3704TIP3   OH232746   3.581   6.483   0.288 -0.3495 -0.3827 -0.1858
 3704TIP3    H132747   3.605   6.391   0.279 -0.7487 -0.3682 -1.5812
 3704TIP3    H232748   3.660   6.531   0.262 -0.2666 -0.3231  0.1668
 3705TIP3   OH232749   3.498   4.641   7.079  0.1601  0.3462  0.4133
 3705TIP3    H132750   3.539   4.570   7.128 -0.5270 -1.5017 -1.5391
 3705TIP3    H232751   3.408   4.643   7.111 -0.5505 -1.4826 -1.2892
 3706TIP3   OH232752   2.901   2.575   8.464 -0.3488 -0.2119 -0.4039
 3706TIP3    H132753   2.831   2.586   8.399 -0.7703 -0.0387  0.0774
 3706TIP3    H232754   2.939   2.663   8.473  1.1124 -0.6199 -1.9590
 3707TIP3   OH232755   2.913   5.563   1.365 -0.3160 -0.2418 -0.5098
 3707TIP3    H132756   2.866   5.602   1.292 -1.0308 -0.7721 -0.3426
 3707TIP3    H232757   3.002   5.549   1.331 -0.9984 -1.8359 -1.8015
 3708TIP3   OH232758   4.975   1.041   7.637 -0.0958 -0.2283  0.3265
 3708TIP3    H132759   4.953   0.950   7.660  3.7064 -2.1544 -2.4927
 3708TIP3    H232760   5.024   1.073   7.712 -1.3932 -0.4913  1.3213
 3709TIP3   OH232761   0.850   0.613   1.570 -0.1790 -0.1384  0.3024
 3709TIP3    H132762   0.824   0.705   1.576 -0.5313 -0.2563  0.5908
 3709TIP3    H232763   0.854   0.583   1.661  2.0624  0.1829  0.3651
 3710TIP3   OH232764   4.953   3.421   8.603 -0.0989  0.1127 -0.2572
 3710TIP3    H132765   4.989   3.333   8.592 -2.2638 -0.8602  0.0861
 3710TIP3    H232766   5.000   3.457   8.679  0.1058 -1.1072  0.2026
 3711TIP3   OH232767   5.161   6.271   0.428  0.7511  0.1948  0.2247
 3711TIP3    H132768   5.147   6.357   0.467  1.9000 -0.5100  2.3799
 3711TIP3    H232769   5.091   6.217   0.466  0.8571 -0.1347 -0.0471
 3712TIP3   OH232770   0.658   6.792   1.490 -0.0045  0.3554 -0.1020
 3712TIP3    H132771   0.732   6.732   1.488  0.0772  0.4120  0.8830
 3712TIP3    H232772   0.595   6.755   1.428 -0.6480 -1.6716  1.6377
 3713TIP3   OH232773   5.573   2.198   6.502  0.5161  0.1570  0.2738
 3713TIP3    H132774   5.505   2.147   6.547 -0.8952  2.0801  0.4199
 3713TIP3    H232775   5.529   2.234   6.425  1.9428 -0.1676 -0.7317
 3714TIP3   OH232776   1.609   3.675   1.009 -0.0312 -0.1644  0.3337
 3714TIP3    H132777   1.583   3.737   1.077  1.4818  0.3902  0.4632
 3714TIP3    H232778   1.527   3.638   0.977 -0.9045  1.0832  1.0292
 3715TIP3   OH232779   3.651   6.029   0.262 -0.2636 -0.2072 -0.2673
 3715TIP3    H132780   3.596   6.106   0.248 -0.9558 -0.3725  1.3865
 3715TIP3    H232781   3.741   6.063   0.258 -0.5294  0.4814 -0.6009
 3716TIP3   OH232782   5.166   1.968   0.973 -0.2848  0.1413 -0.2411
 3716TIP3    H132783   5.079   1.944   0.941 -1.8030  2.4053  1.8069
 3716TIP3    H232784   5.220   1.976   0.894 -1.1784 -3.5885 -1.4454
 3717TIP3   OH232785   3.526   0.184   1.442 -0.5974  0.2851 -0.1928
 3717TIP3    H132786   3.609   0.200   1.487 -0.3430  1.6706 -1.1150
 3717TIP3    H232787   3.459   0.205   1.507 -0.2263  1.0332 -0.0435
 3718TIP3   OH232788   5.899   0.738   7.619  0.6655 -0.2446 -0.0281
 3718TIP3    H132789   5.872   0.685   7.544  2.5189 -0.5407 -0.5365
 3718TIP3    H232790   5.920   0.673   7.687  0.9960 -0.0740  0.0346
 3719TIP3   OH232791   1.002   3.123   2.631  0.2441 -0.1801  0.3417
 3719TIP3    H132792   0.929   3.154   2.576  0.9275 -1.2749 -1.2516
 3719TIP3    H232793   1.057   3.072   2.571  1.0635 -1.3821  2.0571
 3720TIP3   OH232794   6.092   0.106   0.887  0.3008  0.0402  0.4090
 3720TIP3    H132795   6.005   0.107   0.846  1.5652 -0.1123 -2.5589
 3720TIP3    H232796   6.125   0.195   0.876  1.1017 -0.2889  0.0785
 3721TIP3   OH232797   0.260   1.126   0.410  0.4896  0.2980  0.6182
 3721TIP3    H132798   0.166   1.110   0.411  0.3310  1.1044 -0.1464
 3721TIP3    H232799   0.290   1.095   0.495 -0.5572  0.5394  1.1004
 3722TIP3   OH232800   0.247   6.297   0.590 -0.0701  0.2074  0.5978
 3722TIP3    H132801   0.317   6.293   0.655 -0.5107 -1.4152  1.0055
 3722TIP3    H232802   0.292   6.286   0.506  0.3456  0.9654  0.7102
 3723TIP3   OH232803   5.465   2.579   8.537 -0.2322  0.7151 -0.1417
 3723TIP3    H132804   5.438   2.577   8.629 -1.4860  1.3561 -0.4770
 3723TIP3    H232805   5.547   2.629   8.538  0.1088  0.1623  0.6975
 3724TIP3   OH232806   5.940   1.968   1.572 -0.0640  0.7052  0.1612
 3724TIP3    H132807   5.931   2.043   1.513 -1.3538  1.8561  1.7598
 3724TIP3    H232808   6.033   1.967   1.595 -0.1071  2.1609  0.5089
 3725TIP3   OH232809   4.877   5.163   7.721  0.6049 -0.6455 -0.4102
 3725TIP3    H132810   4.852   5.072   7.707 -0.8510 -0.3748  0.3095
 3725TIP3    H232811   4.853   5.181   7.812  0.5298  0.5751 -0.6548
 3726TIP3   OH232812   1.537   5.882   1.201  0.3470  0.2263 -0.9357
 3726TIP3    H132813   1.608   5.853   1.258 -0.1375  0.2517 -0.3102
 3726TIP3    H232814   1.459   5.838   1.235 -0.0075  0.5000 -1.3788
 3727TIP3   OH232815   4.932   3.458   2.048  0.6374 -0.0139  0.3188
 3727TIP3    H132816   4.875   3.473   1.973  3.2676  0.1071 -1.7953
 3727TIP3    H232817   4.907   3.527   2.111  0.3270  1.8141 -1.6770
 3728TIP3   OH232818   2.795   5.485   8.361  0.0121 -0.5711 -0.2953
 3728TIP3    H132819   2.758   5.484   8.450  0.9842  0.0254  0.1221
 3728TIP3    H232820   2.724   5.518   8.306  0.0421  1.0346  0.5725
 3729TIP3   OH232821   6.101   6.186   1.071 -0.1142 -0.1320 -0.5671
 3729TIP3    H132822   6.118   6.104   1.024 -0.6283  0.6000 -2.0919
 3729TIP3    H232823   6.050   6.239   1.010 -2.5252  0.1561  1.5187
 3730TIP3   OH232824   6.263   2.886   2.385 -0.9134 -0.2466 -0.2404
 3730TIP3    H132825   6.286   2.950   2.453  1.2706 -1.4245  0.2232
 3730TIP3    H232826   6.250   2.939   2.306 -1.0352  0.9334  0.5472
 3731TIP3   OH232827   5.973   3.869   6.446 -0.3093 -0.0793 -0.1563
 3731TIP3    H132828   6.057   3.914   6.438 -0.8726  0.9741 -0.3071
 3731TIP3    H232829   5.972   3.806   6.374 -0.7658  1.7945 -1.8711
 3732TIP3   OH232830   1.430   6.483   7.112 -0.1544 -0.7141 -0.0213
 3732TIP3    H132831   1.460   6.402   7.153 -0.1986 -1.0360 -0.6118
 3732TIP3    H232832   1.482   6.490   7.032 -0.7815 -0.6304 -0.4269
 3733TIP3   OH232833   2.249   6.259   0.590 -0.3921  0.3178  0.1852
 3733TIP3    H132834   2.163   6.297   0.605 -0.1782  0.1550  1.9388
 3733TIP3    H232835   2.311   6.326   0.617  0.0219 -0.1364  0.3835
 3734TIP3   OH232836   4.614   3.095   7.464 -0.4349  0.0274  0.1144
 3734TIP3    H132837   4.595   3.186   7.440  0.5410 -0.0806 -1.2243
 3734TIP3    H232838   4.530   3.049   7.453 -0.3537  0.2559 -2.0243
 3735TIP3   OH232839   4.547   6.492   0.515 -0.4074 -0.6910  0.5126
 3735TIP3    H132840   4.628   6.497   0.464 -1.0933 -1.5958 -0.7307
 3735TIP3    H232841   4.538   6.579   0.554  0.3898 -0.0956 -0.5639
 3736TIP3   OH232842   0.602   0.510   7.480  0.1204 -0.3829  0.2675
 3736TIP3    H132843   0.530   0.447   7.480 -0.7044  0.4770  2.4391
 3736TIP3    H232844   0.679   0.459   7.457 -0.9974 -1.5347 -1.0891
 3737TIP3   OH232845   6.677   1.881   7.335  0.5806  0.6245  0.0059
 3737TIP3    H132846   6.687   1.839   7.249  4.1325 -0.4618  0.7723
 3737TIP3    H232847   6.674   1.974   7.315 -0.8731  0.3305 -1.3755
 3738TIP3   OH232848   2.999   0.347   8.271  0.1428 -0.8313  0.1008
 3738TIP3    H132849   2.988   0.341   8.176  1.1335  0.8985 -0.1695
 3738TIP3    H232850   2.913   0.370   8.304  0.3145  1.2154 -0.7114
 3739TIP3   OH232851   6.034   3.906   8.772  0.2040 -0.3560  0.3338
 3739TIP3    H132852   5.994   3.915   8.859 -0.2822 -0.1475  0.0859
 3739TIP3    H232853   6.017   3.815   8.747  1.4944 -0.8172  1.0205
 3740TIP3   OH232854   1.824   1.857   1.307 -0.1088  0.2708  0.0340
 3740TIP3    H132855   1.919   1.867   1.307 -0.1896  1.1948 -0.3913
 3740TIP3    H232856   1.793   1.930   1.361 -0.5161 -0.9113  1.4583
 3741TIP3   OH232857   0.155   0.411   8.657  0.1380 -0.7404  0.3502
 3741TIP3    H132858   0.201   0.356   8.720  0.9732 -0.0934  0.3123
 3741TIP3    H232859   0.188   0.382   8.571  2.4269  1.4012  0.4179
 3742TIP3   OH232860   3.048   6.321   8.330  0.0211  0.4978 -0.0398
 3742TIP3    H132861   2.982   6.339   8.397  0.8280  1.1102  0.6087
 3742TIP3    H232862   3.107   6.396   8.334  0.3296  0.3298 -1.1459
 3743TIP3   OH232863   0.035   1.695   0.130  0.4580  0.2684  0.5570
 3743TIP3    H132864   0.030   1.767   0.192 -2.5350  0.1271  0.6067
 3743TIP3    H232865   0.109   1.642   0.161  0.9238  1.7764  2.1756
 3744TIP3   OH232866   5.892   3.142   1.909  0.3302  0.1715  0.6543
 3744TIP3    H132867   5.825   3.138   1.840  0.4399  0.0951  0.5524
 3744TIP3    H232868   5.870   3.221   1.958  0.5407  0.4958  0.2306
 3745TIP3   OH232869   6.802   2.220   1.591 -0.0652 -0.4034  0.0324
 3745TIP3    H132870   6.796   2.146   1.651 -2.5808 -1.7879 -1.7794
 3745TIP3    H232871   6.875   2.198   1.533 -0.1007 -0.9095  0.1786
 3746TIP3   OH232872   1.621   2.481   7.903 -0.3012  0.1677  0.2129
 3746TIP3    H132873   1.691   2.462   7.966  0.1909  0.0446 -0.3684
 3746TIP3    H232874   1.636   2.572   7.877 -0.4715  0.1992  0.2223
 3747TIP3   OH232875   1.192   4.867   6.781 -0.1697 -0.0756  0.9062
 3747TIP3    H132876   1.179   4.806   6.854 -0.2232 -2.0788 -0.6674
 3747TIP3    H232877   1.222   4.811   6.709 -0.9849  1.6633 -0.8700
 3748TIP3   OH232878   4.665   4.522   1.394 -0.2006  0.0550 -0.1942
 3748TIP3    H132879   4.642   4.613   1.375 -1.3681 -0.5646 -2.0198
 3748TIP3    H232880   4.758   4.515   1.370 -0.3941  0.5025 -1.1031
 3749TIP3   OH232881   0.005   1.462   0.577 -0.3026 -0.1022  0.1199
 3749TIP3    H132882   0.052   1.407   0.515 -0.1336  0.6035 -0.3894
 3749TIP3    H232883   0.012   1.551   0.541 -1.7764  0.0683  0.1761
 3750TIP3   OH232884   3.387   5.455   6.396  0.2470 -0.1972 -0.1199
 3750TIP3    H132885   3.372   5.458   6.302 -2.2322  0.2426  0.2347
 3750TIP3    H232886   3.314   5.404   6.431 -0.2163  1.6291  1.7907
 3751TIP3   OH232887   2.908   5.780   6.403  0.6392 -0.0281  0.6837
 3751TIP3    H132888   2.944   5.778   6.492 -0.3207  0.0887  1.0810
 3751TIP3    H232889   2.982   5.808   6.349  1.2693 -0.2119  1.4202
 3752TIP3   OH232890   4.682   6.608   0.913  0.2561 -0.3795  0.2682
 3752TIP3    H132891   4.659   6.632   0.824 -2.0332 -0.5476  0.7633
 3752TIP3    H232892   4.696   6.691   0.958  0.5304 -0.2741 -0.0049
 3753TIP3   OH232893   2.688   0.939   8.205 -0.1256  0.2585 -0.2321
 3753TIP3    H132894   2.687   0.860   8.260  1.5542  0.6538  0.4562
 3753TIP3    H232895   2.752   0.996   8.248 -0.7750  1.6989 -1.1291
 3754TIP3   OH232896   6.041   4.994   8.339  0.1590 -0.1118 -0.4202
 3754TIP3    H132897   5.987   4.922   8.372  1.0169 -1.3503 -1.5770
 3754TIP3    H232898   5.982   5.043   8.281  0.0059 -0.9354 -0.9849
 3755TIP3   OH232899   0.970   3.454   0.943 -0.3802  0.2383  0.6984
 3755TIP3    H132900   1.030   3.380   0.948 -0.3233  0.2055 -0.2687
 3755TIP3    H232901   0.916   3.436   0.866 -0.2737  1.2666  0.3678
 3756TIP3   OH232902   0.221   1.858   1.616 -0.2713 -0.0572  0.2505
 3756TIP3    H132903   0.249   1.881   1.528 -1.5921  0.0997 -0.1592
 3756TIP3    H232904   0.244   1.765   1.626  0.5057  0.1045  0.0161
 3757TIP3   OH232905   0.275   0.049   8.180  0.2494 -0.1634  0.0891
 3757TIP3    H132906   0.215   0.114   8.143  1.1311  0.3990 -0.3927
 3757TIP3    H232907   0.361   0.076   8.149  0.5438 -2.1244 -0.9253
 3758TIP3   OH232908   4.623   0.785   8.081  0.3370  0.2645 -0.2127
 3758TIP3    H132909   4.699   0.801   8.026  0.0735  1.8482 -0.1538
 3758TIP3    H232910   4.627   0.691   8.100  1.3166  0.0014 -1.5914
 3759TIP3   OH232911   2.870   4.814   8.332  0.0046 -0.5394  0.1393
 3759TIP3    H132912   2.830   4.901   8.324 -1.7920 -1.4113 -0.9137
 3759TIP3    H232913   2.963   4.832   8.345 -0.4507  1.5558  1.0427
 3760TIP3   OH232914   0.223   3.066   0.070 -0.4748 -0.5209  0.4618
 3760TIP3    H132915   0.141   3.017   0.080 -0.7163 -0.2169  0.0060
 3760TIP3    H232916   0.217   3.105  -0.017 -0.9211  1.4763  1.3400
 3761TIP3   OH232917   4.561   4.489   8.714  0.7793 -0.0524 -0.2399
 3761TIP3    H132918   4.609   4.501   8.632 -0.2684 -1.1612 -1.0515
 3761TIP3    H232919   4.509   4.569   8.723  2.3897  0.9573  0.4110
 3762TIP3   OH232920   5.017   0.129   0.693 -0.5725  0.1496  0.1798
 3762TIP3    H132921   4.953   0.095   0.754 -1.9636  0.2154 -1.1791
 3762TIP3    H232922   4.994   0.221   0.682  0.3711  0.4259  0.4075
 3763TIP3   OH232923   2.498   5.095   7.618 -0.0658 -0.2067 -0.4371
 3763TIP3    H132924   2.584   5.115   7.581  0.1649 -1.9559 -0.9054
 3763TIP3    H232925   2.449   5.056   7.546 -0.5209 -1.1986  0.3850
 3764TIP3   OH232926   2.831   2.606   0.039  0.3978 -0.8859 -0.6104
 3764TIP3    H132927   2.877   2.679   0.080  0.8572 -1.2641 -0.4455
 3764TIP3    H232928   2.897   2.562  -0.014 -0.1544 -0.4762 -1.6880
 3765TIP3   OH232929   0.974   0.404   0.412  0.0413 -0.1671 -0.0458
 3765TIP3    H132930   1.039   0.393   0.343  0.3980 -0.6846  0.3583
 3765TIP3    H232931   0.962   0.316   0.447  0.1393  0.1386  0.7887
 3766TIP3   OH232932   0.556   4.850   1.434 -0.4229  0.3187  0.1154
 3766TIP3    H132933   0.569   4.832   1.341 -1.4405  0.1698 -0.0067
 3766TIP3    H232934   0.461   4.849   1.446 -0.2787 -1.5853  1.5246
 3767TIP3   OH232935   4.660   3.402   8.662 -0.3169  0.4280  0.0426
 3767TIP3    H132936   4.756   3.403   8.657 -0.3439 -1.4167 -3.4068
 3767TIP3    H232937   4.635   3.493   8.644  0.7717  0.4745 -1.4002
 3768TIP3   OH232938   5.773   4.092   2.500 -0.2349  0.1481  0.5054
 3768TIP3    H132939   5.847   4.136   2.458 -0.2968  0.3074  0.5642
 3768TIP3    H232940   5.698   4.116   2.447 -0.1391 -0.6219 -0.0002
 3769TIP3   OH232941   0.372   5.625   6.383 -0.0576 -0.0575 -0.2474
 3769TIP3    H132942   0.306   5.649   6.318  0.2187  0.0394 -0.4951
 3769TIP3    H232943   0.412   5.546   6.348  0.2192  0.0997 -0.2874
 3770TIP3   OH232944   2.643   2.459   1.835  0.0351 -0.0220 -0.0251
 3770TIP3    H132945   2.615   2.548   1.854 -0.2941  0.1116 -1.0871
 3770TIP3    H232946   2.618   2.444   1.744 -0.3170 -1.3511  0.2587
 3771TIP3   OH232947   1.671   1.524   7.035  0.3766 -0.3288  0.2782
 3771TIP3    H132948   1.579   1.501   7.046  0.5760 -1.4325 -0.2123
 3771TIP3    H232949   1.685   1.521   6.941  0.5720  1.2937  0.2329
 3772TIP3   OH232950   5.975   0.432   7.092 -0.2250 -0.6028  0.6723
 3772TIP3    H132951   5.992   0.338   7.086 -0.0180 -0.5249 -0.1924
 3772TIP3    H232952   5.911   0.449   7.023 -0.2906 -0.1199  0.8507
 3773TIP3   OH232953   6.628   5.252   8.629  0.2242  0.1250  0.4199
 3773TIP3    H132954   6.606   5.165   8.595 -0.0773 -0.2869  1.6148
 3773TIP3    H232955   6.652   5.303   8.551  3.1014 -1.7770 -0.1079
 3774TIP3   OH232956   5.869   3.922   7.383  0.0372 -0.1944  0.7080
 3774TIP3    H132957   5.907   4.000   7.343  0.6716  0.2142  2.0449
 3774TIP3    H232958   5.888   3.852   7.321 -0.9517  0.7547 -0.7558
 3775TIP3   OH232959   2.296   5.307   0.720 -0.0845  0.2120  0.6263
 3775TIP3    H132960   2.221   5.354   0.755  0.0572 -0.4199  1.8260
 3775TIP3    H232961   2.354   5.293   0.795  1.4646  1.0756 -0.3600
 3776TIP3   OH232962   4.208   0.265   8.119 -0.9774  0.0321 -0.1121
 3776TIP3    H132963   4.142   0.215   8.071 -0.4208 -0.1749 -0.6705
 3776TIP3    H232964   4.222   0.343   8.066  0.5290 -0.7687 -0.9553
 3777TIP3   OH232965   2.169   3.249   7.526  0.8745  0.5184  0.2000
 3777TIP3    H132966   2.133   3.183   7.467  3.0663 -0.4266 -0.1816
 3777TIP3    H232967   2.098   3.313   7.537 -1.0121 -1.4258 -0.1044
 3778TIP3   OH232968   5.666   5.591   8.664 -0.4371 -0.1673  0.4893
 3778TIP3    H132969   5.589   5.630   8.621 -0.5150  0.2087  0.9652
 3778TIP3    H232970   5.741   5.630   8.619 -0.4982  1.2279  1.5414
 3779TIP3   OH232971   3.221   3.685   0.689 -0.0808 -0.0183 -0.1616
 3779TIP3    H132972   3.259   3.599   0.673  1.0417  0.4331 -0.0017
 3779TIP3    H232973   3.197   3.717   0.602  0.0439 -0.2464 -0.2801
 3780TIP3   OH232974   2.417   5.347   7.722 -0.4934  0.8090 -0.3713
 3780TIP3    H132975   2.475   5.287   7.674 -0.2368  1.7586 -1.2742
 3780TIP3    H232976   2.413   5.310   7.811 -2.5542 -2.1281 -1.5275
 3781TIP3   OH232977   4.795   1.585   0.526  0.1400 -0.5847  0.2338
 3781TIP3    H132978   4.748   1.526   0.585  0.9746 -2.3706 -0.8337
 3781TIP3    H232979   4.818   1.531   0.451  0.2218  1.3258 -1.1665
 3782TIP3   OH232980   4.632   5.143   2.013 -0.3787 -0.2867  0.8181
 3782TIP3    H132981   4.581   5.085   2.069 -0.8879  1.1604  1.9126
 3782TIP3    H232982   4.720   5.141   2.051 -0.8829  1.2371  2.1796
 3783TIP3   OH232983   5.580   6.395   7.725 -0.1687  0.0230  0.0676
 3783TIP3    H132984   5.593   6.350   7.641 -0.2716  0.2821 -0.0883
 3783TIP3    H232985   5.638   6.350   7.785 -1.5536 -1.4707  0.3449
 3784TIP3   OH232986   5.443   5.539   7.782 -0.0706  0.2248 -0.1011
 3784TIP3    H132987   5.466   5.475   7.850  1.6576  1.3314  0.4254
 3784TIP3    H232988   5.402   5.486   7.713  1.2290 -1.4622  0.3357
 3785TIP3   OH232989   6.551   5.169   2.357 -0.2091  0.0802  0.0758
 3785TIP3    H132990   6.456   5.163   2.348 -0.2499 -0.0245  0.5477
 3785TIP3    H232991   6.576   5.246   2.306 -0.3198 -0.9590 -1.6463
 3786TIP3   OH232992   2.685   2.207   7.940  0.1679  0.0824  0.6536
 3786TIP3    H132993   2.652   2.136   7.885 -1.3237  0.0748  1.5202
 3786TIP3    H232994   2.626   2.210   8.015  1.5381  0.7617  1.7757
 3787TIP3   OH232995   3.738   0.562   1.762  0.3174  0.1564 -0.2004
 3787TIP3    H132996   3.658   0.528   1.723 -0.2963  1.7691 -0.4254
 3787TIP3    H232997   3.709   0.620   1.832  1.3603 -0.9159  1.1809
 3788TIP3   OH232998   4.309   0.598   2.100  0.0737 -0.2226  0.1674
 3788TIP3    H132999   4.395   0.638   2.089  0.5226 -0.9416  0.9367
 3788TIP3    H233000   4.266   0.611   2.016  1.1799 -0.4201 -0.4555
 3789TIP3   OH233001   0.411   3.240   8.354 -0.1116  0.1300 -0.2457
 3789TIP3    H133002   0.421   3.192   8.436 -0.9010 -0.6012 -0.5604
 3789TIP3    H233003   0.479   3.307   8.357 -0.3416  0.3406  1.1697
 3790TIP3   OH233004   5.401   1.906   8.429 -0.0956 -0.2792  0.2265
 3790TIP3    H133005   5.351   1.842   8.479  2.1701 -1.3413  1.2488
 3790TIP3    H233006   5.485   1.864   8.411  1.9956  2.7321  1.9463
 3791TIP3   OH233007   0.847   1.784   0.001  0.2634  0.3721  0.1560
 3791TIP3    H133008   0.856   1.705   0.055 -0.0700  1.0549  1.2475
 3791TIP3    H233009   0.801   1.754  -0.078 -1.5472 -0.2055  1.3563
 3792TIP3   OH233010   4.054   6.057   7.120  0.1584  0.0239 -0.3527
 3792TIP3    H133011   3.962   6.080   7.136 -0.1042 -1.4349  0.4041
 3792TIP3    H233012   4.062   5.968   7.154  1.9671  0.2825 -0.0383
 3793TIP3   OH233013   3.642   0.916   1.121 -0.2971 -0.1276 -0.1111
 3793TIP3    H133014   3.558   0.911   1.167 -0.6813  0.4236 -0.7257
 3793TIP3    H233015   3.696   0.848   1.161 -1.7317 -1.9766 -1.1293
 3794TIP3   OH233016   0.747   6.846   1.785  0.6420 -0.4201 -0.1783
 3794TIP3    H133017   0.722   6.820   1.697 -1.4191 -0.3500  0.3356
 3794TIP3    H233018   0.829   6.893   1.774 -0.1433  0.5810 -2.2123
 3795TIP3   OH233019   3.717   1.409   0.313 -0.1647  0.1984  0.1051
 3795TIP3    H133020   3.630   1.434   0.342 -0.3499  0.7900 -0.9149
 3795TIP3    H233021   3.708   1.318   0.285 -0.7495  0.6035 -1.0862
 3796TIP3   OH233022   0.570   1.946   6.847  0.3626 -0.0795  0.0702
 3796TIP3    H133023   0.486   1.976   6.882  0.1787  0.2393 -0.6446
 3796TIP3    H233024   0.609   2.024   6.808  0.1047 -0.6377 -1.3526
 3797TIP3   OH233025   3.238   0.188   8.810 -0.3488 -0.0258  0.0311
 3797TIP3    H133026   3.246   0.251   8.738  0.9041 -0.5205 -0.2722
 3797TIP3    H233027   3.288   0.227   8.882  1.1069 -1.0164 -0.4115
 3798TIP3   OH233028   3.670   4.395   7.848  0.1196  0.5561 -0.0792
 3798TIP3    H133029   3.660   4.340   7.771  2.0407  0.5616 -0.3589
 3798TIP3    H233030   3.594   4.373   7.902 -1.6422  1.0068 -2.1987
 3799TIP3   OH233031   1.371   3.843   7.094  0.0330  0.0058  0.4671
 3799TIP3    H133032   1.395   3.828   7.185  0.7908  0.7371  0.3967
 3799TIP3    H233033   1.330   3.761   7.066  1.7750 -1.0263  0.8125
 3800TIP3   OH233034   5.656   3.515   8.637 -0.2488 -0.1118  0.9364
 3800TIP3    H133035   5.692   3.534   8.550 -0.2037 -0.2145  0.9322
 3800TIP3    H233036   5.577   3.465   8.620 -0.7067  0.6023  0.9249
 3801TIP3   OH233037   4.858   4.328   7.645 -0.2305 -0.0619 -0.2710
 3801TIP3    H133038   4.849   4.414   7.604 -1.5402  0.4471  0.9721
 3801TIP3    H233039   4.769   4.293   7.646 -0.0313 -0.5868  0.9421
 3802TIP3   OH233040   1.268   6.794   2.171 -0.3102 -0.0218  0.4915
 3802TIP3    H133041   1.267   6.699   2.179 -0.5059  0.0401  1.3448
 3802TIP3    H233042   1.358   6.818   2.191 -0.1481 -0.0574 -0.1829
 3803TIP3   OH233043   1.653   0.381   0.382 -0.2817 -0.0445 -0.1112
 3803TIP3    H133044   1.624   0.471   0.374  0.2382  0.0969 -0.4739
 3803TIP3    H233045   1.744   0.383   0.353  0.5738 -0.1895  2.2986
 3804TIP3   OH233046   4.825   3.858   7.511  0.1061 -0.3745 -0.0167
 3804TIP3    H133047   4.832   3.788   7.576  0.7771 -0.7543 -0.4862
 3804TIP3    H233048   4.904   3.911   7.524  0.1704 -0.3696 -0.4263
 3805TIP3   OH233049   6.061   4.178   0.871 -0.2676  0.0196 -0.4153
 3805TIP3    H133050   6.033   4.267   0.894 -1.1063  0.0358 -1.4004
 3805TIP3    H233051   6.053   4.129   0.953  0.5684  0.9261  0.2335
 3806TIP3   OH233052   1.537   0.003   0.708 -0.1553 -0.0214 -0.2554
 3806TIP3    H133053   1.551   0.056   0.630 -0.1052  1.5732  0.7903
 3806TIP3    H233054   1.619  -0.044   0.721 -0.0915 -0.1331 -1.0224
 3807TIP3   OH233055   2.363   2.895   8.670 -0.4267  0.0538  0.0883
 3807TIP3    H133056   2.385   2.956   8.740 -0.6242  0.2281 -0.0018
 3807TIP3    H233057   2.446   2.853   8.648 -0.4688 -0.4408  0.8420
 3808TIP3   OH233058   4.762   6.831   1.947 -0.0614 -0.4085  0.1220
 3808TIP3    H133059   4.795   6.915   1.917  1.5833 -1.5496 -1.4637
 3808TIP3    H233060   4.685   6.853   2.000 -0.9437  1.9621 -1.9421
 3809TIP3   OH233061   0.321   4.621   2.048  0.1921 -0.4981  0.1265
 3809TIP3    H133062   0.413   4.611   2.071  0.3950  0.5542 -0.1935
 3809TIP3    H233063   0.308   4.560   1.976  0.8242 -0.1492 -0.2929
 3810TIP3   OH233064   0.716   5.684   7.134  0.4522  0.0131  0.0895
 3810TIP3    H133065   0.723   5.768   7.087  0.5248  0.6851  1.2530
 3810TIP3    H233066   0.801   5.675   7.177  0.1258 -0.2173  0.6843
 3811TIP3   OH233067   3.163   2.891   6.827 -0.1978  0.8832  0.9422
 3811TIP3    H133068   3.159   2.803   6.788 -2.1440  0.9125  0.9671
 3811TIP3    H233069   3.256   2.915   6.823 -0.0438  0.2623 -2.3041
 3812TIP3   OH233070   2.697   5.760   2.123 -0.7960  0.2623 -0.0512
 3812TIP3    H133071   2.687   5.751   2.218  1.1480  0.6052  0.2255
 3812TIP3    H233072   2.764   5.697   2.100 -1.5349 -0.0930 -1.2835
 3813TIP3   OH233073   0.113   5.702   8.229 -0.6467 -0.0594 -0.3602
 3813TIP3    H133074   0.144   5.635   8.167  0.8044  0.7665 -0.5678
 3813TIP3    H233075   0.154   5.783   8.199  0.7581  0.2442  2.0881
 3814TIP3   OH233076   1.977   3.276   7.876  0.3970 -0.2997 -0.2584
 3814TIP3    H133077   1.987   3.372   7.877  1.2129 -0.3812  0.4597
 3814TIP3    H233078   1.921   3.257   7.951  1.0046 -0.4656  0.1504
 3815TIP3   OH233079   0.683   4.846   0.777 -0.2451 -0.3963  0.1871
 3815TIP3    H133080   0.610   4.794   0.812  0.3982 -1.2323  0.3215
 3815TIP3    H233081   0.723   4.885   0.855 -1.3361  1.1791  0.0160
 3816TIP3   OH233082   0.401   1.952   1.047  0.3190  0.1182  0.3232
 3816TIP3    H133083   0.365   2.037   1.073  0.0046  0.5564 -1.4358
 3816TIP3    H233084   0.335   1.889   1.075 -0.3450  0.6341 -0.0556
 3817TIP3   OH233085   2.286   3.947   8.241  0.3451 -0.2612 -0.0616
 3817TIP3    H133086   2.354   3.994   8.193  1.0560 -1.4235 -0.2288
 3817TIP3    H233087   2.234   4.015   8.283  1.6132  0.6504  0.0626
 3818TIP3   OH233088   3.216   4.704   7.149 -0.5370  0.6112  0.3149
 3818TIP3    H133089   3.131   4.739   7.172 -1.6014 -1.3487 -0.3932
 3818TIP3    H233090   3.200   4.611   7.130  1.3835  0.5999 -1.7069
 3819TIP3   OH233091   6.580   3.122   8.008 -0.0791  0.2304  1.0369
 3819TIP3    H133092   6.630   3.202   8.029  0.1994  0.8238 -1.5524
 3819TIP3    H233093   6.499   3.130   8.059  0.0808  2.0183  1.0749
 3820TIP3   OH233094   5.361   6.111   7.141 -0.2848 -0.3013 -0.4296
 3820TIP3    H133095   5.396   6.190   7.183 -1.7398  0.7797 -1.1526
 3820TIP3    H233096   5.383   6.121   7.049 -2.4441  0.4575 -0.9221
 3821TIP3   OH233097   5.357   1.064   6.501  0.5518 -0.3589  0.2155
 3821TIP3    H133098   5.297   1.111   6.560 -1.4945 -0.2493 -1.8123
 3821TIP3    H233099   5.420   1.130   6.474  0.2023  0.1406  0.5857
 3822TIP3   OH233100   5.596   6.837   7.568 -0.2827 -0.2121 -0.4764
 3822TIP3    H133101   5.551   6.772   7.622 -4.0888  1.6599 -1.0144
 3822TIP3    H233102   5.567   6.921   7.604  2.5699  1.2015 -1.2474
 3823TIP3   OH233103   2.639   5.118   0.544  0.0543 -0.6635 -0.0445
 3823TIP3    H133104   2.683   5.170   0.612 -0.4469 -0.3041  0.0072
 3823TIP3    H233105   2.669   5.156   0.462  0.6807 -1.1140 -0.0392
 3824TIP3   OH233106   3.614   6.177   1.768 -0.0893 -0.7018  0.8779
 3824TIP3    H133107   3.571   6.164   1.684  1.6025 -2.0321  0.1616
 3824TIP3    H233108   3.671   6.252   1.755  1.0128 -1.5872  0.4493
 3825TIP3   OH233109   5.633   0.490   7.292  0.0785 -0.2181 -0.2178
 3825TIP3    H133110   5.611   0.445   7.211  0.1463 -1.5960  0.4952
 3825TIP3    H233111   5.565   0.556   7.304 -0.9575 -1.2232 -0.4743
 3826TIP3   OH233112   6.277   1.960   7.013 -0.1220 -0.3567 -0.0529
 3826TIP3    H133113   6.226   2.025   6.965 -0.0520 -1.2970 -1.4575
 3826TIP3    H233114   6.311   2.008   7.089 -1.4998  0.7725 -0.1114
 3827TIP3   OH233115   3.047   4.677   0.871  0.0258  0.1271 -0.0238
 3827TIP3    H133116   3.038   4.753   0.929  0.0835  0.9456 -1.0536
 3827TIP3    H233117   3.004   4.606   0.918  1.1500  0.4418  1.5777
 3828TIP3   OH233118   4.912   1.460   7.465  0.1332 -0.4510  0.0508
 3828TIP3    H133119   4.896   1.375   7.423 -0.0446  0.4502 -1.7921
 3828TIP3    H233120   4.971   1.439   7.538  1.1322 -2.0027 -1.1223
 3829TIP3   OH233121   5.149   3.440   6.914 -0.7886  0.1758 -0.0304
 3829TIP3    H133122   5.235   3.412   6.884  0.5087  0.7727  2.7642
 3829TIP3    H233123   5.114   3.363   6.960 -1.7797 -0.0621 -1.1515
 3830TIP3   OH233124   2.460   1.249   2.018 -0.4517  0.0785  0.2091
 3830TIP3    H133125   2.456   1.293   2.103  1.9117  0.7572  0.0280
 3830TIP3    H233126   2.542   1.200   2.021 -0.2090  0.3051 -1.7672
 3831TIP3   OH233127   4.399   3.516   7.875 -0.9347  0.4185  0.2709
 3831TIP3    H133128   4.336   3.582   7.903 -0.7774  0.2716  0.9784
 3831TIP3    H233129   4.402   3.454   7.948 -1.0310 -0.3330 -0.3555
 3832TIP3   OH233130   2.342   3.528   6.566 -0.8471 -0.0631  0.3365
 3832TIP3    H133131   2.380   3.443   6.546 -0.0463  0.4138 -0.2212
 3832TIP3    H233132   2.251   3.522   6.536 -1.0840 -1.0398  1.1984
 3833TIP3   OH233133   0.655   3.888   6.928  0.0147 -0.2109  0.4641
 3833TIP3    H133134   0.581   3.912   6.984 -1.7068 -1.0448 -1.3478
 3833TIP3    H233135   0.652   3.793   6.924 -1.9172 -0.1509 -3.4444
 3834TIP3   OH233136   0.370   5.358   8.673 -0.2557  0.4186  0.0565
 3834TIP3    H133137   0.409   5.351   8.586 -0.0738 -2.7188  0.2712
 3834TIP3    H233138   0.293   5.300   8.669  0.2599 -0.5071  2.1956
 3835TIP3   OH233139   5.182   6.417   0.185 -0.3683 -0.6156  0.6828
 3835TIP3    H133140   5.232   6.359   0.127  2.0963  1.5708  0.3899
 3835TIP3    H233141   5.181   6.372   0.269  1.0728 -1.3117  0.3633
 3836TIP3   OH233142   1.673   1.440   0.180  0.1064 -0.3464 -0.4165
 3836TIP3    H133143   1.744   1.498   0.155  0.3678 -1.2985 -2.0116
 3836TIP3    H233144   1.613   1.441   0.106 -1.6202  0.4934  0.9203
 3837TIP3   OH233145   6.697   4.584   2.090 -0.0679 -0.4106  0.0600
 3837TIP3    H133146   6.609   4.549   2.105 -0.4436  0.5172  0.0669
 3837TIP3    H233147   6.727   4.540   2.010 -0.4092 -0.9670  0.2337
 3838TIP3   OH233148   2.447   6.049   8.100  0.8569 -0.4731 -0.0521
 3838TIP3    H133149   2.379   5.985   8.122  0.2953  0.3146  0.5704
 3838TIP3    H233150   2.522   5.997   8.072 -0.0396 -1.3645 -0.8752
 3839TIP3   OH233151   4.612   0.196   7.019  0.4330  0.1271 -0.0133
 3839TIP3    H133152   4.522   0.225   7.012  1.4842  3.7041 -0.4498
 3839TIP3    H233153   4.628   0.147   6.938 -0.6623  0.9018 -0.7158
 3840TIP3   OH233154   4.612   1.254   8.560  0.1876  0.0018 -0.1811
 3840TIP3    H133155   4.518   1.236   8.569  0.4084 -0.9889  0.2094
 3840TIP3    H233156   4.617   1.317   8.488 -0.8328  0.6109  0.2525
 3841TIP3   OH233157   3.303   5.741   0.873  1.0629 -0.1798  0.2511
 3841TIP3    H133158   3.281   5.804   0.804  1.3396  0.5984  0.8628
 3841TIP3    H233159   3.342   5.668   0.826 -0.1916 -0.3504 -0.5738
 3842TIP3   OH233160   5.016   0.868   0.296  0.3621  0.2063 -0.8515
 3842TIP3    H133161   4.969   0.785   0.283 -2.1348  1.8589 -3.6038
 3842TIP3    H233162   4.967   0.912   0.366 -1.1196  1.0984 -2.3779
 3843TIP3   OH233163   1.807   6.558   0.486  0.0297  0.4097 -0.0425
 3843TIP3    H133164   1.795   6.651   0.470  0.8943  0.3804 -0.9384
 3843TIP3    H233165   1.832   6.522   0.401 -0.5470 -0.6815  0.2385
 3844TIP3   OH233166   4.798   1.495   1.461 -0.0327  0.6886 -0.2037
 3844TIP3    H133167   4.803   1.449   1.544 -1.6228  1.2286  0.2338
 3844TIP3    H233168   4.727   1.559   1.473  0.8543  1.9706 -1.3993
 3845TIP3   OH233169   3.263   4.537   0.436  0.2265 -0.3417 -0.2847
 3845TIP3    H133170   3.218   4.604   0.487 -0.5656 -0.8601 -0.2923
 3845TIP3    H233171   3.348   4.576   0.415  0.4475  0.0135  1.1394
 3846TIP3   OH233172   6.592   0.695   8.554  0.1540 -0.5832  0.1200
 3846TIP3    H133173   6.550   0.616   8.587 -0.9176  0.1805  0.6347
 3846TIP3    H233174   6.519   0.751   8.526  0.8821  0.3235 -0.0033
 3847TIP3   OH233175   2.031   3.242   8.621  0.3741  1.2866 -0.4026
 3847TIP3    H133176   2.124   3.267   8.622  0.2109  1.9164 -0.7536
 3847TIP3    H233177   2.027   3.166   8.562  0.6839  1.1721 -0.2790
 3848TIP3   OH233178   5.412   6.053   8.220  0.6149  0.0492 -0.2214
 3848TIP3    H133179   5.343   5.989   8.210  1.2846 -1.3010  2.8353
 3848TIP3    H233180   5.367   6.135   8.240 -0.1247 -0.6409  0.9843
 3849TIP3   OH233181   1.599   1.928   1.136  0.0955  0.4108  0.0370
 3849TIP3    H133182   1.678   1.893   1.177  0.2158  2.2267  1.4570
 3849TIP3    H233183   1.631   1.994   1.075 -0.2957  0.9616  0.4191
 3850TIP3   OH233184   6.189   4.768   1.081  0.0580  0.4092 -0.1844
 3850TIP3    H133185   6.159   4.682   1.112  2.3662 -0.1524  0.7024
 3850TIP3    H233186   6.249   4.747   1.009  1.9653  1.1211  1.1322
 3851TIP3   OH233187   1.323   3.505   0.183 -0.4190  0.4536 -0.7676
 3851TIP3    H133188   1.383   3.489   0.256  0.8489  1.1225 -1.6398
 3851TIP3    H233189   1.336   3.431   0.124 -1.6103 -0.2054 -0.2437
 3852TIP3   OH233190   0.270   3.617   7.185  0.3283  0.9023  0.1339
 3852TIP3    H133191   0.214   3.675   7.236  1.1996  1.2105  0.7728
 3852TIP3    H233192   0.235   3.530   7.200 -0.2624  1.1360  0.1348
 3853TIP3   OH233193   4.443   3.569   0.871 -0.1577  0.2766  0.5118
 3853TIP3    H133194   4.456   3.659   0.841 -0.1891 -0.2059 -1.0129
 3853TIP3    H233195   4.511   3.555   0.936  3.9957 -0.5118 -3.4887
 3854TIP3   OH233196   2.433   6.032   0.491  0.0646 -0.9398  0.1250
 3854TIP3    H133197   2.376   6.095   0.534  0.1312 -1.5886  1.2247
 3854TIP3    H233198   2.384   6.004   0.413 -0.4835 -0.4283  0.2776
 3855TIP3   OH233199   4.422   4.022   7.975 -0.6733  0.5088 -0.4439
 3855TIP3    H133200   4.403   4.094   7.916  0.1312  0.1139 -1.2014
 3855TIP3    H233201   4.514   4.002   7.960 -0.5014  0.2717  0.8118
 3856TIP3   OH233202   1.346   2.315   8.340 -0.6288  0.4653 -0.4882
 3856TIP3    H133203   1.253   2.291   8.339 -1.1077  2.1603 -1.7852
 3856TIP3    H233204   1.350   2.393   8.396  0.4747 -0.9581  1.5770
 3857TIP3   OH233205   5.302   1.759   0.387 -0.2410 -0.0550  0.5080
 3857TIP3    H133206   5.221   1.803   0.360  0.0814  0.4001  0.2640
 3857TIP3    H233207   5.370   1.826   0.375  0.2937 -0.7020 -0.0956
 3858TIP3   OH233208   5.972   3.536   7.732  0.4045  0.0141 -0.2454
 3858TIP3    H133209   5.994   3.609   7.674  0.2274  0.5750  0.3809
 3858TIP3    H233210   5.981   3.458   7.677  0.8661  0.4832 -0.8484
 3859TIP3   OH233211   0.100   3.263   0.910 -0.7310  0.1269  0.5838
 3859TIP3    H133212   0.141   3.230   0.830 -1.8737 -2.6895  1.0462
 3859TIP3    H233213   0.043   3.334   0.879  0.3708  0.4894 -0.7687
 3860TIP3   OH233214   5.335   6.133   1.635  0.2179  0.5938 -0.2061
 3860TIP3    H133215   5.402   6.202   1.638 -1.2374  2.0731 -0.5025
 3860TIP3    H233216   5.358   6.082   1.558  0.6680  1.4533 -0.6640
 3861TIP3   OH233217   2.937   6.756   1.233 -0.0344  0.4528  0.3691
 3861TIP3    H133218   2.908   6.683   1.289 -2.2021  1.2068  0.3450
 3861TIP3    H233219   2.934   6.721   1.144 -1.5159  0.6531  0.3151
 3862TIP3   OH233220   2.833   3.555   6.285 -0.0558 -0.1192  0.1936
 3862TIP3    H133221   2.791   3.638   6.307 -0.5854 -0.6002  1.0816
 3862TIP3    H233222   2.797   3.493   6.349  1.1815 -0.7850  0.2642
 3863TIP3   OH233223   0.604   3.713   1.609  0.0095  0.0663  0.0554
 3863TIP3    H133224   0.578   3.701   1.701  0.7345 -0.2404  0.2242
 3863TIP3    H233225   0.521   3.719   1.562 -0.3777 -0.8397  0.5893
 3864TIP3   OH233226   1.183   6.049   8.370  0.3686 -0.7503 -0.2551
 3864TIP3    H133227   1.102   6.038   8.320  0.0419 -2.2575  0.5291
 3864TIP3    H233228   1.253   6.030   8.307 -0.0041 -1.7461 -0.3900
 3865TIP3   OH233229   4.180   5.782   7.680  0.2707  0.2926  0.0339
 3865TIP3    H133230   4.255   5.758   7.626  0.5372  0.1090  0.4712
 3865TIP3    H233231   4.219   5.822   7.758 -0.0809  0.1520  0.2867
 3866TIP3   OH233232   0.921   1.619   6.758  0.3601  0.4317 -0.3075
 3866TIP3    H133233   0.931   1.532   6.721  0.1416  0.9929 -1.7706
 3866TIP3    H233234   0.997   1.668   6.726 -0.2574  1.1595 -0.7109
 3867TIP3   OH233235   4.741   1.137   1.058  0.4941  0.1348  0.1155
 3867TIP3    H133236   4.761   1.206   1.121  1.2729 -0.5455  0.6315
 3867TIP3    H233237   4.651   1.112   1.078  0.5661  0.2723  0.6246
 3868TIP3   OH233238   6.340   5.487   8.446  0.1390 -0.2955 -0.1960
 3868TIP3    H133239   6.396   5.412   8.465 -1.0116 -1.3305 -0.8120
 3868TIP3    H233240   6.261   5.473   8.497 -0.6775 -0.2508 -1.4244
 3869TIP3   OH233241   0.862   4.091   8.299 -0.6933  0.1484  0.2334
 3869TIP3    H133242   0.910   4.169   8.325 -0.7419  1.2826 -2.7239
 3869TIP3    H233243   0.812   4.067   8.377 -0.0848  2.5829  1.4818
 3870TIP3   OH233244   6.283   3.205   1.809 -0.1923 -0.2879 -0.1894
 3870TIP3    H133245   6.321   3.118   1.801 -0.5762 -0.2663 -3.0661
 3870TIP3    H233246   6.339   3.261   1.756 -1.4123  0.7169 -0.4690
 3871TIP3   OH233247   6.035   5.279   6.752  0.3216  0.6059 -0.5445
 3871TIP3    H133248   6.102   5.217   6.780  2.5032  1.9415 -2.4812
 3871TIP3    H233249   6.025   5.339   6.826 -0.7423 -1.1196  0.7721
 3872TIP3   OH233250   5.608   1.931   1.953  0.1250  0.4930 -0.0022
 3872TIP3    H133251   5.696   1.924   1.991  0.0035 -1.4126  0.0005
 3872TIP3    H233252   5.624   1.942   1.859  0.3941 -1.3726 -0.2064
 3873TIP3   OH233253   1.319   3.353   0.834 -0.0685  0.4729 -0.4433
 3873TIP3    H133254   1.242   3.304   0.864 -0.7867  0.8982 -1.5281
 3873TIP3    H233255   1.380   3.285   0.804  0.4842  0.0670  1.4768
 3874TIP3   OH233256   0.607   1.113   2.246 -0.0085  0.3706  0.0560
 3874TIP3    H133257   0.702   1.123   2.245 -0.0967  1.3630  0.4835
 3874TIP3    H233258   0.575   1.179   2.185 -0.3692 -1.0205 -1.3502
 3875TIP3   OH233259   0.245   0.207   1.313  0.0276  0.1782  0.2279
 3875TIP3    H133260   0.211   0.250   1.391  2.1018  0.0070  1.3071
 3875TIP3    H233261   0.258   0.116   1.340  1.9621  0.3939  0.1332
 3876TIP3   OH233262   2.724   6.661   7.681  0.0037  0.1865  0.4847
 3876TIP3    H133263   2.760   6.606   7.752 -2.6590 -2.2688  0.1386
 3876TIP3    H233264   2.754   6.619   7.601  3.1296  3.0447 -0.0521
 3877TIP3   OH233265   4.138   1.877   6.880 -0.2704  0.5725 -0.3904
 3877TIP3    H133266   4.116   1.968   6.902 -0.5422  0.9166 -1.9892
 3877TIP3    H233267   4.061   1.843   6.836 -0.7707 -0.9724  1.5432
 3878TIP3   OH233268   6.668   6.256   0.667 -0.9101 -0.0628 -0.3821
 3878TIP3    H133269   6.717   6.309   0.730  2.3914 -1.4857 -1.5778
 3878TIP3    H233270   6.590   6.309   0.648  0.3805  2.6392  1.1791
 3879TIP3   OH233271   2.688   6.474   6.649 -0.1778 -0.2322 -0.1635
 3879TIP3    H133272   2.643   6.526   6.716 -0.5631  1.5253 -1.7108
 3879TIP3    H233273   2.624   6.467   6.577  1.3061  0.7272 -1.6511
 3880TIP3   OH233274   1.811   3.275   0.742 -0.0858 -0.0043 -0.2595
 3880TIP3    H133275   1.889   3.243   0.786 -0.0309 -0.3951 -0.6365
 3880TIP3    H233276   1.752   3.300   0.814  0.0839 -0.4306  0.0336
 3881TIP3   OH233277   0.827   2.189   8.559 -0.1815 -0.1957  0.1232
 3881TIP3    H133278   0.875   2.113   8.526  0.3081  0.4103 -0.5967
 3881TIP3    H233279   0.886   2.263   8.544 -1.6042  0.6827 -1.4348
 3882TIP3   OH233280   6.770   6.288   8.141  0.1954  0.1627 -0.7331
 3882TIP3    H133281   6.688   6.260   8.100 -0.4239  2.1930 -0.9914
 3882TIP3    H233282   6.832   6.296   8.068 -0.0937  0.9649 -0.9098
 3883TIP3   OH233283   3.512   2.041   0.896 -0.0088 -0.4806  0.2472
 3883TIP3    H133284   3.576   2.028   0.966  0.3989  0.4289  0.0627
 3883TIP3    H233285   3.547   2.115   0.846 -1.3946  0.2869  0.3735
 3884TIP3   OH233286   5.595   5.769   2.246 -0.1628 -0.0708 -0.4175
 3884TIP3    H133287   5.657   5.728   2.307  1.0663  1.3185 -0.6782
 3884TIP3    H233288   5.510   5.736   2.274  0.6285 -1.7045  0.2288
 3885TIP3   OH233289   2.834   3.422   0.334 -0.0693 -0.1476  0.2296
 3885TIP3    H133290   2.775   3.491   0.303 -1.3680 -1.6356 -0.7413
 3885TIP3    H233291   2.782   3.375   0.400  0.4751 -0.7279  0.2463
 3886TIP3   OH233292   1.076   5.467   0.114  0.5294  0.1917 -0.3810
 3886TIP3    H133293   1.052   5.496   0.202 -0.2681  1.5411 -1.0066
 3886TIP3    H233294   1.017   5.515   0.056  0.7283 -1.0185 -1.6357
 3887TIP3   OH233295   6.105   1.799   8.527 -0.0336 -0.1658  0.0808
 3887TIP3    H133296   6.101   1.815   8.433 -1.2983 -0.5566  0.0572
 3887TIP3    H233297   6.133   1.708   8.535  0.1568 -0.1076  0.0931
 3888TIP3   OH233298   6.710   6.244   0.087 -0.0657 -0.8391 -0.1605
 3888TIP3    H133299   6.745   6.157   0.069 -0.4188 -0.5156 -2.8285
 3888TIP3    H233300   6.723   6.293   0.005 -2.9331  0.5605  0.0861
 3889TIP3   OH233301   2.833   0.051   7.769 -0.0936 -0.2689 -0.9115
 3889TIP3    H133302   2.783  -0.024   7.736 -0.6858  0.4919 -1.8082
 3889TIP3    H233303   2.838   0.037   7.864 -1.8757 -0.4644 -0.8166
 3890TIP3   OH233304   6.640   3.539   7.512 -0.1559  0.2417 -0.5720
 3890TIP3    H133305   6.599   3.565   7.595 -1.8009 -2.3489 -0.4279
 3890TIP3    H233306   6.584   3.577   7.444  0.1552  0.8918 -0.4656
 3891TIP3   OH233307   3.687   4.181   7.471 -0.0559  0.1511  0.4366
 3891TIP3    H133308   3.669   4.128   7.549 -0.2689 -1.1807 -0.4963
 3891TIP3    H233309   3.688   4.119   7.399  1.1022  1.2309 -0.5238
 3892TIP3   OH233310   2.605   6.006   2.164 -0.1380 -0.2471  0.1823
 3892TIP3    H133311   2.640   5.920   2.138  1.4398  0.2532  0.5035
 3892TIP3    H233312   2.513   5.989   2.185  0.4941 -2.1994  1.7245
 3893TIP3   OH233313   0.615   3.314   1.016  0.1164  0.6716 -0.0224
 3893TIP3    H133314   0.529   3.302   1.056  0.0510  1.6465  0.1566
 3893TIP3    H233315   0.596   3.333   0.924  0.1479  0.7661 -0.0091
 3894TIP3   OH233316   5.135   2.161   8.088  0.1625  0.6087 -0.5261
 3894TIP3    H133317   5.181   2.236   8.051  1.1760  0.3683  0.2029
 3894TIP3    H233318   5.044   2.173   8.061  0.4503  1.6827 -1.0752
 3895TIP3   OH233319   1.410   0.445   8.727 -0.4039 -0.5446 -0.2827
 3895TIP3    H133320   1.496   0.474   8.760 -0.3008 -0.6069 -0.4992
 3895TIP3    H233321   1.357   0.524   8.726  0.0105 -0.2699 -1.3004
 3896TIP3   OH233322   5.084   6.575   6.812  0.2414 -0.3206  0.1715
 3896TIP3    H133323   5.011   6.626   6.845 -0.0074  1.0633 -2.2942
 3896TIP3    H233324   5.158   6.636   6.811  0.7483 -0.9243  0.1502
 3897TIP3   OH233325   5.292   3.742   1.746  0.2651 -0.1225 -0.2079
 3897TIP3    H133326   5.215   3.742   1.689  0.0924  2.6230 -0.1075
 3897TIP3    H233327   5.366   3.741   1.686  0.0982  3.8117 -0.7504
 3898TIP3   OH233328   4.115   6.629   0.494  0.4750  0.3941  0.0620
 3898TIP3    H133329   4.153   6.596   0.575 -1.4637 -0.7691  0.5611
 3898TIP3    H233330   4.068   6.708   0.520  3.8781  3.0178 -0.8828
 3899TIP3   OH233331   0.492   0.275   1.559  0.5922  0.3747 -0.6063
 3899TIP3    H133332   0.472   0.320   1.478  0.1511  1.4605  0.0844
 3899TIP3    H233333   0.581   0.241   1.547  0.0297 -0.6517 -2.0342
 3900TIP3   OH233334   1.609   6.308   7.402  0.1989  0.2887  0.4896
 3900TIP3    H133335   1.683   6.338   7.349  0.1185  2.5903  1.5244
 3900TIP3    H233336   1.642   6.307   7.492 -0.4780 -0.6235  0.7434
 3901TIP3   OH233337   3.512   2.540   0.020 -0.5033  0.1432 -0.0381
 3901TIP3    H133338   3.575   2.554   0.091 -0.0386  0.8704 -0.5872
 3901TIP3    H233339   3.494   2.446   0.023 -0.6983  0.1980  1.2189
 3902TIP3   OH233340   4.949   1.857   6.537  0.1319  0.6537 -0.2174
 3902TIP3    H133341   4.951   1.860   6.441 -0.6261  1.0416 -0.2221
 3902TIP3    H233342   4.857   1.870   6.560  0.2204  0.0097  0.5471
 3903TIP3   OH233343   0.086   1.641   1.245  0.5032 -0.3703 -0.5880
 3903TIP3    H133344   0.037   1.689   1.312  0.3430  0.2589 -1.1424
 3903TIP3    H233345   0.026   1.634   1.172  1.8584  2.2981 -2.1153
 3904TIP3   OH233346   3.339   4.163   1.500  0.0779 -0.3202  0.7348
 3904TIP3    H133347   3.389   4.234   1.462 -0.2976 -0.2496  0.3635
 3904TIP3    H233348   3.320   4.191   1.590  0.0327 -0.0100  0.6259
 3905TIP3   OH233349   0.680   1.655   1.354  0.1547 -0.0751  0.2203
 3905TIP3    H133350   0.648   1.723   1.414  0.4862 -0.0745  0.4002
 3905TIP3    H233351   0.635   1.673   1.271  0.3283  0.4408  0.2326
 3906TIP3   OH233352   5.056   5.323   8.143  0.8650  0.2519 -0.4886
 3906TIP3    H133353   5.065   5.363   8.056  2.0447  0.1632 -0.4212
 3906TIP3    H233354   5.121   5.367   8.197 -1.5440  2.1508  1.1023
 3907TIP3   OH233355   5.957   4.978   6.721  0.1661 -0.1391  0.2924
 3907TIP3    H133356   5.965   4.903   6.781  0.0733 -0.9139 -0.6349
 3907TIP3    H233357   6.022   5.041   6.752  1.1257 -1.1271  0.3395
 3908TIP3   OH233358   4.028   4.285   1.054 -0.2087  0.2405 -0.2238
 3908TIP3    H133359   3.992   4.197   1.044 -0.4778  0.3876 -0.5795
 3908TIP3    H233360   3.981   4.338   0.989 -0.7892  0.8605  0.6579
 3909TIP3   OH233361   6.349   0.248   7.756 -0.2057  0.7329 -0.1149
 3909TIP3    H133362   6.362   0.154   7.744 -0.7589  0.6484 -0.0808
 3909TIP3    H233363   6.255   0.259   7.765 -0.1477  1.2930 -0.1041
 3910TIP3   OH233364   1.310   5.787   7.632 -0.0074 -0.1027 -0.4969
 3910TIP3    H133365   1.284   5.821   7.717  1.6699  0.8777 -0.3181
 3910TIP3    H233366   1.388   5.837   7.609  0.7338 -1.7017 -1.7093
 3911TIP3   OH233367   0.993   5.089   0.502  0.1838  0.1717  0.0262
 3911TIP3    H133368   1.010   5.002   0.539 -2.7883  0.2740  1.9134
 3911TIP3    H233369   0.921   5.076   0.441 -0.4898  1.3397  0.5459
 3912TIP3   OH233370   1.881   0.236   8.597 -0.0461 -0.3273 -0.1353
 3912TIP3    H133371   1.937   0.204   8.668 -1.2731  0.7357  1.3832
 3912TIP3    H233372   1.860   0.158   8.545  1.3117 -1.0339  0.3496
 3913TIP3   OH233373   6.065   2.898   8.686  0.4894  0.3919 -0.3681
 3913TIP3    H133374   5.990   2.869   8.738 -0.3119 -0.7243 -2.0565
 3913TIP3    H233375   6.055   2.993   8.680 -0.0886  0.3930  0.4755
 3914TIP3   OH233376   0.212   3.380   7.331 -0.6703  0.1931 -0.7276
 3914TIP3    H133377   0.222   3.286   7.316 -0.3805  0.1413 -0.2171
 3914TIP3    H233378   0.168   3.387   7.416  1.8256  0.5413  0.6377
 3915TIP3   OH233379   2.359   4.788   7.820  0.2149 -0.0629 -0.6534
 3915TIP3    H133380   2.446   4.820   7.844 -0.4461  0.2005  1.6298
 3915TIP3    H233381   2.317   4.768   7.904 -2.4689  1.2378 -1.5826
 3916TIP3   OH233382   5.470   3.331   8.607  0.5935 -0.0980 -0.3552
 3916TIP3    H133383   5.425   3.278   8.672  0.7512 -1.0372 -0.9953
 3916TIP3    H233384   5.523   3.269   8.557  1.3998  0.7733 -0.6118
 3917TIP3   OH233385   2.125   2.007   0.602 -0.3107  0.4137 -0.2739
 3917TIP3    H133386   2.156   2.076   0.661 -1.5319  1.6092 -0.9986
 3917TIP3    H233387   2.166   2.027   0.518  1.9730 -1.6681  0.1944
 3918TIP3   OH233388   4.206   5.863   1.419  0.3729 -0.6056  0.3468
 3918TIP3    H133389   4.146   5.891   1.487 -0.9830 -1.7018 -0.3531
 3918TIP3    H233390   4.197   5.928   1.350  1.8296  0.5670  1.2081
 3919TIP3   OH233391   6.173   1.411   1.006 -0.5303  0.2166 -0.3832
 3919TIP3    H133392   6.265   1.393   0.985 -0.3975 -1.7238  1.5566
 3919TIP3    H233393   6.133   1.324   1.012 -2.0455  0.9585  0.6405
 3920TIP3   OH233394   1.440   6.621   7.742  0.6951  0.2093  0.2469
 3920TIP3    H133395   1.411   6.707   7.773  1.3000  0.9608 -1.2089
 3920TIP3    H233396   1.367   6.590   7.688  0.7853  0.1213  0.1775
 3921TIP3   OH233397   2.679   3.772   7.227  0.0665 -0.1446  0.3405
 3921TIP3    H133398   2.679   3.715   7.150 -2.0512  0.1913  0.0199
 3921TIP3    H233399   2.738   3.730   7.289  1.5666 -0.6080 -1.3276
 3922TIP3   OH233400   2.685   4.392   0.145  0.0885 -0.2940  0.2667
 3922TIP3    H133401   2.649   4.306   0.164  1.4245 -0.9739 -0.1726
 3922TIP3    H233402   2.771   4.393   0.187  1.3943 -0.3467 -2.2028
 3923TIP3   OH233403   5.599   4.890   8.811  0.4452  0.3770  0.4227
 3923TIP3    H133404   5.546   4.810   8.817 -1.5258  1.4673 -1.2471
 3923TIP3    H233405   5.634   4.902   8.900 -1.8569 -0.5815  1.5375
 3924TIP3   OH233406   1.651   4.100   7.463 -0.3191 -0.0588 -0.0016
 3924TIP3    H133407   1.557   4.100   7.483 -0.4241 -1.2547 -0.4194
 3924TIP3    H233408   1.678   4.009   7.475  1.0022  0.4417  1.0377
 3925TIP3   OH233409   0.629   5.395   8.364  0.2220  0.1140  0.0216
 3925TIP3    H133410   0.589   5.370   8.281  0.4868  0.9859 -0.3802
 3925TIP3    H233411   0.634   5.313   8.414  0.8238 -0.5881 -1.1406
 3926TIP3   OH233412   0.485   2.257   7.777  0.6354 -0.4463 -0.1106
 3926TIP3    H133413   0.514   2.167   7.763 -0.7679 -1.2883  2.0116
 3926TIP3    H233414   0.436   2.279   7.698  0.4075 -1.7924 -0.3589
 3927TIP3   OH233415   4.111   2.660   7.549  0.7785  0.3380 -0.1199
 3927TIP3    H133416   4.115   2.568   7.573  1.5950  0.3998  0.0193
 3927TIP3    H233417   4.019   2.683   7.557  0.3542 -0.7873 -1.4064
 3928TIP3   OH233418   4.944   2.631   6.622  0.0508  0.1128 -0.7143
 3928TIP3    H133419   4.863   2.679   6.610  1.0287  2.1622  0.4207
 3928TIP3    H233420   4.987   2.673   6.696  1.2231 -2.2371  0.0433
 3929TIP3   OH233421   2.705   5.271   7.989  0.4592 -0.0891 -0.5065
 3929TIP3    H133422   2.668   5.207   8.050 -1.1622  1.0959 -0.1790
 3929TIP3    H233423   2.793   5.288   8.023  0.7061 -1.6502 -0.2593
 3930TIP3   OH233424   1.752   4.785   7.056 -0.0921 -0.0817 -0.2340
 3930TIP3    H133425   1.674   4.795   7.001 -0.2065  0.3331  0.0036
 3930TIP3    H233426   1.725   4.723   7.124  0.1012 -0.7321 -0.7314
 3931TIP3   OH233427   1.007   4.309   0.584 -0.4094  0.1718  0.1359
 3931TIP3    H133428   1.022   4.368   0.510  0.8148  0.0091  0.2283
 3931TIP3    H233429   1.094   4.295   0.621 -0.4674 -2.6844 -0.6294
 3932TIP3   OH233430   6.658   6.716   7.257  0.2431 -0.3308 -0.0702
 3932TIP3    H133431   6.622   6.713   7.346  0.1854  0.5859 -0.0543
 3932TIP3    H233432   6.750   6.695   7.268  0.3949  0.4775  0.3105
 3933TIP3   OH233433   1.805   3.466   0.248 -0.6818  0.3627 -0.2475
 3933TIP3    H133434   1.731   3.452   0.189 -0.4430 -0.3357 -0.3941
 3933TIP3    H233435   1.880   3.478   0.189 -0.7932  1.8561 -0.1161
 3934TIP3   OH233436   6.250   4.248   7.339 -0.7958  0.0624  0.3412
 3934TIP3    H133437   6.162   4.218   7.362 -0.4438 -1.3296 -0.0638
 3934TIP3    H233438   6.269   4.317   7.403 -2.4254  0.8485  0.0279
 3935TIP3   OH233439   5.472   4.344   2.726 -0.5493 -0.1906 -0.1539
 3935TIP3    H133440   5.504   4.349   2.816  0.4420  0.6649 -0.5245
 3935TIP3    H233441   5.505   4.425   2.685 -2.3503  0.2322 -0.8530
 3936TIP3   OH233442   0.647   6.309   8.448 -0.3595 -0.6982  0.2580
 3936TIP3    H133443   0.706   6.350   8.511 -0.0648 -1.6910  0.6465
 3936TIP3    H233444   0.568   6.290   8.498 -0.3214 -1.0169  0.1985
 3937TIP3   OH233445   4.990   3.586   7.678  0.0877  0.8607 -0.3789
 3937TIP3    H133446   5.072   3.566   7.723  0.5486  0.3340 -1.4253
 3937TIP3    H233447   5.005   3.560   7.587 -1.1199  1.0877 -0.6641
 3938TIP3   OH233448   6.807   5.051   6.601 -0.1052  0.4491  0.2097
 3938TIP3    H133449   6.774   5.070   6.689 -0.8598  1.0321 -0.1875
 3938TIP3    H233450   6.730   5.020   6.553  0.4694 -0.6475 -0.0278
 3939TIP3   OH233451   6.726   5.095   1.246  0.1544  0.6158  0.3458
 3939TIP3    H133452   6.735   5.181   1.287  1.6994  0.7549 -0.2464
 3939TIP3    H233453   6.653   5.054   1.294 -0.3716  2.0888  0.8852
 3940TIP3   OH233454   4.311   4.613   7.035  0.0971  0.1285 -0.2776
 3940TIP3    H133455   4.342   4.614   6.944 -1.1218  2.3151 -0.7294
 3940TIP3    H233456   4.229   4.661   7.033 -0.4228 -0.5739  1.8635
 3941TIP3   OH233457   4.850   3.754   8.558 -0.3665 -0.4701 -0.3975
 3941TIP3    H133458   4.882   3.838   8.591 -2.4851  0.2049  0.1341
 3941TIP3    H233459   4.915   3.690   8.588  0.8387  0.8636 -0.0588
 3942TIP3   OH233460   5.350   0.956   7.271  0.3329  0.1777 -0.6683
 3942TIP3    H133461   5.397   1.021   7.323  0.7180 -0.3817 -0.3074
 3942TIP3    H233462   5.316   1.005   7.196  2.9271  0.2852 -1.8655
 3943TIP3   OH233463   0.933   3.109   0.418 -0.0123  1.1213  0.0397
 3943TIP3    H133464   0.899   3.046   0.355  0.0744 -0.8200  1.8268
 3943TIP3    H233465   1.028   3.103   0.409  0.0143  0.4769  0.6531
 3944TIP3   OH233466   5.898   5.504   1.846  0.0375 -0.3154 -0.5569
 3944TIP3    H133467   5.885   5.438   1.778  0.2021 -0.4635 -0.4459
 3944TIP3    H233468   5.991   5.498   1.868  0.0339 -0.1086 -0.4828
 3945TIP3   OH233469   4.831   1.122   0.163  0.1741 -0.0369  0.0663
 3945TIP3    H133470   4.779   1.171   0.227 -0.9391 -0.6580 -0.3247
 3945TIP3    H233471   4.852   1.040   0.207  1.3383  0.4375  0.4268
 3946TIP3   OH233472   3.346   6.397   7.261 -0.0999 -0.4078  0.3966
 3946TIP3    H133473   3.279   6.399   7.329 -0.3374  0.3653  0.1467
 3946TIP3    H233474   3.314   6.332   7.198  0.3481 -1.4807  1.2329
 3947TIP3   OH233475   6.520   5.318   7.486 -0.2795 -0.1998 -0.2364
 3947TIP3    H133476   6.488   5.359   7.406  0.5031 -0.7852 -0.8674
 3947TIP3    H233477   6.480   5.368   7.557  0.6087  1.6257 -0.9726
 3948TIP3   OH233478   3.763   1.402   6.839  0.3326 -0.1093 -1.0539
 3948TIP3    H133479   3.751   1.308   6.831 -1.0229 -0.1701  1.0387
 3948TIP3    H233480   3.849   1.412   6.879 -0.1582 -0.5636  0.1537
 3949TIP3   OH233481   0.474   0.108   8.467  0.5765 -0.3229 -0.0702
 3949TIP3    H133482   0.526   0.042   8.513  0.6450 -0.6785 -0.6480
 3949TIP3    H233483   0.538   0.174   8.439  0.6554 -0.5380 -0.3985
 3950TIP3   OH233484   0.690   2.167   2.372  0.0935 -0.5962 -0.4671
 3950TIP3    H133485   0.684   2.253   2.414 -0.8735  1.1145 -3.7338
 3950TIP3    H233486   0.603   2.154   2.332  1.2885 -1.3213 -3.0569
 3951TIP3   OH233487   2.598   3.436   7.772 -0.6561 -0.2323  0.0160
 3951TIP3    H133488   2.636   3.479   7.696  0.1272 -0.1280  0.4562
 3951TIP3    H233489   2.572   3.508   7.830  0.6178 -0.3121  0.7358
 3952TIP3   OH233490   0.909   2.135   0.955 -0.3455  0.5808  0.5309
 3952TIP3    H133491   0.994   2.157   0.919 -0.0561 -0.3871  0.6083
 3952TIP3    H233492   0.847   2.153   0.884  0.0179  0.4476  0.1781
 3953TIP3   OH233493   4.847   6.762   7.682  0.3421 -0.6097 -0.2515
 3953TIP3    H133494   4.934   6.733   7.653 -0.0884 -2.7650  0.4478
 3953TIP3    H233495   4.794   6.683   7.682 -1.5233  0.5846 -0.1990
 3954TIP3   OH233496   6.182   2.623   7.214 -0.6856  0.6301 -0.0963
 3954TIP3    H133497   6.141   2.561   7.154 -0.7653  1.2160 -0.6560
 3954TIP3    H233498   6.259   2.655   7.167 -0.0317  0.1493  0.6261
 3955TIP3   OH233499   2.574   4.532   7.813 -0.1052 -0.3110 -0.0850
 3955TIP3    H133500   2.608   4.446   7.788 -0.7280 -0.3133 -0.9939
 3955TIP3    H233501   2.479   4.520   7.819 -0.2130  0.3391 -0.3627
 3956TIP3   OH233502   0.150   0.505   1.622 -0.3618  0.1838 -0.1807
 3956TIP3    H133503   0.237   0.543   1.605 -0.6164  0.1619 -1.6246
 3956TIP3    H233504   0.092   0.580   1.630 -0.5484  0.1561 -1.2112
 3957TIP3   OH233505   5.698   2.563   8.257 -0.0808  0.3891 -0.3338
 3957TIP3    H133506   5.720   2.499   8.324  0.8396 -0.0303 -1.0300
 3957TIP3    H233507   5.770   2.560   8.195 -0.8008  0.9506 -1.2278
 3958TIP3   OH233508   5.923   6.122   1.894  0.8803 -0.1422  0.6296
 3958TIP3    H133509   5.831   6.127   1.922  1.0148  1.0604  0.8823
 3958TIP3    H233510   5.919   6.138   1.799  0.8978  0.5990  0.7543
 3959TIP3   OH233511   5.715   1.316   1.041  0.1332 -0.0986  0.2475
 3959TIP3    H133512   5.751   1.245   0.988 -0.4034  0.5093 -0.9673
 3959TIP3    H233513   5.786   1.340   1.101  2.1307  1.5733 -2.5786
 3960TIP3   OH233514   6.760   5.086   0.728  0.1069  0.0434  0.1260
 3960TIP3    H133515   6.790   4.995   0.720  1.1376  0.3914 -0.0948
 3960TIP3    H233516   6.821   5.136   0.675 -0.5950  0.8460  0.0676
 3961TIP3   OH233517   0.957   0.044   7.288 -0.1551 -0.0871 -0.0365
 3961TIP3    H133518   0.993   0.041   7.200 -0.1443  0.0714 -0.0373
 3961TIP3    H233519   0.866   0.071   7.277 -0.4883 -1.1523 -0.0950
 3962TIP3   OH233520   4.073   2.806   6.621  0.1511  0.2772  0.1934
 3962TIP3    H133521   4.134   2.761   6.563 -0.7060  0.1161 -0.6123
 3962TIP3    H233522   4.091   2.899   6.609 -0.6270  0.2956 -1.0640
 3963TIP3   OH233523   0.203   6.757   1.431 -0.2178 -0.2502 -0.1899
 3963TIP3    H133524   0.122   6.741   1.478  1.1393 -0.8443  2.1169
 3963TIP3    H233525   0.253   6.676   1.441  1.3274  0.6702 -0.0524
 3964TIP3   OH233526   0.530   3.537   8.806  0.3002  0.1284 -0.4615
 3964TIP3    H133527   0.605   3.564   8.753  0.7922 -0.2358  0.0323
 3964TIP3    H233528   0.507   3.615   8.857  2.3837 -0.5585  1.7467
 3965TIP3   OH233529   1.765   3.218   0.474  0.1996  0.1423 -0.4554
 3965TIP3    H133530   1.730   3.251   0.556  0.3687  0.2703 -0.4332
 3965TIP3    H233531   1.838   3.161   0.501  0.1098  0.0040 -0.5062
 3966TIP3   OH233532   2.454   2.755   7.529  0.3181  0.2326  0.4021
 3966TIP3    H133533   2.537   2.780   7.568  0.0195  2.3375 -0.1964
 3966TIP3    H233534   2.465   2.770   7.436 -1.0724  1.7008  0.4285
 3967TIP3   OH233535   1.088   1.890   0.723 -0.0082  0.1889 -0.0300
 3967TIP3    H133536   1.159   1.908   0.785  0.6167 -0.9268 -0.3839
 3967TIP3    H233537   1.031   1.829   0.769 -0.0813  0.1338 -0.1936
 3968TIP3   OH233538   1.309   2.162   1.522 -0.0574 -0.0930  0.3641
 3968TIP3    H133539   1.354   2.124   1.596  0.2086 -2.7652 -1.0362
 3968TIP3    H233540   1.216   2.158   1.545  0.0638 -0.1255  0.8496
 3969TIP3   OH233541   5.724   1.250   7.720 -0.7015 -0.1362 -0.1340
 3969TIP3    H133542   5.776   1.170   7.724  0.7763  0.8424  2.0569
 3969TIP3    H233543   5.748   1.299   7.799 -3.2609  1.4413 -0.2155
 3970TIP3   OH233544   1.852   3.137   6.257 -0.2447 -0.1291 -0.4417
 3970TIP3    H133545   1.838   3.224   6.217  0.6630  0.6044  0.7825
 3970TIP3    H233546   1.941   3.113   6.231 -0.8385 -1.1884 -1.6152
 3971TIP3   OH233547   5.391   4.848   0.222  0.2736 -0.2215  0.1662
 3971TIP3    H133548   5.477   4.834   0.261 -0.4205  0.2328  1.9638
 3971TIP3    H233549   5.329   4.830   0.293 -1.1684 -1.1738 -1.2655
 3972TIP3   OH233550   0.136   4.121   7.497  0.5037 -0.3456 -0.1724
 3972TIP3    H133551   0.077   4.051   7.523  0.2357 -0.9803 -2.3138
 3972TIP3    H233552   0.223   4.083   7.504  0.3810 -0.7941 -0.9738
 3973TIP3   OH233553   4.433   3.363   0.722 -0.4833  0.1789  0.2990
 3973TIP3    H133554   4.435   3.450   0.762 -1.0012  0.1563  0.3749
 3973TIP3    H233555   4.345   3.354   0.688  0.0481  0.3333 -1.1821
 3974TIP3   OH233556   1.426   0.802   2.005 -0.0757  0.6331  0.1640
 3974TIP3    H133557   1.435   0.845   1.920  0.8510  0.3390  0.1055
 3974TIP3    H233558   1.515   0.777   2.030 -0.0619  2.2396  2.0171
 3975TIP3   OH233559   1.591   4.672   8.294  0.2697  0.5004  0.6519
 3975TIP3    H133560   1.562   4.751   8.248 -1.1019 -0.7246 -0.7063
 3975TIP3    H233561   1.529   4.605   8.267  1.7287 -1.1924  1.3295
 3976TIP3   OH233562   6.843   6.733   2.250 -0.0284  0.3334 -0.3421
 3976TIP3    H133563   6.886   6.666   2.303  0.0714  1.1877  0.6873
 3976TIP3    H233564   6.759   6.747   2.293  0.6794  2.1391  0.5389
 3977TIP3   OH233565   0.670   1.769   6.193 -0.5343  0.4717 -0.3587
 3977TIP3    H133566   0.666   1.749   6.099  0.2936  1.8277 -0.7067
 3977TIP3    H233567   0.608   1.840   6.205 -0.6966  0.2455  0.1388
 3978TIP3   OH233568   6.128   5.172   1.283 -0.6439  0.1012  0.0651
 3978TIP3    H133569   6.152   5.254   1.240  0.6140 -0.6873 -0.8199
 3978TIP3    H233570   6.212   5.131   1.303 -1.2352 -1.6787 -0.9235
 3979TIP3   OH233571   1.191   5.103   1.743 -0.1372 -0.1071 -0.0038
 3979TIP3    H133572   1.143   5.064   1.670 -0.4960  0.0777  0.1321
 3979TIP3    H233573   1.172   5.046   1.817  0.0853 -0.1943 -0.0128
 3980TIP3   OH233574   1.520   0.217   0.549 -0.1976 -0.5230 -0.2777
 3980TIP3    H133575   1.545   0.266   0.471  2.9558 -0.9663  0.3253
 3980TIP3    H233576   1.556   0.268   0.622 -0.7525 -1.4801  0.6994
 3981TIP3   OH233577   1.624   0.523   1.900 -0.3859  0.1671  0.2197
 3981TIP3    H133578   1.656   0.559   1.982  0.5640 -0.3574  0.0887
 3981TIP3    H233579   1.537   0.488   1.922  0.1153 -0.5327  1.1529
 3982TIP3   OH233580   1.909   4.867   1.486 -0.0918  0.1327  0.1852
 3982TIP3    H133581   1.875   4.932   1.548 -2.2837  0.0676 -0.8494
 3982TIP3    H233582   1.923   4.917   1.405  1.7650  0.0107  0.3919
 3983TIP3   OH233583   4.847   4.476   2.193 -0.3055  0.0450  0.3830
 3983TIP3    H133584   4.813   4.467   2.282  0.2201  0.4124  0.6319
 3983TIP3    H233585   4.868   4.387   2.166 -0.0592 -0.0278  0.8012
 3984TIP3   OH233586   2.697   3.836   8.198 -0.3115  0.0485  0.0890
 3984TIP3    H133587   2.698   3.929   8.174 -1.8729  0.0310 -0.1407
 3984TIP3    H233588   2.786   3.806   8.180 -0.0713  1.2358 -0.8707
 3985TIP3   OH233589   1.750   3.756   6.766 -0.2208 -0.2607 -0.5086
 3985TIP3    H133590   1.747   3.714   6.680 -1.4546 -0.6873 -0.2829
 3985TIP3    H233591   1.796   3.838   6.752 -0.9968 -0.0151 -1.7342
 3986TIP3   OH233592   1.845   5.361   7.025 -0.4239 -0.2612  0.1108
 3986TIP3    H133593   1.831   5.376   6.932  1.2892 -0.5006 -0.2244
 3986TIP3    H233594   1.808   5.275   7.042 -4.1950  1.2669  0.5496
 3987TIP3   OH233595   3.928   1.816   0.822  0.0207  0.1400 -0.2694
 3987TIP3    H133596   3.983   1.835   0.745  0.1922  1.8618  0.2473
 3987TIP3    H233597   3.979   1.848   0.896 -0.1629 -1.4778  0.6018
 3988TIP3   OH233598   3.585   6.819   2.397 -0.1290  0.5581  0.3850
 3988TIP3    H133599   3.591   6.723   2.395 -2.0841  0.3443  1.8276
 3988TIP3    H233600   3.500   6.838   2.356 -0.7684  1.4735  2.0417
 3989TIP3   OH233601   6.734   5.842   8.570  0.5055  0.0031  0.6064
 3989TIP3    H133602   6.743   5.895   8.491  0.4059  0.0507  0.6272
 3989TIP3    H233603   6.697   5.759   8.540 -1.3673  0.7065  0.8530
 3990TIP3   OH233604   6.288   2.451   8.256  0.0628  0.2302  0.0029
 3990TIP3    H133605   6.269   2.527   8.312 -0.9781  0.2912 -0.4042
 3990TIP3    H233606   6.378   2.427   8.278 -0.7080 -0.5466  2.6259
 3991TIP3   OH233607   6.664   4.498   6.917 -0.6142 -0.6304  0.1965
 3991TIP3    H133608   6.646   4.561   6.986  0.0102 -0.0229 -0.1863
 3991TIP3    H233609   6.586   4.442   6.914 -0.4429 -0.9754  1.7149
 3992TIP3   OH233610   1.185   5.338   0.428 -0.0906 -0.4001 -0.2296
 3992TIP3    H133611   1.162   5.427   0.454  1.0983  0.1792 -1.0992
 3992TIP3    H233612   1.100   5.295   0.413 -0.6979  1.5050 -2.8417
 3993TIP3   OH233613   6.476   2.457   0.846 -0.0926 -0.0087  0.3529
 3993TIP3    H133614   6.472   2.407   0.764 -0.2935 -0.6083  0.7274
 3993TIP3    H233615   6.531   2.533   0.825  1.6278 -1.2459  0.2466
 3994TIP3   OH233616   1.348   1.042   8.058 -0.1890  0.5528  0.3871
 3994TIP3    H133617   1.370   1.001   7.974  0.0972  2.2625 -0.4278
 3994TIP3    H233618   1.427   1.091   8.081 -0.2807  0.1239  1.6624
 3995TIP3   OH233619   4.272   3.684   1.575 -0.4433  0.0949  0.3618
 3995TIP3    H133620   4.186   3.720   1.552 -0.1420  0.5583 -0.0531
 3995TIP3    H233621   4.331   3.759   1.573  0.3483 -0.5183 -1.3374
 3996TIP3   OH233622   0.646   6.597   8.323 -0.0175  0.1341 -0.1613
 3996TIP3    H133623   0.579   6.590   8.390 -0.9661  0.6840 -1.0346
 3996TIP3    H233624   0.689   6.511   8.323 -1.3310 -0.5390 -0.2154
 3997TIP3   OH233625   6.599   0.051   0.128 -0.0974 -0.3711  0.2120
 3997TIP3    H133626   6.584  -0.016   0.195  1.6370 -0.3701  0.6570
 3997TIP3    H233627   6.692   0.073   0.137 -0.1755  0.6853 -1.2393
 3998TIP3   OH233628   3.457   6.837   8.122  0.1339  0.4035  0.0828
 3998TIP3    H133629   3.497   6.792   8.195 -0.5307 -0.3479 -0.0034
 3998TIP3    H233630   3.517   6.823   8.049  0.6126  0.8419  0.3862
 3999TIP3   OH233631   2.877   1.138   6.798  0.0648  0.3238  0.2603
 3999TIP3    H133632   2.799   1.108   6.845 -1.2354 -2.1687 -3.0164
 3999TIP3    H233633   2.855   1.226   6.769 -1.2757 -0.0546  0.0488
 4000TIP3   OH233634   3.344   2.566   7.879 -0.6298 -0.4039  0.5543
 4000TIP3    H133635   3.326   2.546   7.971 -0.0574 -1.4283  0.4501
 4000TIP3    H233636   3.261   2.551   7.834 -0.5072 -1.4735  0.6624
 4001TIP3   OH233637   0.294   2.704   8.260  0.0831  0.2490 -0.1328
 4001TIP3    H133638   0.303   2.798   8.281 -0.8673  0.6164 -1.3054
 4001TIP3    H233639   0.356   2.690   8.189 -1.3841  0.5279 -1.5015
 4002TIP3   OH233640   6.041   5.079   8.053  0.1694 -0.4131 -0.8248
 4002TIP3    H133641   6.121   5.129   8.036  0.4702 -0.6038  0.0078
 4002TIP3    H233642   6.064   4.988   8.036  0.2128 -0.5016 -0.2981
 4003TIP3   OH233643   0.748   1.173   7.801  0.4952 -0.4889 -0.7603
 4003TIP3    H133644   0.819   1.235   7.819  0.1100 -0.0970 -0.5656
 4003TIP3    H233645   0.709   1.156   7.887 -0.6747  0.5564 -1.0520
 4004TIP3   OH233646   4.804   1.519   7.984 -0.0033 -0.1311  0.2478
 4004TIP3    H133647   4.826   1.602   8.027  1.3041 -0.7589  0.8407
 4004TIP3    H233648   4.871   1.508   7.917 -1.0800  0.0235 -0.8958
 4005TIP3   OH233649   5.937   0.213   8.511  0.2759  0.1145 -0.2487
 4005TIP3    H133650   5.891   0.203   8.594  0.7362 -1.4215 -0.1491
 4005TIP3    H233651   5.988   0.133   8.502  3.0489  1.7860 -0.3251
 4006TIP3   OH233652   3.954   5.645   6.984  0.2188 -0.0158 -0.0848
 4006TIP3    H133653   3.871   5.691   6.970  0.0427 -0.1503  0.4759
 4006TIP3    H233654   3.999   5.649   6.900  0.6652  2.0817  0.1960
 4007TIP3   OH233655   3.075   5.114   0.321 -0.4611  0.6799  0.5335
 4007TIP3    H133656   3.118   5.140   0.239 -0.0630  3.2070  1.4667
 4007TIP3    H233657   2.982   5.118   0.302 -0.3977 -1.4559 -0.5205
 4008TIP3   OH233658   0.352   3.093   7.613  0.2376 -0.2688 -0.1661
 4008TIP3    H133659   0.378   3.087   7.521 -2.8575  0.0689 -1.1593
 4008TIP3    H233660   0.275   3.037   7.620  0.8977 -0.9919  2.4877
 4009TIP3   OH233661   3.602   2.435   0.296 -0.1537 -0.2240 -0.0532
 4009TIP3    H133662   3.605   2.347   0.333  2.0397  0.7165  2.2830
 4009TIP3    H233663   3.693   2.457   0.276 -0.6687  1.4376 -0.7810
 4010TIP3   OH233664   4.112   2.379   7.078  1.0661 -0.3311  0.6843
 4010TIP3    H133665   4.200   2.417   7.080  0.8816  0.1496  0.0500
 4010TIP3    H233666   4.072   2.408   7.160  0.2830  2.4863 -0.5539
 4011TIP3   OH233667   4.263   0.556   7.698 -0.4004 -0.5003  0.3590
 4011TIP3    H133668   4.234   0.486   7.640 -0.6658  0.6769 -0.9996
 4011TIP3    H233669   4.337   0.596   7.652 -0.2739  0.1323  1.0901
 4012TIP3   OH233670   4.745   6.333   8.219 -0.2398 -0.4833 -0.6704
 4012TIP3    H133671   4.730   6.253   8.269  0.2664  0.8785  1.7853
 4012TIP3    H233672   4.657   6.366   8.199 -0.4667 -0.6312  0.0660
 4013TIP3   OH233673   3.980   0.794   7.143 -0.2826 -0.0103  0.6673
 4013TIP3    H133674   3.929   0.803   7.063 -2.4905 -0.4086  1.9491
 4013TIP3    H233675   3.981   0.699   7.160  1.0901 -0.0296  0.5603
 4014TIP3   OH233676   4.192   5.163   8.143  0.1518  0.0611 -0.1287
 4014TIP3    H133677   4.277   5.199   8.165  0.2484 -0.1593 -0.1335
 4014TIP3    H233678   4.129   5.230   8.169  0.3070  0.0872  0.1807
 4015TIP3   OH233679   6.624   0.721   2.199 -0.1362  0.2754 -0.0418
 4015TIP3    H133680   6.530   0.701   2.206 -0.5191  1.7838 -0.4247
 4015TIP3    H233681   6.635   0.799   2.254  0.8874  0.1563 -0.0692
 4016TIP3   OH233682   0.800   2.755   8.073 -0.2020  0.1147 -0.3038
 4016TIP3    H133683   0.879   2.740   8.021 -0.4657 -1.1749 -0.3706
 4016TIP3    H233684   0.733   2.779   8.010 -0.4671 -1.2371 -0.5648
 4017TIP3   OH233685   0.237   4.614   0.081  0.2827 -0.2785  0.2188
 4017TIP3    H133686   0.221   4.576  -0.005  0.3031  1.2831 -0.5215
 4017TIP3    H233687   0.167   4.578   0.136  1.0560 -2.3353 -0.0748
 4018TIP3   OH233688   2.762   4.042   7.115 -0.3154  0.3831  0.2261
 4018TIP3    H133689   2.827   3.999   7.059  1.2927  0.3278  2.0176
 4018TIP3    H233690   2.706   3.970   7.146  0.7291 -0.0772  1.1187
 4019TIP3   OH233691   0.986   3.413   8.412 -0.2971  0.3739  0.4931
 4019TIP3    H133692   0.949   3.338   8.366  0.7862  0.8640 -1.2727
 4019TIP3    H233693   0.921   3.436   8.478 -1.5971 -0.8029 -0.3401
 4020TIP3   OH233694   0.500   4.529   0.111  0.1180 -0.0311 -0.4222
 4020TIP3    H133695   0.480   4.437   0.097 -0.5265 -0.1631  1.1665
 4020TIP3    H233696   0.452   4.575   0.042  0.8479 -0.8879 -1.5406
 4021TIP3   OH233697   2.973   6.247   6.981  0.6776  0.0808 -0.7389
 4021TIP3    H133698   3.049   6.270   6.927 -0.1257 -0.0248 -1.9465
 4021TIP3    H233699   2.922   6.328   6.987  1.1879  0.3313  0.6245
 4022TIP3   OH233700   3.660   5.891   0.909  0.1717 -0.3062  0.5081
 4022TIP3    H133701   3.636   5.966   0.855 -0.4851 -0.4793  0.5400
 4022TIP3    H233702   3.605   5.900   0.987 -0.1404 -0.9759  0.3750
 4023TIP3   OH233703   4.417   6.629   0.922 -0.3291  0.3583 -0.4842
 4023TIP3    H133704   4.495   6.585   0.957 -1.1925 -0.9080 -0.1166
 4023TIP3    H233705   4.435   6.722   0.934  0.6442  0.0448  0.6382
 4024TIP3   OH233706   0.389   5.901   7.863 -0.0676  0.5836  0.2961
 4024TIP3    H133707   0.405   5.807   7.871  0.3318  0.5848 -0.3911
 4024TIP3    H233708   0.359   5.912   7.772 -2.3604  0.8118  1.0086
 4025TIP3   OH233709   3.736   5.961   1.591 -0.4686 -0.6536 -0.3263
 4025TIP3    H133710   3.689   5.944   1.673  0.1730 -0.3868  0.1027
 4025TIP3    H233711   3.819   5.914   1.600  0.2387  0.5650 -0.1855
 4026TIP3   OH233712   0.215   2.344   8.655 -0.1795 -0.1027 -0.5856
 4026TIP3    H133713   0.282   2.321   8.591  0.2390 -0.9831  0.1535
 4026TIP3    H233714   0.243   2.430   8.687  1.9050 -1.3576  1.3103
 4027TIP3   OH233715   6.471   2.342   1.096 -0.0223 -0.3039  0.6036
 4027TIP3    H133716   6.525   2.264   1.108 -0.6934 -0.7607  0.6562
 4027TIP3    H233717   6.458   2.348   1.002 -2.0765 -1.7109  0.7479
 4028TIP3   OH233718   6.583   0.090   1.594 -0.1896  0.3406  0.1148
 4028TIP3    H133719   6.487   0.090   1.589 -0.2510 -1.6761  0.3851
 4028TIP3    H233720   6.602   0.062   1.683  0.5908 -1.5345 -0.5910
 4029TIP3   OH233721   1.411   3.511   0.580  0.8609 -0.4147  1.0613
 4029TIP3    H133722   1.341   3.473   0.633 -1.0788  1.3051 -0.0971
 4029TIP3    H233723   1.478   3.538   0.643  0.1578 -1.4622  2.2857
 4030TIP3   OH233724   2.249   5.022   6.483 -0.0227 -0.3047  0.0701
 4030TIP3    H133725   2.268   4.934   6.452  0.3255 -1.0922  2.2810
 4030TIP3    H233726   2.320   5.076   6.449  2.2456 -1.7699  2.0929
 4031TIP3   OH233727   1.646   2.110   1.688  0.1049  0.0950 -0.5840
 4031TIP3    H133728   1.611   2.195   1.662 -0.6418  0.0643  0.2905
 4031TIP3    H233729   1.680   2.124   1.777 -0.5825 -0.6554 -0.1874
 4032TIP3   OH233730   1.204   1.374   6.434 -0.2835 -0.0039 -0.3869
 4032TIP3    H133731   1.237   1.413   6.353  0.5254 -0.1667 -0.1397
 4032TIP3    H233732   1.276   1.320   6.466  0.0801  1.4342  1.3587
 4033TIP3   OH233733   6.758   1.768   6.843 -0.0947  0.0526 -0.0425
 4033TIP3    H133734   6.667   1.791   6.860 -0.3441  0.4344 -1.6844
 4033TIP3    H233735   6.765   1.676   6.867 -0.8750  0.0517  0.2140
 4034TIP3   OH233736   3.859   4.395   0.329 -0.6899 -0.0672  0.1310
 4034TIP3    H133737   3.774   4.363   0.357 -1.3013 -0.8680 -2.4295
 4034TIP3    H233738   3.841   4.480   0.289  0.1317  0.9712  1.8547
 4035TIP3   OH233739   6.538   2.416   1.344 -0.1453 -0.2485  0.5975
 4035TIP3    H133740   6.586   2.334   1.333 -1.5483 -0.9249 -0.9514
 4035TIP3    H233741   6.505   2.437   1.256 -0.9835  1.2446  1.2230
 4036TIP3   OH233742   0.450   0.466   8.089 -0.0476 -0.5531 -0.5830
 4036TIP3    H133743   0.375   0.511   8.128 -0.1609  0.9375 -2.3563
 4036TIP3    H233744   0.410   0.408   8.023  0.2836 -0.6789 -0.6734
 4037TIP3   OH233745   3.710   4.094   8.310 -0.3573  0.6372 -0.2306
 4037TIP3    H133746   3.801   4.066   8.319 -0.9537 -1.0115  1.1549
 4037TIP3    H233747   3.699   4.110   8.217  0.6349 -1.8314 -0.8445
 4038TIP3   OH233748   0.756   6.586   1.956  0.3210  0.1409 -0.2145
 4038TIP3    H133749   0.676   6.549   1.992 -0.3149  0.8074 -0.9110
 4038TIP3    H233750   0.728   6.635   1.879  1.2753  1.1622  0.0505
 4039TIP3   OH233751   0.906   5.143   1.589 -0.2871  0.7211 -0.0273
 4039TIP3    H133752   0.828   5.103   1.628  0.7397 -0.5178  0.8171
 4039TIP3    H233753   0.912   5.103   1.502  1.0133 -1.4723  0.9886
 4040TIP3   OH233754   3.165   0.878   8.515  0.3089  0.0813  1.0117
 4040TIP3    H133755   3.088   0.822   8.524  1.3600 -1.3358  1.7029
 4040TIP3    H233756   3.131   0.967   8.520 -1.5905 -0.3974 -1.3859
 4041TIP3   OH233757   1.693   6.194   0.096 -0.1652  0.5435 -0.0092
 4041TIP3    H133758   1.659   6.272   0.051  0.6490 -0.1792 -2.0023
 4041TIP3    H233759   1.787   6.197   0.078  0.0912 -0.1311  1.1623
 4042TIP3   OH233760   3.248   1.691   8.077 -0.3836  0.1241 -0.0436
 4042TIP3    H133761   3.326   1.716   8.028 -0.2350  0.9554  0.6160
 4042TIP3    H233762   3.183   1.758   8.056 -0.6819 -0.1367  0.0232
 4043TIP3   OH233763   5.258   6.334   7.511  0.4564  0.7951 -0.5486
 4043TIP3    H133764   5.341   6.376   7.533  0.5776  0.2141  0.1383
 4043TIP3    H233765   5.250   6.343   7.416  3.3537 -2.7540 -1.3544
 4044TIP3   OH233766   1.447   0.689   8.162  0.0858  0.3747 -0.0640
 4044TIP3    H133767   1.395   0.698   8.082  1.2810  0.1554 -0.9016
 4044TIP3    H233768   1.508   0.617   8.142  1.6162  1.4925  0.3421
 4045TIP3   OH233769   0.296   1.585   6.952  0.1410  0.1425 -0.7320
 4045TIP3    H133770   0.266   1.560   7.040  1.0698 -0.3085 -0.5302
 4045TIP3    H233771   0.391   1.573   6.955  0.3996  1.7722 -1.2679
 4046TIP3   OH233772   5.133   1.707   6.204  0.4181 -0.2581 -0.4727
 4046TIP3    H133773   5.073   1.781   6.192  0.8259 -0.0758 -1.5504
 4046TIP3    H233774   5.189   1.733   6.277 -0.9303 -0.5310  0.7157
 4047TIP3   OH233775   6.541   2.616   7.752  0.4999  0.1759  0.0862
 4047TIP3    H133776   6.561   2.608   7.659  1.2790  0.8285  0.1825
 4047TIP3    H233777   6.569   2.533   7.790 -1.6959 -0.9256 -0.5341
 4048TIP3   OH233778   0.860   2.073   0.022  0.0999  0.1803  0.1123
 4048TIP3    H133779   0.858   1.980  -0.002 -1.3078  0.1835  0.1329
 4048TIP3    H233780   0.844   2.119  -0.060 -0.5033  0.3559  0.3309
 4049TIP3   OH233781   4.736   0.545   1.429 -0.4865  0.3657  0.3417
 4049TIP3    H133782   4.825   0.531   1.394  0.0737 -0.0327  1.8608
 4049TIP3    H233783   4.720   0.639   1.415  1.2455  1.0550  2.3166
 4050TIP3   OH233784   5.725   0.310   1.552 -0.0817 -0.4768 -0.3969
 4050TIP3    H133785   5.667   0.251   1.599 -0.3987  0.9648  1.1122
 4050TIP3    H233786   5.666   0.374   1.510  0.3386  0.2054  0.0334
 4051TIP3   OH233787   3.092   5.487   0.972  0.5506 -0.0111  0.3422
 4051TIP3    H133788   3.069   5.569   0.929 -0.5390 -1.6758 -2.4833
 4051TIP3    H233789   3.013   5.463   1.021  1.2298  1.0513  2.0722
 4052TIP3   OH233790   1.126   2.284   7.406 -0.1860 -0.4773 -0.2212
 4052TIP3    H133791   1.214   2.323   7.414  1.2205 -3.2255 -1.0474
 4052TIP3    H233792   1.082   2.337   7.341  0.3925  1.6749  1.0374
 4053TIP3   OH233793   0.890   6.023   7.900  0.1591 -0.2267 -0.3046
 4053TIP3    H133794   0.884   6.084   7.826 -2.7700 -0.4044 -0.3148
 4053TIP3    H233795   0.932   5.945   7.862  1.3658  0.7056 -0.9903
 4054TIP3   OH233796   6.771   2.625   8.121 -0.2036 -0.2501  0.7691
 4054TIP3    H133797   6.784   2.717   8.140 -0.1640 -0.5419  2.2752
 4054TIP3    H233798   6.676   2.614   8.117 -0.2101 -0.1587  0.6861
 4055TIP3   OH233799   1.615   0.517   8.003 -0.1791  0.3123  0.2616
 4055TIP3    H133800   1.586   0.453   7.937  1.8306  0.0234 -0.3916
 4055TIP3    H233801   1.651   0.589   7.952  0.8068  0.3831  1.0417
 4056TIP3   OH233802   5.996   3.005   7.896 -0.5133  0.5846  0.7916
 4056TIP3    H133803   6.059   3.076   7.883  0.7177 -0.5791  0.1589
 4056TIP3    H233804   6.030   2.955   7.970 -0.6842 -0.0479  0.4541
 4057TIP3   OH233805   3.324   0.904   7.457 -0.3671  0.2214 -0.3164
 4057TIP3    H133806   3.324   0.811   7.431 -2.3504  0.3455 -0.8708
 4057TIP3    H233807   3.400   0.940   7.411 -0.2102 -0.8882 -0.9895
 4058TIP3   OH233808   1.075   4.795   8.331 -0.2083  0.1160  0.6978
 4058TIP3    H133809   1.006   4.861   8.324  0.9679  1.5058  1.5705
 4058TIP3    H233810   1.044   4.734   8.398  0.4274  2.1919  3.0700
 4059TIP3   OH233811   5.049   4.050   6.277  0.4915 -0.3643 -0.1579
 4059TIP3    H133812   4.975   3.999   6.310  0.2472 -0.5010 -0.8869
 4059TIP3    H233813   5.067   4.012   6.191  0.1752  0.8857 -0.7981
 4060TIP3   OH233814   1.848   4.263   0.394 -0.1778  0.6060 -0.5083
 4060TIP3    H133815   1.815   4.210   0.322 -0.9384  0.1623  0.1449
 4060TIP3    H233816   1.926   4.217   0.425  0.0527  0.7081 -0.9372
 4061TIP3   OH233817   3.255   0.023   6.739  0.2404  0.5360  0.5223
 4061TIP3    H133818   3.195   0.071   6.796  0.8254 -0.6908  2.2428
 4061TIP3    H233819   3.198  -0.017   6.673 -0.5009  1.6404  0.4631
 4062TIP3   OH233820   1.883   0.966   1.457  0.0611 -0.2440 -0.4034
 4062TIP3    H133821   1.868   1.033   1.390  2.4267  1.8497  1.0246
 4062TIP3    H233822   1.808   0.975   1.517 -0.2563  0.2818 -0.8686
 4063TIP3   OH233823   5.498   4.057   2.744 -0.3664 -0.2806  0.2919
 4063TIP3    H133824   5.493   4.150   2.721  0.0579  0.1179  1.7129
 4063TIP3    H233825   5.413   4.038   2.784 -1.1109 -0.9749 -1.4938
 4064TIP3   OH233826   1.530   5.650   8.530 -0.0636 -0.4907  0.3162
 4064TIP3    H133827   1.492   5.727   8.574  0.8365 -0.2389  0.6761
 4064TIP3    H233828   1.466   5.627   8.463  0.6325  1.9280 -1.2869
 4065TIP3   OH233829   4.216   5.697   0.786 -0.3679  0.5607 -0.6623
 4065TIP3    H133830   4.240   5.651   0.866 -1.4731  2.7003  0.9610
 4065TIP3    H233831   4.146   5.644   0.748 -0.3920 -0.0427  0.1993
 4066TIP3   OH233832   6.764   1.605   1.047  0.4983  0.1735  0.1401
 4066TIP3    H133833   6.755   1.562   0.961  0.1161 -0.0902  0.3110
 4066TIP3    H233834   6.678   1.596   1.087  0.2874  1.4818  0.0131
 4067TIP3   OH233835   4.222   5.583   0.282 -0.7499  0.1865 -0.5534
 4067TIP3    H133836   4.261   5.667   0.307 -1.5928  0.6915 -0.9229
 4067TIP3    H233837   4.154   5.568   0.347 -1.0237  0.0950 -0.8616
 4068TIP3   OH233838   4.411   4.379   2.175  0.0898 -0.0269  0.4929
 4068TIP3    H133839   4.324   4.340   2.162 -0.3442  0.1759  2.3616
 4068TIP3    H233840   4.402   4.469   2.145 -0.3429 -0.0257  0.6171
 4069TIP3   OH233841   0.327   5.028   1.769  0.1084 -0.0204  0.2064
 4069TIP3    H133842   0.317   4.934   1.757 -1.9531 -0.3480  3.3633
 4069TIP3    H233843   0.421   5.044   1.756  0.5037 -2.4877 -0.4077
 4070TIP3   OH233844   1.870   2.923   6.567  0.0641  0.4539 -0.0629
 4070TIP3    H133845   1.954   2.952   6.531  0.8177  0.3697  1.5414
 4070TIP3    H233846   1.840   2.996   6.621  0.3782 -0.4548  1.4028
 4071TIP3   OH233847   1.665   6.724   7.858 -0.0405  0.0378  0.0417
 4071TIP3    H133848   1.675   6.778   7.937 -0.8967 -0.4793  0.5236
 4071TIP3    H233849   1.571   6.722   7.843  0.0243 -0.9062 -0.2596
 4072TIP3   OH233850   4.507   3.991   7.649 -0.4436 -0.0608  0.0302
 4072TIP3    H133851   4.555   3.961   7.726 -1.7732 -0.8671  0.5905
 4072TIP3    H233852   4.492   3.912   7.597  0.6157  0.5059 -1.1839
 4073TIP3   OH233853   5.939   2.282   7.788  0.1767 -0.1588  0.1643
 4073TIP3    H133854   6.025   2.317   7.763  0.5983 -0.7277  0.7973
 4073TIP3    H233855   5.956   2.228   7.864 -0.5312 -1.4558 -0.5662
 4074TIP3   OH233856   5.416   3.559   0.120  0.5990 -0.0410 -0.3788
 4074TIP3    H133857   5.365   3.626   0.075  0.3436  0.2050  0.2642
 4074TIP3    H233858   5.351   3.502   0.161  0.7784 -1.3584 -1.8366
 4075TIP3   OH233859   5.559   5.596   0.132  0.3311  0.2126  0.5023
 4075TIP3    H133860   5.625   5.539   0.093 -0.4498 -0.3612 -0.0086
 4075TIP3    H233861   5.608   5.673   0.161  1.1259  0.0832 -0.4524
 4076TIP3   OH233862   1.996   3.278   0.289 -0.3878  0.8550 -0.1683
 4076TIP3    H133863   2.045   3.299   0.368 -1.0162  3.3542 -0.3381
 4076TIP3    H233864   1.915   3.329   0.297 -0.2681  1.5661 -2.5738
 4077TIP3   OH233865   3.315   4.266   1.739 -0.4331  0.1320  0.0677
 4077TIP3    H133866   3.364   4.341   1.705 -1.0215  1.0178  1.1121
 4077TIP3    H233867   3.372   4.229   1.806 -0.4686  0.1233  0.0928
 4078TIP3   OH233868   3.757   5.956   7.184 -0.1842 -0.4625  0.4224
 4078TIP3    H133869   3.727   5.871   7.150  0.1935 -0.7994  0.9095
 4078TIP3    H233870   3.844   5.938   7.219 -0.2419  0.0536  0.8445
 4079TIP3   OH233871   6.818   4.493   1.855 -0.2624 -0.1603  0.7151
 4079TIP3    H133872   6.757   4.542   1.799 -0.9032 -1.1669  0.4876
 4079TIP3    H233873   6.894   4.477   1.799 -1.0420 -1.4645 -0.0376
 4080TIP3   OH233874   1.371   4.054   8.220 -0.1025 -0.3797  0.3028
 4080TIP3    H133875   1.417   4.109   8.283 -0.8521  0.5677  0.0361
 4080TIP3    H233876   1.316   3.997   8.274  0.4207 -0.6494  0.5626
 4081TIP3   OH233877   0.808   6.198   7.343  0.1812  0.3345  0.5480
 4081TIP3    H133878   0.786   6.286   7.312 -0.1392 -0.2026 -0.8304
 4081TIP3    H233879   0.902   6.202   7.361 -0.1111  1.3655  2.0039
 4082TIP3   OH233880   4.293   4.454   1.076 -0.4855 -0.2395  0.5807
 4082TIP3    H133881   4.283   4.548   1.067 -0.2425 -0.2506  0.1912
 4082TIP3    H233882   4.235   4.417   1.009  1.1883 -0.3229 -0.8771
 4083TIP3   OH233883   4.353   3.686   8.120 -0.3997  0.0194 -0.1317
 4083TIP3    H133884   4.340   3.763   8.175 -2.1932 -0.6700  0.4880
 4083TIP3    H233885   4.446   3.687   8.098 -0.5985  3.0337 -1.2007
 4084TIP3   OH233886   4.440   5.484   7.803  0.1847 -0.0961  0.2256
 4084TIP3    H133887   4.411   5.516   7.717  0.5105  0.5987  0.3687
 4084TIP3    H233888   4.515   5.539   7.825 -0.4756  0.3713  1.3887
 4085TIP3   OH233889   1.903   4.324   6.140  0.5627 -0.2947 -0.4094
 4085TIP3    H133890   1.990   4.325   6.102  0.5060 -0.7277 -0.5509
 4085TIP3    H233891   1.896   4.408   6.187  0.8829 -0.0646 -0.7728
 4086TIP3   OH233892   3.539   1.734   7.001  0.3060 -0.2265 -0.2828
 4086TIP3    H133893   3.529   1.661   7.063  1.2453  0.6105  0.9111
 4086TIP3    H233894   3.616   1.781   7.033  0.6688  0.3776 -1.9780
 4087TIP3   OH233895   0.762   6.050   2.056  0.3454  0.1597 -0.9730
 4087TIP3    H133896   0.848   6.011   2.043  1.3036  1.9011 -0.1887
 4087TIP3    H233897   0.725   6.002   2.130  1.9935  1.3869  0.7504
 4088TIP3   OH233898   6.020   5.947   0.356 -0.2095 -0.2203 -0.4444
 4088TIP3    H133899   5.945   5.916   0.408  1.5488 -2.1830  1.1162
 4088TIP3    H233900   6.041   5.873   0.299  2.1039 -0.8355  1.0421
 4089TIP3   OH233901   6.114   0.903   7.034  0.0259 -0.0736 -0.3972
 4089TIP3    H133902   6.066   0.846   6.974 -0.2253 -1.0624  0.6932
 4089TIP3    H233903   6.064   0.984   7.036 -0.7106 -0.5178 -0.4900
 4090TIP3   OH233904   3.485   4.108   8.477 -0.1001  0.0207 -0.7627
 4090TIP3    H133905   3.515   4.068   8.559 -0.3948  1.6710  0.2046
 4090TIP3    H233906   3.557   4.094   8.416  0.3712 -0.7450 -0.0578
 4091TIP3   OH233907   4.846   4.831   7.984 -0.2064  0.2914 -0.5891
 4091TIP3    H133908   4.858   4.766   8.053  1.2077  0.3611 -0.7467
 4091TIP3    H233909   4.914   4.896   8.001 -0.1593  0.5573 -1.7565
 4092TIP3   OH233910   6.130   4.521   7.346  0.1412  0.5831  0.0006
 4092TIP3    H133911   6.215   4.477   7.341  0.3918  1.0820 -0.2594
 4092TIP3    H233912   6.149   4.612   7.321 -0.1196  1.1830  1.8260
 4093TIP3   OH233913   2.275   5.455   1.551  0.0597  0.1661  0.2052
 4093TIP3    H133914   2.325   5.516   1.605  0.2216  0.9947 -0.8323
 4093TIP3    H233915   2.221   5.512   1.496 -0.6372 -0.6722  0.0139
 4094TIP3   OH233916   2.471   3.192   7.924 -0.0738  0.0366 -0.1320
 4094TIP3    H133917   2.531   3.217   7.854  0.1683  0.2019  0.1287
 4094TIP3    H233918   2.463   3.271   7.978  0.5823 -0.3808  0.6137
 4095TIP3   OH233919   6.811   3.687   2.416  0.4128  0.3145  0.2899
 4095TIP3    H133920   6.857   3.752   2.469  0.3075  0.7128 -0.1015
 4095TIP3    H233921   6.870   3.612   2.413 -0.1533 -0.2509  2.1036
 4096TIP3   OH233922   2.474   3.690   0.798 -0.1262 -0.0161 -0.2133
 4096TIP3    H133923   2.428   3.765   0.761 -0.4097 -1.4312 -3.0089
 4096TIP3    H233924   2.566   3.706   0.777  0.3281  1.1804  2.3690
 4097TIP3   OH233925   6.192   2.607   0.029  0.5711 -0.2563  0.1287
 4097TIP3    H133926   6.208   2.513   0.019  0.1060 -0.2279 -0.9729
 4097TIP3    H233927   6.223   2.646  -0.053  1.4982  0.6564  0.8841
 4098TIP3   OH233928   4.438   4.287   0.540  0.1997 -0.4023  0.2470
 4098TIP3    H133929   4.490   4.361   0.509 -0.8157 -0.2419 -1.1607
 4098TIP3    H233930   4.453   4.284   0.634  2.0459  0.1745  0.0019
 4099TIP3   OH233931   3.396   1.157   7.103 -0.2404 -0.2895 -0.2808
 4099TIP3    H133932   3.461   1.226   7.117 -0.5071 -0.0846 -0.0447
 4099TIP3    H233933   3.431   1.106   7.030 -1.1245  1.4141 -1.9867
 4100TIP3   OH233934   3.932   2.053   7.167 -0.1941 -0.0773  0.4519
 4100TIP3    H133935   4.005   2.082   7.220 -0.3743 -0.4725  0.9252
 4100TIP3    H233936   3.964   2.058   7.077  1.1796 -2.2426  0.7430
 4101TIP3   OH233937   5.883   0.597   8.562 -0.2466 -0.4602  0.0397
 4101TIP3    H133938   5.899   0.508   8.592 -1.2526 -0.8628 -0.5740
 4101TIP3    H233939   5.829   0.637   8.630 -1.7529 -1.0830 -0.7304
 4102TIP3   OH233940   4.763   3.554   0.377 -0.5734 -0.7242 -0.0239
 4102TIP3    H133941   4.853   3.568   0.346 -0.3073  1.1217  1.4037
 4102TIP3    H233942   4.720   3.509   0.305  1.0681 -0.1705 -1.4278
 4103TIP3   OH233943   3.139   5.888   8.402  0.1161 -0.3247 -0.8595
 4103TIP3    H133944   3.215   5.839   8.371 -0.4403  0.5569 -3.9407
 4103TIP3    H233945   3.146   5.973   8.358 -0.5117  1.3458  2.0241
 4104TIP3   OH233946   0.027   0.502   0.747 -0.1075  0.6188  0.3227
 4104TIP3    H133947   0.099   0.529   0.690 -0.6935 -1.5722 -1.6415
 4104TIP3    H233948   0.062   0.426   0.794 -1.1554 -0.6913 -0.9185
 4105TIP3   OH233949   5.236   0.103   6.636  0.0714 -0.2526  0.4239
 4105TIP3    H133950   5.149   0.110   6.595 -0.3621  2.6777  1.6311
 4105TIP3    H233951   5.294   0.149   6.576  0.5274 -0.8766  0.3798
 4106TIP3   OH233952   4.992   6.070   7.851  0.1502  0.2262 -0.0586
 4106TIP3    H133953   4.901   6.041   7.844  0.2020 -0.3383  1.3210
 4106TIP3    H233954   5.028   6.018   7.922  1.5187  0.5627 -0.4827
 4107TIP3   OH233955   1.462   1.357   1.315 -0.1373  0.0445 -0.0543
 4107TIP3    H133956   1.469   1.348   1.220  0.5874 -0.5486  0.0441
 4107TIP3    H233957   1.520   1.430   1.337  0.7824 -0.7000  0.0657
 4108TIP3   OH233958   2.857   1.750   1.843  0.0292  0.2357  0.5060
 4108TIP3    H133959   2.818   1.784   1.924 -0.4077  2.1195 -0.4488
 4108TIP3    H233960   2.949   1.775   1.848  0.4181 -1.2144  1.1922
 4109TIP3   OH233961   2.945   6.047   1.340 -0.2692  0.7438  0.4190
 4109TIP3    H133962   2.869   6.101   1.359 -2.0830 -0.8172 -1.7607
 4109TIP3    H233963   2.938   5.974   1.401 -2.2285 -0.8052 -1.4807
 4110TIP3   OH233964   1.315   2.157   7.683  0.3147  0.0424 -0.2509
 4110TIP3    H133965   1.224   2.186   7.670  0.4036 -0.2004 -1.4820
 4110TIP3    H233966   1.356   2.230   7.729 -0.4638  0.2218  0.1878
 4111TIP3   OH233967   6.755   3.576   1.343  0.0970 -0.4732 -0.4290
 4111TIP3    H133968   6.835   3.560   1.293  0.0532 -0.2372 -0.5702
 4111TIP3    H233969   6.731   3.666   1.323 -1.5391 -1.2456 -2.2740
 4112TIP3   OH233970   1.887   2.690   7.595 -0.3409 -0.1041  0.9007
 4112TIP3    H133971   1.886   2.671   7.501 -1.1358  0.5975  0.7571
 4112TIP3    H233972   1.932   2.774   7.602 -0.6751  0.0591  1.1065
 4113TIP3   OH233973   5.752   2.086   7.985 -0.1253  0.0897 -0.6211
 4113TIP3    H133974   5.698   2.163   8.005 -0.1375 -0.4569  1.7011
 4113TIP3    H233975   5.694   2.027   7.937 -0.6059  0.8297 -0.9633
 4114TIP3   OH233976   0.673   2.795   6.517  0.1178  0.0084  0.0560
 4114TIP3    H133977   0.760   2.835   6.516  0.1397  0.0527 -2.6280
 4114TIP3    H233978   0.612   2.869   6.522  0.2087  0.1462 -0.8297
 4115TIP3   OH233979   4.108   6.078   0.024  0.5219  0.6811 -0.0738
 4115TIP3    H133980   4.183   6.019   0.022 -1.1549 -1.6008 -0.3455
 4115TIP3    H233981   4.105   6.115  -0.064  0.3169 -0.6288 -0.6425
 4116TIP3   OH233982   3.051   2.341   1.250 -0.4404 -0.1922 -0.1758
 4116TIP3    H133983   3.101   2.355   1.169 -0.9882 -0.0970 -0.5056
 4116TIP3    H233984   3.086   2.261   1.287  0.1112 -0.0030 -0.2851
 4117TIP3   OH233985   3.582   3.863   6.519 -0.4324  0.1861 -0.0571
 4117TIP3    H133986   3.591   3.958   6.519  0.1132  0.1662  1.5481
 4117TIP3    H233987   3.547   3.842   6.606  1.3149 -1.2120  0.3639
 4118TIP3   OH233988   0.217   0.553   0.515 -0.6364  0.1032 -0.5169
 4118TIP3    H133989   0.270   0.513   0.446 -2.3854 -2.0781 -0.7299
 4118TIP3    H233990   0.150   0.602   0.468  2.0525  4.5277 -0.2762
 4119TIP3   OH233991   2.278   2.199   0.721 -0.7319 -0.1540 -0.0125
 4119TIP3    H133992   2.245   2.246   0.797  1.1316  0.9882  0.1603
 4119TIP3    H233993   2.289   2.266   0.653 -1.2879 -0.9533 -0.9208
 4120TIP3   OH233994   1.033   1.018   2.617 -0.1724 -0.3176 -0.7670
 4120TIP3    H133995   1.089   1.040   2.542  0.8789  0.4883  0.2119
 4120TIP3    H233996   0.948   1.000   2.579  0.0144  1.2825 -2.0720
 4121TIP3   OH233997   0.420   5.807   7.224 -0.7848  1.0061 -0.0047
 4121TIP3    H133998   0.435   5.820   7.130  1.4562 -0.3168  0.0858
 4121TIP3    H233999   0.481   5.867   7.266 -2.1359  1.9592  0.6709
 4122TIP3   OH234000   2.990   3.669   8.218 -0.4976  0.1237  0.5244
 4122TIP3    H134001   3.043   3.713   8.152  1.5937  0.5955  2.3950
 4122TIP3    H234002   3.024   3.580   8.221 -0.8131  0.0059  0.7397
 4123TIP3   OH234003   1.851   6.091   7.205  0.1332 -0.3342 -0.1448
 4123TIP3    H134004   1.867   6.131   7.120  0.3487 -0.1701 -0.0265
 4123TIP3    H234005   1.764   6.051   7.197 -0.0823  0.1501 -0.2640
 4124TIP3   OH234006   3.683   1.585   0.647  0.5871 -0.1210 -0.0053
 4124TIP3    H134007   3.640   1.521   0.590  0.2630 -0.5758  0.7259
 4124TIP3    H234008   3.776   1.574   0.629  0.4487  0.4086 -1.1274
 4125TIP3   OH234009   5.758   5.145   6.571  0.8009 -0.5081 -0.4834
 4125TIP3    H134010   5.815   5.125   6.645  0.2917 -1.6496 -0.3791
 4125TIP3    H234011   5.812   5.129   6.494  0.8088 -1.0379 -0.3760
 4126TIP3   OH234012   4.909   1.655   8.426  0.1384 -0.2648 -0.7541
 4126TIP3    H134013   4.886   1.591   8.493 -1.2781 -0.7399 -1.6540
 4126TIP3    H234014   4.992   1.624   8.390  1.9646  1.0233  1.9830
 4127TIP3   OH234015   2.779   0.482   0.354 -0.5120  0.0933  0.1061
 4127TIP3    H134016   2.865   0.525   0.348  0.4075 -1.7919 -1.3443
 4127TIP3    H234017   2.717   0.550   0.328  0.5311  1.4795  1.1151
 4128TIP3   OH234018   1.915   3.407   7.580  0.4576  0.0465 -0.1962
 4128TIP3    H134019   1.892   3.469   7.510 -0.4042  1.6969  1.4601
 4128TIP3    H234020   1.849   3.338   7.574 -0.0744  0.5731 -0.5224
 4129TIP3   OH234021   3.202   0.774   0.983 -0.2112  0.1940  0.2525
 4129TIP3    H134022   3.236   0.836   0.918 -2.3127  1.1947  0.0225
 4129TIP3    H234023   3.163   0.704   0.931  0.0899 -0.1447  0.4810
 4130TIP3   OH234024   0.898   6.057   8.480 -0.0440 -0.3180  0.4822
 4130TIP3    H134025   0.836   6.026   8.415 -2.3532  0.9500  1.9363
 4130TIP3    H234026   0.930   6.140   8.444  0.0516 -0.4877  0.1726
 4131TIP3   OH234027   3.665   6.803   7.948 -0.0180  0.5867  0.5450
 4131TIP3    H134028   3.665   6.722   7.896  0.3322  0.7551  0.2793
 4131TIP3    H234029   3.734   6.789   8.013 -1.0109  0.0306  1.5251
 4132TIP3   OH234030   4.920   2.362   6.577  0.3626 -0.3090  0.3007
 4132TIP3    H134031   4.938   2.454   6.598 -0.6696  0.0173 -0.2077
 4132TIP3    H234032   4.844   2.365   6.519 -0.6529 -1.5646  1.4897
 4133TIP3   OH234033   1.564   2.253   0.316 -0.3093  0.3190  0.1839
 4133TIP3    H134034   1.529   2.287   0.234  1.6093 -0.2384 -0.9253
 4133TIP3    H234035   1.620   2.180   0.290  0.7873  0.4734  1.9388
 4134TIP3   OH234036   5.598   6.227   7.500  0.3046  0.4711  0.0155
 4134TIP3    H134037   5.627   6.141   7.529  1.1911 -0.2524 -2.7175
 4134TIP3    H234038   5.677   6.268   7.464 -0.2698  2.1508  0.5813
 4135TIP3   OH234039   4.125   1.584   6.274  0.4180  0.5362 -0.5424
 4135TIP3    H134040   4.034   1.567   6.298  0.2056  0.2634 -1.5119
 4135TIP3    H234041   4.172   1.506   6.301  0.5686  1.1039  0.9387
 4136TIP3   OH234042   6.520   4.772   0.151  0.7564  0.4880 -0.0225
 4136TIP3    H134043   6.516   4.852   0.205 -0.5763  0.8449 -0.6132
 4136TIP3    H234044   6.554   4.802   0.067 -2.0879  1.0021 -1.1100
 4137TIP3   OH234045   0.715   4.416   6.872 -0.2025  0.2415  0.3418
 4137TIP3    H134046   0.640   4.370   6.834 -0.1820 -0.0484  0.6476
 4137TIP3    H234047   0.758   4.458   6.797 -2.2699  2.8153  0.4509
 4138TIP3   OH234048   6.584   2.988   7.336  0.0814  0.5410 -0.6530
 4138TIP3    H134049   6.617   2.929   7.404 -0.0029 -0.8054 -1.7212
 4138TIP3    H234050   6.490   2.969   7.332 -0.4056  2.4030  0.5089
 4139TIP3   OH234051   4.934   2.771   1.261  0.3312 -0.3071  0.0392
 4139TIP3    H134052   5.000   2.830   1.224  0.2818 -0.0783  0.3102
 4139TIP3    H234053   4.969   2.746   1.347  0.3037 -0.5904 -0.0319
 4140TIP3   OH234054   6.296   3.716   6.783 -0.0047 -1.0744  0.1084
 4140TIP3    H134055   6.366   3.752   6.729 -1.7329 -0.3220 -1.7646
 4140TIP3    H234056   6.321   3.738   6.873  0.4300  2.3907 -0.7329
 4141TIP3   OH234057   6.409   6.376   8.060 -0.0053  0.4858 -0.4844
 4141TIP3    H134058   6.316   6.385   8.038  0.0167 -0.0030 -0.7840
 4141TIP3    H234059   6.443   6.466   8.057 -0.9171  0.9924  1.7650
 4142TIP3   OH234060   6.838   2.900   0.022 -0.0957 -0.4715  0.5494
 4142TIP3    H134061   6.812   2.952  -0.055 -0.7276 -0.7136  0.5913
 4142TIP3    H234062   6.768   2.835   0.032  0.5932 -1.2312  0.5995
 4143TIP3   OH234063   1.675   5.314   0.614 -0.4423  0.4035  0.6650
 4143TIP3    H134064   1.708   5.272   0.535 -0.9179  1.3331 -0.0597
 4143TIP3    H234065   1.583   5.286   0.620 -0.2443 -0.1461  1.2378
 4144TIP3   OH234066   0.516   0.964   0.912 -0.3306 -0.0509  0.2419
 4144TIP3    H134067   0.444   0.900   0.913 -0.1914 -0.2513 -0.8419
 4144TIP3    H234068   0.574   0.936   0.983 -0.4276 -0.9619 -0.0179
 4145TIP3   OH234069   2.640   2.993   7.399 -0.0921 -0.0185  0.4627
 4145TIP3    H134070   2.545   2.985   7.392  0.0182 -1.2931  0.0195
 4145TIP3    H234071   2.658   3.086   7.386 -1.4422  0.6869  2.9562
 4146TIP3   OH234072   4.993   5.490   8.614 -0.2201 -0.0036  0.4031
 4146TIP3    H134073   4.964   5.406   8.578 -0.6535  0.1570  0.3679
 4146TIP3    H234074   4.989   5.477   8.709  2.6676 -1.0338  0.4852
 4147TIP3   OH234075   5.524   1.105   7.890 -0.5791  0.5272 -0.1941
 4147TIP3    H134076   5.555   1.177   7.945  0.2956  0.2033 -0.2523
 4147TIP3    H234077   5.582   1.104   7.815  1.3642 -2.0383  1.1649
 4148TIP3   OH234078   4.735   0.866   7.357  0.1486 -0.4558  0.3595
 4148TIP3    H134079   4.721   0.773   7.339 -0.5954 -0.5064  1.1363
 4148TIP3    H234080   4.743   0.906   7.271  1.6410 -1.3961  0.0211
 4149TIP3   OH234081   6.810   2.070   8.344 -0.5953 -0.3121  0.0524
 4149TIP3    H134082   6.737   2.132   8.342 -1.2820 -1.1312 -1.3016
 4149TIP3    H234083   6.778   1.994   8.295  0.7459 -1.1635  0.4649
 4150TIP3   OH234084   5.853   5.725   2.390 -0.6832  0.3384 -0.1661
 4150TIP3    H134085   5.901   5.804   2.366  0.0923  0.2443  0.9682
 4150TIP3    H234086   5.918   5.655   2.385 -1.1001 -0.0535 -0.1452
 4151TIP3   OH234087   2.737   5.127   1.190 -0.6951  0.2123  0.4335
 4151TIP3    H134088   2.728   5.033   1.176 -3.0991  0.5076 -0.3630
 4151TIP3    H234089   2.660   5.166   1.149  0.2362  2.5614  0.7066
 4152TIP3   OH234090   6.630   5.789   6.633 -0.2105  0.3793  0.1177
 4152TIP3    H134091   6.707   5.831   6.670  0.9570 -0.4981 -1.2189
 4152TIP3    H234092   6.588   5.856   6.580  0.7370  0.3409 -0.7049
 4153TIP3   OH234093   4.865   4.168   7.887  0.5859 -0.1949 -0.5410
 4153TIP3    H134094   4.866   4.224   7.809 -0.1605 -0.9018 -1.0764
 4153TIP3    H234095   4.953   4.176   7.923  0.7794  0.5728 -1.1430
 4154TIP3   OH234096   1.172   6.490   8.125  0.2796 -0.0222 -0.1705
 4154TIP3    H134097   1.155   6.404   8.087 -1.2965  0.2762 -0.1809
 4154TIP3    H234098   1.086   6.531   8.133  0.9441  1.3351  0.3746
 4155TIP3   OH234099   4.126   6.833   8.804 -0.5805  0.2647  0.2075
 4155TIP3    H134100   4.161   6.844   8.892 -0.7775 -0.5936  0.4032
 4155TIP3    H234101   4.181   6.889   8.749  0.5129 -0.3631  0.6341
 4156TIP3   OH234102   1.658   2.247   1.195  0.0799 -0.1733 -0.4876
 4156TIP3    H134103   1.702   2.185   1.253 -0.4877 -1.8771 -1.8116
 4156TIP3    H234104   1.565   2.234   1.213 -0.0522  0.2139 -0.8828
 4157TIP3   OH234105   2.352   0.255   6.958 -0.1295  0.9710 -0.4218
 4157TIP3    H134106   2.270   0.298   6.984 -0.6049  2.1993 -3.4369
 4157TIP3    H234107   2.410   0.327   6.935  1.5014  0.0735  0.7633
 4158TIP3   OH234108   1.255   6.208   7.350 -0.3771 -0.4625 -0.0282
 4158TIP3    H134109   1.283   6.161   7.429 -0.7525  0.0165  0.4009
 4158TIP3    H234110   1.336   6.231   7.305  0.0568  2.0860  1.8705
 4159TIP3   OH234111   5.994   0.124   7.246  0.2638 -0.1686  0.2248
 4159TIP3    H134112   6.042   0.064   7.303 -1.2751 -0.8763  0.8414
 4159TIP3    H234113   5.915   0.145   7.295 -0.5091  0.2120 -1.1272
 4160TIP3   OH234114   3.322   0.643   8.616  0.3017 -0.4422  0.2766
 4160TIP3    H134115   3.389   0.606   8.558  0.0570 -2.3680  1.1192
 4160TIP3    H234116   3.242   0.639   8.564  0.6613  1.0560 -0.4280
 4161TIP3   OH234117   2.668   0.970   1.458 -0.3537  0.0184 -0.4994
 4161TIP3    H134118   2.702   0.904   1.518  1.8745  1.2789 -0.2686
 4161TIP3    H234119   2.681   0.931   1.371 -1.3980 -0.8201 -0.3163
 4162TIP3   OH234120   5.937   2.081   1.830  0.3300  0.2332  0.4043
 4162TIP3    H134121   5.900   2.030   1.758 -1.3759  0.0070  1.3802
 4162TIP3    H234122   5.921   2.028   1.908  3.1881 -0.0787  0.9015
 4163TIP3   OH234123   3.101   1.874   7.907  0.5747  0.1290  0.4835
 4163TIP3    H134124   3.127   1.819   7.834 -0.7734  0.5941 -0.3935
 4163TIP3    H234125   3.059   1.950   7.867 -1.5936 -0.3165  1.7288
 4164TIP3   OH234126   5.565   4.343   8.086 -0.0996 -0.2988  0.2216
 4164TIP3    H134127   5.612   4.408   8.137  0.1602 -0.7000  0.5032
 4164TIP3    H234128   5.612   4.261   8.103 -0.6373 -0.6251  0.1582
 4165TIP3   OH234129   3.450   1.226   0.206  0.3581  0.1408  0.3069
 4165TIP3    H134130   3.440   1.318   0.233  0.1817 -0.2978  1.7994
 4165TIP3    H234131   3.367   1.185   0.229 -0.5181  0.0845 -2.5879
 4166TIP3   OH234132   1.567   5.928   8.003 -0.3410  0.1962 -0.2203
 4166TIP3    H134133   1.609   5.912   8.088 -1.1005 -0.7226  0.0131
 4166TIP3    H234134   1.635   5.968   7.949  0.3550  0.1742  0.6152
 4167TIP3   OH234135   1.138   4.912   1.915  0.0890 -0.2199  0.2034
 4167TIP3    H134136   1.136   4.954   2.001  1.2414 -2.2535  1.2890
 4167TIP3    H234137   1.067   4.848   1.918 -0.3648  0.2124 -0.6878
 4168TIP3   OH234138   3.855   4.237   8.676  0.4295  0.2569 -0.1502
 4168TIP3    H134139   3.945   4.250   8.646  0.8968 -0.2963  0.9502
 4168TIP3    H234140   3.863   4.227   8.771 -0.9041  1.1314  0.0779
 4169TIP3   OH234141   4.081   2.069   7.838 -1.1398 -0.5241 -0.0369
 4169TIP3    H134142   4.034   2.005   7.892 -1.0394 -1.0411 -0.5546
 4169TIP3    H234143   4.107   2.020   7.760  0.3299 -0.2702  0.2618
 4170TIP3   OH234144   6.397   1.102   7.348  0.2125 -0.5210 -0.3376
 4170TIP3    H134145   6.414   1.189   7.384  0.5627  0.0746 -1.8682
 4170TIP3    H234146   6.361   1.052   7.421  3.6523 -0.2803  1.7118
 4171TIP3   OH234147   2.157   5.616   6.998 -0.1324  0.7661  0.1559
 4171TIP3    H134148   2.234   5.579   7.041  0.4303  0.9213 -0.7124
 4171TIP3    H234149   2.177   5.614   6.905 -1.8780 -0.8201 -0.2719
 4172TIP3   OH234150   5.956   2.395   7.398  0.3560  0.5991  0.6340
 4172TIP3    H134151   6.047   2.370   7.417  0.3110 -2.9524 -2.6702
 4172TIP3    H234152   5.957   2.419   7.305 -2.0778  0.4739  0.5235
 4173TIP3   OH234153   5.748   6.160   0.707  0.3002  0.7701  0.0703
 4173TIP3    H134154   5.829   6.195   0.743 -1.2376  3.4103  1.2674
 4173TIP3    H234155   5.713   6.231   0.654 -1.0686 -0.4532 -0.7503
 4174TIP3   OH234156   6.597   3.074   1.210 -0.2105 -0.0371  0.2498
 4174TIP3    H134157   6.585   3.002   1.147 -0.2391  0.5835 -0.4602
 4174TIP3    H234158   6.692   3.087   1.213 -0.0712 -1.1402  1.5711
 4175TIP3   OH234159   6.007   2.011   7.239 -0.2449 -0.2013 -0.1052
 4175TIP3    H134160   6.057   2.087   7.209  0.3774 -0.3904  0.4180
 4175TIP3    H234161   5.986   1.964   7.159 -1.5088  1.0284 -0.5355
 4176TIP3   OH234162   1.012   5.560   7.101 -0.1253  0.0387 -0.2755
 4176TIP3    H134163   1.090   5.577   7.153 -0.0807 -0.9329 -0.0068
 4176TIP3    H234164   1.035   5.589   7.012  1.1110 -1.6207 -0.5454
 4177TIP3   OH234165   0.253   1.397   0.397  0.0638  0.2537  0.5103
 4177TIP3    H134166   0.234   1.303   0.391 -0.1758  0.3935 -1.7256
 4177TIP3    H234167   0.348   1.402   0.397  0.0813  0.0033  1.0577
 4178TIP3   OH234168   1.734   6.821   0.379 -0.0489  0.0472 -0.2981
 4178TIP3    H134169   1.811   6.846   0.328  1.0587 -0.0081  1.2692
 4178TIP3    H234170   1.660   6.848   0.325  1.0673  0.7991 -1.5183
 4179TIP3   OH234171   2.604   1.936   1.723  0.0543  0.2304  0.2802
 4179TIP3    H134172   2.620   1.842   1.722  1.0038  0.3893  0.3482
 4179TIP3    H234173   2.614   1.962   1.814  0.4279  0.5042  0.1620
 4180TIP3   OH234174   3.103   0.119   0.908 -0.2805 -0.0837  0.7122
 4180TIP3    H134175   3.081   0.056   0.839 -0.1025  1.8456 -1.2312
 4180TIP3    H234176   3.187   0.088   0.942 -0.0298 -0.7425 -0.4365
 4181TIP3   OH234177   5.144   5.386   6.816 -0.6472  0.0404  0.0959
 4181TIP3    H134178   5.147   5.408   6.722  0.0345 -1.4994 -0.2731
 4181TIP3    H234179   5.234   5.361   6.837 -0.9072 -0.1115  1.0482
 4182TIP3   OH234180   2.833   4.947   8.665 -0.1119 -0.3214  0.5144
 4182TIP3    H134181   2.780   4.875   8.633  0.4871 -1.0440  1.1079
 4182TIP3    H234182   2.829   5.013   8.596 -1.9844 -0.2392  0.6747
 4183TIP3   OH234183   4.012   1.061   2.044  0.5538  0.6955  0.5089
 4183TIP3    H134184   4.103   1.051   2.014  0.1905 -0.2504 -0.3270
 4183TIP3    H234185   4.005   1.003   2.120  0.3255 -0.1869 -0.1724
 4184TIP3   OH234186   4.969   5.785   1.630  0.1076  0.1938 -0.0965
 4184TIP3    H134187   5.003   5.860   1.678  0.9814 -0.3491  0.1484
 4184TIP3    H234188   4.964   5.715   1.695 -1.5132  0.2475 -0.1170
 4185TIP3   OH234189   1.894   0.415   1.891 -0.1407  0.0571 -0.1736
 4185TIP3    H134190   1.808   0.457   1.897 -0.4186 -0.6291  0.8682
 4185TIP3    H234191   1.885   0.334   1.940  1.7364  1.0346  1.9869
 4186TIP3   OH234192   3.619   3.941   7.023 -0.5069 -0.1925  0.2486
 4186TIP3    H134193   3.671   3.874   6.980  0.1176 -0.4052  1.3040
 4186TIP3    H234194   3.631   4.019   6.969  0.4870 -0.3742  0.1911
 4187TIP3   OH234195   6.517   0.943   0.049  0.1221  0.4055 -0.5279
 4187TIP3    H134196   6.589   0.932  -0.013  1.9741  0.5408  1.4772
 4187TIP3    H234197   6.547   1.012   0.108 -0.5846 -1.1804  1.8221
 4188TIP3   OH234198   3.297   6.145   7.138 -0.0733 -0.4177  0.1105
 4188TIP3    H134199   3.288   6.160   7.044 -2.1528 -1.5672  0.0673
 4188TIP3    H234200   3.315   6.051   7.146  3.0236  0.1145  0.8040
 4189TIP3   OH234201   6.551   1.373   0.311  0.5298  0.1093 -0.3230
 4189TIP3    H134202   6.482   1.350   0.250  0.8827 -1.9620  0.0019
 4189TIP3    H234203   6.619   1.415   0.257 -0.1519  0.4301 -0.9413
 4190TIP3   OH234204   2.253   1.106   8.681 -0.4891  0.0051  0.3440
 4190TIP3    H134205   2.322   1.077   8.621 -1.9883 -1.4056 -0.7990
 4190TIP3    H234206   2.230   1.193   8.651  0.3946  0.2660  0.3910
 4191TIP3   OH234207   3.392   5.537   0.297 -0.6040  0.6527  0.0061
 4191TIP3    H134208   3.473   5.568   0.337  0.2895 -0.1888 -1.0570
 4191TIP3    H234209   3.323   5.590   0.336  0.2699  0.3370  2.1205
 4192TIP3   OH234210   2.645   6.264   7.802  0.2880 -0.1871  0.2460
 4192TIP3    H134211   2.630   6.345   7.752 -1.0957 -1.0821 -0.8485
 4192TIP3    H234212   2.725   6.282   7.852  1.1330  1.1392 -1.4785
 4193TIP3   OH234213   2.002   1.506   7.329  0.5163 -0.6834 -0.1480
 4193TIP3    H134214   2.021   1.465   7.245  1.6695  0.1864 -0.3322
 4193TIP3    H234215   1.929   1.566   7.311  1.7968  0.6933 -0.9211
 4194TIP3   OH234216   6.186   3.762   1.093  0.9324  0.3114 -0.2807
 4194TIP3    H134217   6.268   3.786   1.137 -1.1840  1.9260  3.2086
 4194TIP3    H234218   6.147   3.695   1.150 -0.0931 -0.7112 -2.0662
 4195TIP3   OH234219   4.142   5.617   1.300 -0.4263 -0.2593 -0.9052
 4195TIP3    H134220   4.171   5.676   1.370 -1.5304 -1.4499  0.6312
 4195TIP3    H234221   4.156   5.529   1.336 -0.3726 -0.9255 -2.4751
 4196TIP3   OH234222   6.838   5.443   1.154  0.3735 -0.3005 -0.0016
 4196TIP3    H134223   6.846   5.538   1.148  0.7579 -0.2538  1.0804
 4196TIP3    H234224   6.849   5.424   1.247 -1.0955 -1.2764  0.0083
 4197TIP3   OH234225   1.265   1.354   8.001  0.0733  0.4751  0.4460
 4197TIP3    H134226   1.273   1.393   8.087  0.5951 -1.1771  1.1895
 4197TIP3    H234227   1.274   1.259   8.016 -1.4113  0.0161 -1.2139
 4198TIP3   OH234228   4.860   6.155   0.798  0.1061 -0.1272  0.2658
 4198TIP3    H134229   4.934   6.198   0.841 -0.7759  2.7094 -0.8533
 4198TIP3    H234230   4.785   6.213   0.815 -1.0921 -1.0082 -1.6857
 4199TIP3   OH234231   1.214   0.146   8.303  0.2451  0.0495  0.1325
 4199TIP3    H134232   1.145   0.155   8.369 -0.6280  1.8809 -0.9417
 4199TIP3    H234233   1.268   0.074   8.335 -1.6977 -0.9371  1.4295
 4200TIP3   OH234234   0.668   2.033   7.266  0.1641 -0.4238  0.7118
 4200TIP3    H134235   0.651   2.125   7.246  0.5908 -0.1608  1.4944
 4200TIP3    H234236   0.587   2.001   7.304 -0.2637 -0.6087 -0.3331
 4201TIP3   OH234237   1.572   5.965   2.543  0.4348  0.1910 -0.0033
 4201TIP3    H134238   1.477   5.960   2.535  0.4443 -0.3150  0.1993
 4201TIP3    H234239   1.597   6.039   2.487 -0.1908  1.0746  0.8521
 4202TIP3   OH234240   1.336   2.524   8.531  0.0155  0.2738  0.1176
 4202TIP3    H134241   1.381   2.526   8.616 -0.3702 -1.1803  0.3806
 4202TIP3    H234242   1.247   2.496   8.551 -0.2182  0.3850 -0.7146
 4203TIP3   OH234243   0.513   2.206   0.342 -0.0253 -0.5660 -0.1472
 4203TIP3    H134244   0.608   2.207   0.328  0.2835 -3.0244  1.2459
 4203TIP3    H234245   0.503   2.205   0.437 -1.5804  1.5806 -0.2082
 4204TIP3   OH234246   1.399   5.133   1.438  0.2036  0.5977 -0.2036
 4204TIP3    H134247   1.411   5.118   1.344 -0.9795  1.0414 -0.4427
 4204TIP3    H234248   1.367   5.049   1.470 -0.0435  0.6449 -0.3234
 4205TIP3   OH234249   3.139   1.043   2.514  0.0920  1.2568  0.4984
 4205TIP3    H134250   3.118   1.131   2.544  0.5761  1.5393  0.0486
 4205TIP3    H234251   3.084   0.985   2.565  2.3134  1.5231  3.4628
 4206TIP3   OH234252   6.213   5.330   0.660 -0.5198  0.3970 -0.1130
 4206TIP3    H134253   6.249   5.361   0.743  2.2832 -0.4537 -0.8899
 4206TIP3    H234254   6.132   5.285   0.684  0.2240  0.1369  2.1820
 4207TIP3   OH234255   6.857   4.052   1.901  0.3929  0.3192  0.4053
 4207TIP3    H134256   6.827   4.137   1.934  0.3414  0.6421 -0.4570
 4207TIP3    H234257   6.799   4.033   1.828  2.1930  0.9479 -1.2942
 4208TIP3   OH234258   3.659   4.932   7.431 -0.1028 -0.3363 -0.3396
 4208TIP3    H134259   3.715   4.861   7.462 -3.3752 -2.7132  0.6684
 4208TIP3    H234260   3.634   4.905   7.342 -0.4096  0.2116 -0.4218
 4209TIP3   OH234261   0.333   2.569   8.767 -0.3149 -0.0727  0.3508
 4209TIP3    H134262   0.382   2.534   8.841 -1.9003 -0.5506  1.2186
 4209TIP3    H234263   0.272   2.632   8.806 -0.8901 -0.0248 -0.5983
 4210TIP3   OH234264   0.912   2.915   8.683  0.7561 -0.4441 -0.2158
 4210TIP3    H134265   0.827   2.881   8.656  0.8558  0.6900 -2.0571
 4210TIP3    H234266   0.892   2.989   8.741  0.4491  0.4593 -1.4492
 4211TIP3   OH234267   5.590   3.720   1.206  0.2294  0.3228  0.2340
 4211TIP3    H134268   5.575   3.662   1.281  2.5437 -1.3675 -0.4923
 4211TIP3    H234269   5.673   3.689   1.169  0.0535  2.2750 -1.9550
 4212TIP3   OH234270   2.784   2.488   6.840  0.1956  0.5697  0.0472
 4212TIP3    H134271   2.753   2.575   6.863  1.1249  0.8218  0.3936
 4212TIP3    H234272   2.768   2.480   6.746 -1.5574  0.4000  0.3376
 4213TIP3   OH234273   3.069   3.659   6.699  0.3549  0.0391 -0.0900
 4213TIP3    H134274   3.094   3.595   6.765 -0.2485  0.7387  0.8362
 4213TIP3    H234275   3.138   3.725   6.702 -0.5064  0.9234  1.0341
 4214TIP3   OH234276   3.303   0.788   8.185 -0.3275  0.4416  0.0584
 4214TIP3    H134277   3.348   0.870   8.205  1.0929 -0.1819 -0.4348
 4214TIP3    H234278   3.362   0.743   8.125 -0.2950 -1.6432  1.5633
 4215TIP3   OH234279   1.761   5.326   8.391 -0.6575  0.2587  0.0197
 4215TIP3    H134280   1.719   5.371   8.319 -0.8794  1.2013  0.7136
 4215TIP3    H234281   1.707   5.347   8.468  0.4423  0.5904  0.7307
 4216TIP3   OH234282   0.413   3.151   7.351  0.2028  0.6430  0.1394
 4216TIP3    H134283   0.492   3.102   7.326  0.1564  0.3876  0.4877
 4216TIP3    H234284   0.346   3.120   7.291  0.0360 -0.1318  0.7119
 4217TIP3   OH234285   2.553   5.815   6.365  0.1822  0.1585  0.0155
 4217TIP3    H134286   2.552   5.758   6.288  1.9085 -0.1712  0.2102
 4217TIP3    H234287   2.470   5.796   6.409 -0.9135  0.4731 -1.8089
 4218TIP3   OH234288   1.819   3.972   1.829 -0.2798 -0.2155 -0.2504
 4218TIP3    H134289   1.793   4.010   1.745 -0.2379 -0.6027 -0.4434
 4218TIP3    H234290   1.766   4.017   1.894  1.3071  1.7224 -0.2221
 4219TIP3   OH234291   4.950   4.561   0.314 -0.2858  0.9328  0.1462
 4219TIP3    H134292   4.881   4.534   0.254 -1.2269  0.3041  1.4636
 4219TIP3    H234293   4.939   4.655   0.324 -1.1524  0.8012  0.5471
 4220TIP3   OH234294   5.851   4.434   2.247  0.6258 -0.1819 -0.4254
 4220TIP3    H134295   5.808   4.462   2.329  0.5883 -2.6416  0.4684
 4220TIP3    H234296   5.943   4.457   2.259  0.2571  1.6629 -0.7650
 4221TIP3   OH234297   5.778   4.228   8.597 -0.1514 -0.5937 -0.0433
 4221TIP3    H134298   5.765   4.321   8.583 -1.7870 -0.6359  0.9139
 4221TIP3    H234299   5.707   4.202   8.657 -0.6965 -2.7443 -1.4827
 4222TIP3   OH234300   4.717   1.732   0.900  0.0579  0.1276 -0.8601
 4222TIP3    H134301   4.769   1.812   0.907  0.5235 -0.1468 -1.0902
 4222TIP3    H234302   4.677   1.722   0.986 -0.8470  1.1624 -1.1355
 4223TIP3   OH234303   4.002   4.915   8.164  0.3171 -0.2098  0.0776
 4223TIP3    H134304   4.065   4.861   8.212  1.6872 -0.2858 -1.6919
 4223TIP3    H234305   4.040   5.002   8.163 -0.3132  0.0700  0.2077
 4224TIP3   OH234306   1.437   6.580   6.656 -0.6212  0.1934 -0.3441
 4224TIP3    H134307   1.341   6.576   6.654 -0.6248  0.3357 -1.2917
 4224TIP3    H234308   1.464   6.539   6.573  0.0737  1.2653 -0.6735
 4225TIP3   OH234309   0.110   0.751   1.188 -0.2750 -0.1553  0.4196
 4225TIP3    H134310   0.137   0.661   1.167 -1.0051 -0.7675  1.9210
 4225TIP3    H234311   0.040   0.770   1.126  0.4175 -0.3321 -0.4205
 4226TIP3   OH234312   0.715   4.867   2.245  0.1185 -0.1146  0.0432
 4226TIP3    H134313   0.676   4.785   2.274 -1.5836  0.3306 -0.8659
 4226TIP3    H234314   0.763   4.845   2.165 -1.4178 -0.0222 -0.9283
 4227TIP3   OH234315   0.775   3.448   0.750 -0.4761 -0.3792 -0.0706
 4227TIP3    H134316   0.706   3.383   0.738 -2.1599  1.5958 -2.1272
 4227TIP3    H234317   0.781   3.492   0.665  1.3965  1.3593  0.8732
 4228TIP3   OH234318   0.892   3.860   1.936 -0.5243 -0.3353 -0.5605
 4228TIP3    H134319   0.857   3.786   1.986  1.0688 -0.7154  0.0285
 4228TIP3    H234320   0.963   3.895   1.989 -1.1811  1.6000 -0.8599
 4229TIP3   OH234321   6.464   0.008   7.683 -0.0556 -0.0325  0.2250
 4229TIP3    H134322   6.539   0.024   7.741  0.4826  0.5709 -0.6191
 4229TIP3    H234323   6.407  -0.049   7.734  1.5916 -1.6188  0.4056
 4230TIP3   OH234324   4.489   3.050   0.138  0.6368  0.2287 -0.0727
 4230TIP3    H134325   4.550   3.041   0.065  0.1099  0.4451 -0.5441
 4230TIP3    H234326   4.417   3.102   0.103 -0.4727 -1.1602  0.0752
 4231TIP3   OH234327   2.802   1.028   0.650  0.1741 -0.3502 -0.0693
 4231TIP3    H134328   2.814   0.960   0.584 -1.0363  0.3631 -1.0681
 4231TIP3    H234329   2.829   0.987   0.732  0.9354 -1.5219 -0.8801
 4232TIP3   OH234330   3.967   5.569   0.729  0.1708  0.3456 -0.2266
 4232TIP3    H134331   3.931   5.481   0.744  1.2850  0.1811  1.7666
 4232TIP3    H234332   3.936   5.621   0.803  1.2343  1.0750 -0.2778
 4233TIP3   OH234333   6.672   4.505   0.115  0.1469 -0.1271  0.0434
 4233TIP3    H134334   6.595   4.556   0.093  0.6854  0.8998  0.4635
 4233TIP3    H234335   6.648   4.458   0.195  0.0524  0.4139  0.3334
 4234TIP3   OH234336   4.206   1.587   7.813 -0.4600  0.1402  0.1486
 4234TIP3    H134337   4.252   1.644   7.751  0.3633 -0.6211  0.0339
 4234TIP3    H234338   4.117   1.579   7.778  0.1648 -0.8164 -1.3458
 4235TIP3   OH234339   5.113   3.206   7.815  0.0584 -0.4679  0.4201
 4235TIP3    H134340   5.152   3.123   7.787 -0.4831 -1.2120  1.8114
 4235TIP3    H234341   5.181   3.271   7.796  1.1030 -1.4341  0.7146
 4236TIP3   OH234342   2.490   2.555   6.535 -0.3520 -0.3293  0.4913
 4236TIP3    H134343   2.436   2.482   6.504  0.7457 -1.3956  0.9932
 4236TIP3    H234344   2.442   2.590   6.610 -1.1415 -0.1973 -0.0648
 4237TIP3   OH234345   4.380   6.776   7.320 -0.5215 -0.6888 -0.7201
 4237TIP3    H134346   4.291   6.791   7.289  0.5310 -1.2329 -4.5682
 4237TIP3    H234347   4.420   6.863   7.323 -0.8940 -0.5434 -0.0457
 4238TIP3   OH234348   2.264   3.289   0.172  0.1294 -0.4575  0.5657
 4238TIP3    H134349   2.290   3.218   0.231 -3.0345 -1.1565  1.3128
 4238TIP3    H234350   2.179   3.318   0.206 -1.0519  0.2585 -2.6526
 4239TIP3   OH234351   3.612   3.962   7.799  0.0691 -0.6986 -0.2825
 4239TIP3    H134352   3.703   3.970   7.771  0.9775  0.5865  2.6048
 4239TIP3    H234353   3.611   3.884   7.854 -0.5115 -0.6062 -0.1568
 4240TIP3   OH234354   3.283   2.459   1.459 -0.2031 -0.1289 -0.0917
 4240TIP3    H134355   3.249   2.376   1.427  0.5636 -0.1951 -0.7261
 4240TIP3    H234356   3.229   2.526   1.415 -1.7763 -0.2695  1.4682
 4241TIP3   OH234357   1.541   3.404   1.414  0.7581  0.1085 -0.0504
 4241TIP3    H134358   1.533   3.499   1.427 -2.2278  0.1249 -1.2610
 4241TIP3    H234359   1.475   3.366   1.471  1.9106 -1.2916  0.4074
 4242TIP3   OH234360   4.381   2.487   8.529 -0.5530  0.7477 -0.3223
 4242TIP3    H134361   4.347   2.397   8.530  1.5725 -0.1118  0.5171
 4242TIP3    H234362   4.369   2.516   8.439 -0.6271 -0.6458 -0.7886
 4243TIP3   OH234363   2.902   3.592   1.104  0.0500  0.5806 -0.1400
 4243TIP3    H134364   2.905   3.636   1.188  0.3255 -0.6119  0.5105
 4243TIP3    H234365   2.843   3.644   1.050 -1.2136  0.6285  1.2302
 4244TIP3   OH234366   0.204   4.095   8.814 -0.2619  0.5393  0.4971
 4244TIP3    H134367   0.114   4.088   8.846 -0.6985  1.5108 -0.4348
 4244TIP3    H234368   0.251   4.139   8.884 -0.9014  1.4575  0.3728
 4245TIP3   OH234369   4.027   3.660   8.749  0.7013 -0.1827 -0.0842
 4245TIP3    H134370   4.000   3.645   8.658 -0.0794 -1.0236  0.2769
 4245TIP3    H234371   3.998   3.749   8.768  0.9441  0.0294 -0.6764
 4246TIP3   OH234372   6.445   6.640   8.043  0.3601  0.5372 -0.6560
 4246TIP3    H134373   6.447   6.726   8.085  0.8461  0.2908 -0.1786
 4246TIP3    H234374   6.382   6.651   7.971 -2.2393  0.3326  1.4645
 4247TIP3   OH234375   3.097   0.559   0.879 -0.0600 -0.6032 -0.5327
 4247TIP3    H134376   3.098   0.513   0.963 -2.2957 -1.3859 -0.8643
 4247TIP3    H234377   3.167   0.517   0.828  0.4239 -1.0356  0.4502
 4248TIP3   OH234378   4.952   2.960   8.606  0.1512  1.2254 -0.2396
 4248TIP3    H134379   5.002   3.040   8.620 -0.4722  1.8198 -1.3132
 4248TIP3    H234380   4.963   2.939   8.513  0.0701  0.2192 -0.0404
 4249TIP3   OH234381   5.543   5.302   7.915 -0.3123 -0.3061 -0.3491
 4249TIP3    H134382   5.549   5.226   7.856 -2.0376 -0.2947 -0.6065
 4249TIP3    H234383   5.633   5.319   7.942  0.5647 -0.2932 -3.0077
 4250TIP3   OH234384   0.955   1.640   1.318 -0.2713  0.2353  0.0597
 4250TIP3    H134385   0.861   1.639   1.333 -0.4503 -0.7573 -0.9691
 4250TIP3    H234386   0.968   1.584   1.241  0.7881  2.9800 -1.9382
 4251TIP3   OH234387   4.232   0.482   1.440 -0.1133 -0.8118  0.4006
 4251TIP3    H134388   4.303   0.518   1.386 -0.6766  1.6882  1.1918
 4251TIP3    H234389   4.159   0.470   1.379  0.3258 -1.4090 -0.0217
 4252TIP3   OH234390   3.735   1.915   0.642  0.2934  0.2898  0.6853
 4252TIP3    H134391   3.652   1.928   0.688  0.3532 -1.2028  1.2886
 4252TIP3    H234392   3.794   1.882   0.710  0.6484 -1.0764 -0.2515
 4253TIP3   OH234393   2.099   4.942   1.213  0.2726  0.0700 -0.0455
 4253TIP3    H134394   2.120   4.869   1.271  0.9789  0.2143 -0.1092
 4253TIP3    H234395   2.153   4.927   1.135 -0.6889 -0.1411 -0.6868
 4254TIP3   OH234396   0.079   2.021   6.473 -0.3595 -0.7432  0.1016
 4254TIP3    H134397   0.163   1.986   6.501 -0.1265 -0.6690 -0.4811
 4254TIP3    H234398   0.015   1.953   6.496 -0.0053 -1.2389 -0.3644
 4255TIP3   OH234399   0.603   3.319   1.414 -0.2985 -0.0783 -0.2761
 4255TIP3    H134400   0.612   3.227   1.390  1.3452  0.3587 -1.4892
 4255TIP3    H234401   0.600   3.319   1.510  0.8614 -1.3191 -0.2174
 4256TIP3   OH234402   5.270   4.561   0.447 -0.3447 -0.1505 -0.5746
 4256TIP3    H134403   5.197   4.512   0.482  0.3792 -0.1408  1.0508
 4256TIP3    H234404   5.230   4.627   0.389 -1.6544  0.1739  0.6503
 4257TIP3   OH234405   3.467   4.462   1.597  0.5383 -0.0440 -0.1886
 4257TIP3    H134406   3.465   4.556   1.616  2.4731 -0.0053  0.0663
 4257TIP3    H234407   3.436   4.455   1.507  0.6957  0.8754 -0.3286
 4258TIP3   OH234408   6.717   5.296   7.315  0.3364 -0.5804  0.0111
 4258TIP3    H134409   6.641   5.329   7.266  1.3083  0.5672 -0.7822
 4258TIP3    H234410   6.689   5.299   7.407 -0.8892 -1.0528 -0.3300
 4259TIP3   OH234411   0.173   6.415   2.210 -0.5942 -0.2062 -0.1778
 4259TIP3    H134412   0.153   6.461   2.291  3.3576  1.5441  0.0236
 4259TIP3    H234413   0.146   6.475   2.140  1.8162  1.2577  0.0491
 4260TIP3   OH234414   4.564   5.650   7.040  0.5538  0.4602 -0.0834
 4260TIP3    H134415   4.638   5.607   7.081 -0.2644 -1.6613 -0.7222
 4260TIP3    H234416   4.581   5.644   6.946 -1.3110 -1.8923 -0.3521
 4261TIP3   OH234417   2.279   1.670   8.576  0.0353 -0.2162 -0.1182
 4261TIP3    H134418   2.211   1.714   8.524 -0.7468 -2.4780 -1.1476
 4261TIP3    H234419   2.349   1.653   8.513  1.5119  1.8055  0.8674
 4262TIP3   OH234420   5.714   4.430   7.282  0.0516 -0.2361 -0.6937
 4262TIP3    H134421   5.746   4.367   7.218  0.0209  0.5835 -1.5457
 4262TIP3    H234422   5.771   4.420   7.358  1.6588  0.4375 -1.7636
 4263TIP3   OH234423   3.621   6.811   6.911  0.2252  0.2919  0.1627
 4263TIP3    H134424   3.607   6.815   6.816 -0.7770  1.9429  0.3331
 4263TIP3    H234425   3.576   6.731   6.938  0.7064 -0.3155 -0.7688
 4264TIP3   OH234426   4.341   3.560   1.827 -0.1169  0.2855 -0.4273
 4264TIP3    H134427   4.297   3.594   1.750  1.3784 -1.9115 -2.3896
 4264TIP3    H234428   4.429   3.536   1.797  0.6232 -0.4351  2.0236
 4265TIP3   OH234429   1.434   3.255   6.870 -0.0274 -0.1344 -0.1622
 4265TIP3    H134430   1.436   3.254   6.774 -0.9419  1.3952 -0.2269
 4265TIP3    H234431   1.385   3.176   6.894  0.6668 -0.8112 -0.9165
 4266TIP3   OH234432   1.091   0.632   1.131 -0.3976 -0.0910  0.7044
 4266TIP3    H134433   1.105   0.727   1.131  1.2642 -0.2599  2.4183
 4266TIP3    H234434   1.043   0.615   1.212  1.9953 -0.9400  2.0561
 4267TIP3   OH234435   0.955   2.613   0.796  0.1336 -0.0752 -0.1058
 4267TIP3    H134436   1.019   2.580   0.733  0.2709 -0.8711  0.4322
 4267TIP3    H234437   1.006   2.628   0.876 -0.3743 -0.9054  0.3880
 4268TIP3   OH234438   6.375   5.367   7.010 -0.2522 -0.4123 -0.0900
 4268TIP3    H134439   6.398   5.291   6.957  0.6614  0.2956 -0.7597
 4268TIP3    H234440   6.455   5.420   7.010 -0.7850  0.4034  0.5896
 4269TIP3   OH234441   0.832   4.194   7.609 -0.1332  0.7657 -0.1696
 4269TIP3    H134442   0.900   4.232   7.665 -0.4972 -0.0284  0.8489
 4269TIP3    H234443   0.798   4.268   7.559  0.5979  1.3958  0.2445
 4270TIP3   OH234444   3.997   3.366   7.139  0.0794  0.4413 -0.3209
 4270TIP3    H134445   3.982   3.271   7.140 -0.2613  0.4608 -1.5668
 4270TIP3    H234446   4.080   3.378   7.185  1.2931 -0.7117 -2.0543
 4271TIP3   OH234447   3.655   3.792   8.541  0.3349  0.1892 -0.3646
 4271TIP3    H134448   3.698   3.838   8.614  1.6662 -1.7741  0.1776
 4271TIP3    H234449   3.563   3.785   8.568  0.4182  1.1645  0.2280
 4272TIP3   OH234450   0.428   3.647   0.222  0.1559  0.6726 -0.1082
 4272TIP3    H134451   0.414   3.653   0.316  0.5921  2.1674 -0.1171
 4272TIP3    H234452   0.461   3.558   0.208 -0.3694  0.2715  1.0737
 4273TIP3   OH234453   0.948   5.873   1.988 -0.0288 -0.6049 -0.4074
 4273TIP3    H134454   0.923   5.835   2.072 -0.2204  0.3479 -0.0116
 4273TIP3    H234455   1.035   5.910   2.003 -1.1434  2.0118  0.2514
 4274TIP3   OH234456   3.022   6.835   0.442  0.4893 -0.2396 -0.0309
 4274TIP3    H134457   3.028   6.817   0.536  2.0479 -0.6319 -0.1752
 4274TIP3    H234458   2.942   6.790   0.414 -0.0752  0.0051  1.1147
 4275TIP3   OH234459   6.527   4.785   8.204 -0.1963 -0.1838  0.1173
 4275TIP3    H134460   6.506   4.711   8.147  0.6698  0.0319 -0.4987
 4275TIP3    H234461   6.441   4.817   8.233 -0.5669 -3.0147  2.5375
 4276TIP3   OH234462   4.300   4.287   7.191 -0.0872  0.3390  0.0706
 4276TIP3    H134463   4.288   4.254   7.102 -1.9606 -0.1458  0.4593
 4276TIP3    H234464   4.321   4.210   7.243 -2.4541 -0.0059  0.6208
 4277TIP3   OH234465   2.780   6.581   7.438 -0.3924  0.6726  0.6523
 4277TIP3    H134466   2.761   6.489   7.418 -2.3824  1.0853  0.4344
 4277TIP3    H234467   2.797   6.621   7.353  0.1590  0.5684  0.7143
 4278TIP3   OH234468   4.350   4.361   6.767 -0.1023 -0.8278 -0.1877
 4278TIP3    H134469   4.387   4.450   6.770 -3.0212  0.5036  2.0099
 4278TIP3    H234470   4.353   4.336   6.675  0.6753  1.6279 -0.9042
 4279TIP3   OH234471   3.040   5.528   0.297  0.1895  0.3445  0.0289
 4279TIP3    H134472   3.056   5.622   0.290  0.0713  0.5393  1.9099
 4279TIP3    H234473   3.090   5.501   0.374  0.5068 -1.2253 -0.6848
 4280TIP3   OH234474   1.590   0.516   8.379  0.0757  0.1188  0.2068
 4280TIP3    H134475   1.507   0.564   8.377  0.2881  0.7838  3.3630
 4280TIP3    H234476   1.568   0.429   8.347 -1.3518  0.8835 -1.0262
 4281TIP3   OH234477   2.843   2.354   0.662 -0.6531 -0.4605  0.5966
 4281TIP3    H134478   2.903   2.401   0.605  0.2448 -0.5000  1.4859
 4281TIP3    H234479   2.756   2.389   0.640 -0.4271 -0.9590 -1.2406
 4282TIP3   OH234480   3.406   5.509   7.771 -0.4587 -0.4817  0.1645
 4282TIP3    H134481   3.438   5.599   7.763 -2.2534  0.2678  0.8811
 4282TIP3    H234482   3.482   5.454   7.752  0.5482  1.1779 -0.7922
 4283TIP3   OH234483   6.721   1.468   0.111  0.4410 -0.5620 -0.4174
 4283TIP3    H134484   6.656   1.440   0.046  1.2698 -0.3853 -1.3302
 4283TIP3    H234485   6.747   1.556   0.084  0.9070 -0.5439  0.0713
 4284TIP3   OH234486   3.441   1.757   0.645 -0.2537  0.1280 -0.1889
 4284TIP3    H134487   3.359   1.739   0.598 -1.4041  1.3466  1.2720
 4284TIP3    H234488   3.497   1.682   0.624 -1.6442 -0.6321 -1.3951
 4285TIP3   OH234489   6.165   3.398   8.676  0.5253 -0.7462 -0.4179
 4285TIP3    H134490   6.145   3.351   8.595 -1.1041 -1.8762  0.5761
 4285TIP3    H234491   6.224   3.340   8.724 -0.3300 -1.1458  0.1773
 4286TIP3   OH234492   2.895   6.764   6.880  0.9907  0.3460  0.5911
 4286TIP3    H134493   2.932   6.676   6.890 -2.4178 -1.2196  1.0492
 4286TIP3    H234494   2.931   6.797   6.798  0.1307 -2.8170 -1.2293
 4287TIP3   OH234495   2.487   4.738   1.944  0.6862 -0.3647  0.6182
 4287TIP3    H134496   2.545   4.745   2.020  1.9849 -1.1389 -0.2616
 4287TIP3    H234497   2.415   4.798   1.964  0.8841 -0.6854  2.5321
 4288TIP3   OH234498   6.834   3.931   7.613  0.5218  0.4627 -0.5620
 4288TIP3    H134499   6.893   3.864   7.647  1.7079  0.7607 -1.9496
 4288TIP3    H234500   6.799   3.974   7.691  1.0938 -0.5942  0.3087
 4289TIP3   OH234501   6.001   6.805   8.473  0.0878 -0.0323  0.2807
 4289TIP3    H134502   6.011   6.747   8.548  0.1078  0.1046  0.3824
 4289TIP3    H234503   6.072   6.780   8.413  1.0255  0.8948  0.9717
 4290TIP3   OH234504   3.702   3.055   1.029 -0.6430 -0.5286 -0.3298
 4290TIP3    H134505   3.659   3.045   0.944 -2.8941  1.6053  0.4191
 4290TIP3    H234506   3.636   3.026   1.092  0.1553 -0.0072  0.7735
 4291TIP3   OH234507   2.374   6.036   7.092 -0.1847  0.4730  0.8025
 4291TIP3    H134508   2.436   6.109   7.093  1.8727 -1.1966  0.9212
 4291TIP3    H234509   2.290   6.077   7.112  0.5016  3.1162 -1.0514
 4292TIP3   OH234510   3.941   1.063   1.215 -0.3048  0.9251  0.0556
 4292TIP3    H134511   3.903   1.027   1.134 -0.7101  0.0689  0.6107
 4292TIP3    H234512   3.883   1.031   1.285  0.5771  0.8625  0.7727
 4293TIP3   OH234513   3.560   5.496   1.186  0.6638  0.7011  0.1149
 4293TIP3    H134514   3.593   5.584   1.169  1.5272  0.2024 -0.9859
 4293TIP3    H234515   3.619   5.461   1.253  1.0496  0.5720 -0.2831
 4294TIP3   OH234516   4.634   0.319   8.719  0.4453 -0.1895 -0.0639
 4294TIP3    H134517   4.721   0.349   8.692  0.5417  1.4127  1.7782
 4294TIP3    H234518   4.651   0.239   8.769  0.8188 -0.2024 -0.2087
 4295TIP3   OH234519   2.009   3.851   8.315 -0.1431  0.4701 -0.9379
 4295TIP3    H134520   2.101   3.871   8.300  0.2954 -0.3791  0.3788
 4295TIP3    H234521   2.003   3.756   8.307 -0.8280  0.4827 -0.6934
 4296TIP3   OH234522   4.472   2.919   8.391 -0.2563  0.2230  0.5816
 4296TIP3    H134523   4.405   2.969   8.436 -0.0141  2.5605 -1.4663
 4296TIP3    H234524   4.475   2.955   8.303  1.5622 -1.8997 -0.3384
 4297TIP3   OH234525   0.635   2.720   6.855  0.3661 -0.2347  0.1519
 4297TIP3    H134526   0.661   2.810   6.835  0.9527 -0.4600 -0.1309
 4297TIP3    H234527   0.638   2.675   6.771 -1.6941 -0.1131 -0.0380
 4298TIP3   OH234528   2.807   4.375   1.691 -0.0202 -0.0413  0.4497
 4298TIP3    H134529   2.873   4.316   1.655  0.9300  0.7332  0.8853
 4298TIP3    H234530   2.736   4.317   1.719  0.5561 -0.9062  0.1558
 4299TIP3   OH234531   2.178   5.238   0.122  0.6970  0.0123  0.1984
 4299TIP3    H134532   2.211   5.316   0.078 -3.2846  2.8082  1.6118
 4299TIP3    H234533   2.093   5.220   0.080 -0.4266 -0.8987  2.6412
 4300TIP3   OH234534   0.576   4.359   1.886  0.1629  0.2990  0.5081
 4300TIP3    H134535   0.586   4.447   1.920  0.6457  0.8302 -0.9341
 4300TIP3    H234536   0.482   4.350   1.870  0.2700  1.1409 -0.7672
 4301TIP3   OH234537   3.148   2.644   6.700  0.3740 -0.4364 -0.5439
 4301TIP3    H134538   3.067   2.675   6.659 -0.1065 -0.2127  0.5243
 4301TIP3    H234539   3.198   2.605   6.629 -1.0794 -1.4054 -1.0764
 4302TIP3   OH234540   5.856   5.241   1.671 -0.0889 -0.6522  0.4107
 4302TIP3    H134541   5.830   5.218   1.760  1.2621  1.4458  1.4417
 4302TIP3    H234542   5.921   5.175   1.647 -3.3281 -3.7354 -0.7746
 4303TIP3   OH234543   5.289   5.051   8.641 -0.5332 -0.0377  0.5528
 4303TIP3    H134544   5.255   5.038   8.729  1.5784 -1.9825  1.1639
 4303TIP3    H234545   5.296   4.963   8.605  3.6525  0.1555  0.4852
 4304TIP3   OH234546   4.020   5.646   8.191  0.9513  0.0419 -0.9279
 4304TIP3    H134547   4.069   5.723   8.162 -0.0406  0.2261 -2.2466
 4304TIP3    H234548   3.993   5.603   8.110 -0.9771 -0.0734 -0.2812
 4305TIP3   OH234549   3.281   4.504   0.843  0.8076 -0.6466  0.6559
 4305TIP3    H134550   3.243   4.588   0.870  0.5944 -0.5537  0.0777
 4305TIP3    H234551   3.214   4.464   0.788  2.3591  0.5882 -2.3872
 4306TIP3   OH234552   4.566   6.481   1.282  0.1059  0.0424 -0.6168
 4306TIP3    H134553   4.660   6.500   1.290  0.4293 -0.7938 -2.0069
 4306TIP3    H234554   4.525   6.567   1.276  0.6491  0.4521  1.0368
 4307TIP3   OH234555   1.207   0.037   1.149  0.0668  0.4212 -0.4259
 4307TIP3    H134556   1.270  -0.001   1.088  1.2063  1.0922  0.2780
 4307TIP3    H234557   1.244   0.123   1.170 -0.0931  0.0667  1.4733
 4308TIP3   OH234558   5.657   2.752   7.327  0.2075 -0.1211  0.8432
 4308TIP3    H134559   5.708   2.828   7.354 -0.0473  0.4824 -0.3216
 4308TIP3    H234560   5.566   2.777   7.341  0.0156  0.5193 -1.2200
 4309TIP3   OH234561   5.093   6.796   0.982 -0.0645  0.0039  0.2524
 4309TIP3    H134562   5.003   6.824   0.967 -0.7363 -0.6263  2.6728
 4309TIP3    H234563   5.084   6.714   1.031  1.8371 -0.4640 -0.1161
 4310TIP3   OH234564   5.540   6.392   8.083 -0.0461 -0.1178  0.1996
 4310TIP3    H134565   5.601   6.356   8.019  1.1161 -0.6205  1.5223
 4310TIP3    H234566   5.464   6.419   8.032  0.5453 -1.1336 -1.2815
 4311TIP3   OH234567   1.614   1.655   7.850  0.4864 -0.4059 -0.5399
 4311TIP3    H134568   1.590   1.684   7.762  0.4750  0.1468 -0.3563
 4311TIP3    H234569   1.542   1.686   7.905  0.5773 -0.6083 -0.3079
 4312TIP3   OH234570   3.826   0.767   1.272  0.6247 -0.5393 -0.0583
 4312TIP3    H134571   3.809   0.676   1.299 -0.5118 -0.1658  0.5515
 4312TIP3    H234572   3.766   0.819   1.325  0.6136  0.4985 -1.0592
 4313TIP3   OH234573   3.394   3.752   7.330  0.2109 -0.2489  0.1540
 4313TIP3    H134574   3.392   3.824   7.266 -0.9269 -0.7122 -0.3738
 4313TIP3    H234575   3.409   3.794   7.414  2.1826  0.3392 -0.4411
 4314TIP3   OH234576   6.352   3.254   0.012  0.6067  0.5412  0.5440
 4314TIP3    H134577   6.358   3.159   0.022  2.4243  0.5564 -0.1051
 4314TIP3    H234578   6.373   3.289   0.099 -0.4321  0.3676  0.8794
 4315TIP3   OH234579   1.350   2.096   8.106 -0.0405  0.4213 -0.0995
 4315TIP3    H134580   1.379   2.164   8.167  1.1540  1.3515 -1.6164
 4315TIP3    H234581   1.257   2.083   8.127  0.7241 -0.6556  3.0908
 4316TIP3   OH234582   0.133   4.902   0.636 -0.5408  0.6032 -0.2020
 4316TIP3    H134583   0.069   4.887   0.566  0.5077  0.1957 -1.1053
 4316TIP3    H234584   0.158   4.814   0.666 -0.9169  0.7724  0.6367
 4317TIP3   OH234585   6.796   3.506   8.499  0.0870 -0.0029 -0.2433
 4317TIP3    H134586   6.879   3.462   8.518  0.4311  0.6141 -0.2712
 4317TIP3    H234587   6.729   3.444   8.527  0.5613 -0.0017  0.9921
 4318TIP3   OH234588   1.764   4.220   6.374  0.1278  0.7141 -0.0604
 4318TIP3    H134589   1.726   4.300   6.412  0.5117  2.0471 -2.3000
 4318TIP3    H234590   1.840   4.251   6.324  2.6286 -1.5327  1.9960
 4319TIP3   OH234591   1.085   1.695   8.612  0.8461  0.4831  0.6204
 4319TIP3    H134592   1.178   1.675   8.613  1.0341  1.0357  3.7110
 4319TIP3    H234593   1.046   1.632   8.672 -0.6331  0.8732  0.1106
 4320TIP3   OH234594   5.842   1.025   7.025  0.3197  0.0478 -0.4146
 4320TIP3    H134595   5.847   1.064   6.938 -0.4842  0.4889 -0.2785
 4320TIP3    H234596   5.748   1.009   7.038  0.3982  0.2587  0.4801
 4321TIP3   OH234597   6.515   0.329   7.236  0.7639  0.3393 -0.1992
 4321TIP3    H134598   6.470   0.412   7.256 -1.1071 -0.4920 -0.7279
 4321TIP3    H234599   6.497   0.273   7.311  1.7426  0.2901  0.0078
 4322TIP3   OH234600   2.959   6.516   1.947  0.5247  0.1405 -0.0251
 4322TIP3    H134601   3.003   6.566   2.016 -0.9936 -1.1945  2.0561
 4322TIP3    H234602   2.989   6.426   1.960  0.4445 -0.0958 -1.3554
 4323TIP3   OH234603   1.163   5.582   7.913 -0.2627 -0.2111  0.4147
 4323TIP3    H134604   1.190   5.673   7.930 -0.4124 -0.0906  0.0177
 4323TIP3    H234605   1.130   5.551   7.997 -3.2015  1.1393 -0.1192
 4324TIP3   OH234606   5.396   2.365   1.303  0.2916 -0.4520 -0.0881
 4324TIP3    H134607   5.447   2.303   1.251  0.2403  0.0225 -0.7125
 4324TIP3    H234608   5.305   2.339   1.288  0.0117  1.6345 -2.9131
 4325TIP3   OH234609   6.002   2.384   0.843 -0.4069  0.0435 -0.1857
 4325TIP3    H134610   5.926   2.430   0.809 -2.1535 -2.1992  0.4471
 4325TIP3    H234611   5.978   2.291   0.840  1.4255 -0.6155  2.1038
 4326TIP3   OH234612   0.478   3.638   8.145  0.0022 -0.1922  0.2093
 4326TIP3    H134613   0.410   3.701   8.169 -0.9684 -0.4552 -1.6155
 4326TIP3    H234614   0.430   3.556   8.130  0.4806 -0.0822 -2.3264
 4327TIP3   OH234615   3.171   6.110   1.204  0.3095 -0.0357  0.3236
 4327TIP3    H134616   3.107   6.103   1.275  0.8586  0.8504  0.9218
 4327TIP3    H234617   3.119   6.104   1.124 -0.4418 -0.0200  0.8035
 4328TIP3   OH234618   4.677   5.744   2.647 -0.3231  0.1967  0.8545
 4328TIP3    H134619   4.588   5.711   2.662 -0.2898  0.8120  2.6276
 4328TIP3    H234620   4.665   5.836   2.624 -0.2527 -0.3114 -1.4848
 4329TIP3   OH234621   2.418   0.098   2.650 -0.0980 -0.3183 -0.3658
 4329TIP3    H134622   2.497   0.119   2.700  0.0176 -0.1794 -0.6032
 4329TIP3    H234623   2.354   0.074   2.717  0.0900 -0.2552 -0.1574
 4330TIP3   OH234624   0.933   2.357   1.748 -0.3553  0.0040  0.4650
 4330TIP3    H134625   1.014   2.355   1.799  0.1705  0.4680 -0.3325
 4330TIP3    H234626   0.945   2.291   1.680 -0.9391 -0.4161  0.7646
 4331TIP3   OH234627   1.493   1.289   1.615  0.1297 -0.2644  0.1635
 4331TIP3    H134628   1.550   1.357   1.649 -0.0945  0.1303 -0.2421
 4331TIP3    H234629   1.409   1.333   1.599 -0.2869 -0.8232  0.7097
 4332TIP3   OH234630   2.249   2.984   8.199  0.1907  0.1956 -0.5460
 4332TIP3    H134631   2.226   3.002   8.108 -0.3254  2.5657 -0.0130
 4332TIP3    H234632   2.330   3.033   8.214 -0.2641  0.6611  0.5211
 4333TIP3   OH234633   0.992   6.830   1.306  0.6667 -0.0106  0.6849
 4333TIP3    H134634   0.959   6.914   1.336 -0.7660 -0.3338  0.0580
 4333TIP3    H234635   1.063   6.852   1.246  0.6968  0.7211  0.9764
 4334TIP3   OH234636   4.909   4.536   7.460 -0.0740  0.1067  0.2998
 4334TIP3    H134637   4.950   4.618   7.488 -0.4384  1.0057 -1.6277
 4334TIP3    H234638   4.974   4.496   7.402  0.0467 -0.9305  1.1286
 4335TIP3   OH234639   6.469   6.464   2.053 -0.1926  0.1681  0.5347
 4335TIP3    H134640   6.379   6.435   2.070 -0.3426 -0.0256 -0.5266
 4335TIP3    H234641   6.460   6.527   1.981  0.5816 -0.2194  0.0959
 4336TIP3   OH234642   1.028   6.287   8.344 -0.0371  0.4770 -0.2012
 4336TIP3    H134643   1.097   6.223   8.357 -1.3854 -1.2416 -1.1615
 4336TIP3    H234644   1.025   6.336   8.427  2.2167  0.5614 -0.1049
 4337TIP3   OH234645   5.620   0.454   1.339  0.2604  0.0277  0.3632
 4337TIP3    H134646   5.694   0.510   1.316 -0.2003  0.8135  0.7391
 4337TIP3    H234647   5.550   0.482   1.280 -0.3814  0.8110  1.4430
 4338TIP3   OH234648   1.365   5.082   6.821 -0.2122  0.1906  0.1531
 4338TIP3    H134649   1.295   5.035   6.776  0.5842 -0.3914 -0.5050
 4338TIP3    H234650   1.343   5.074   6.914 -0.9127 -0.1484 -0.0352
 4339TIP3   OH234651   0.816   5.359   7.111  0.0913  0.6093 -0.0754
 4339TIP3    H134652   0.858   5.439   7.078  1.7039  0.0898  0.6471
 4339TIP3    H234653   0.729   5.360   7.071  0.0133  2.7933  0.0058
 4340TIP3   OH234654   2.084   0.459   8.307  0.0394 -0.4841 -0.1865
 4340TIP3    H134655   1.998   0.448   8.267 -0.7898  0.2636  1.3032
 4340TIP3    H234656   2.134   0.509   8.243 -0.2244 -1.8823 -1.5657
 4341TIP3   OH234657   6.103   0.844   6.553 -0.0552 -0.0524  0.4321
 4341TIP3    H134658   6.099   0.884   6.466 -2.4300  1.3530  1.0861
 4341TIP3    H234659   6.184   0.878   6.591 -1.8561  4.3921  0.9200
 4342TIP3   OH234660   1.291   1.457   7.308  0.3557 -0.7135 -0.7052
 4342TIP3    H134661   1.327   1.485   7.224  0.4743  1.7584  0.1008
 4342TIP3    H234662   1.216   1.513   7.323 -0.5071 -2.0454  0.2488
 4343TIP3   OH234663   2.562   6.071   8.791 -0.5765 -0.0230  0.9044
 4343TIP3    H134664   2.506   6.130   8.842  0.0346  0.2579  1.2493
 4343TIP3    H234665   2.605   6.128   8.727 -1.9313 -0.4806 -0.4789
 4344TIP3   OH234666   1.336   1.847   7.350 -0.3025  0.3659 -0.3201
 4344TIP3    H134667   1.367   1.830   7.439  0.7659  2.1410 -0.3139
 4344TIP3    H234668   1.282   1.770   7.329  2.2321 -1.8002  0.5351
 4345TIP3   OH234669   0.705   5.639   0.401  0.0089  0.1417 -0.7254
 4345TIP3    H134670   0.617   5.614   0.430  0.3584  0.0054  0.2737
 4345TIP3    H234671   0.693   5.671   0.311 -1.5926  3.1991  0.4180
 4346TIP3   OH234672   3.876   3.906   8.754  0.2469 -0.2408 -0.2113
 4346TIP3    H134673   3.909   3.893   8.843  1.7046 -3.1799 -1.0386
 4346TIP3    H234674   3.807   3.971   8.763  0.7414 -0.0113  2.9705
 4347TIP3   OH234675   5.921   4.294   1.473  0.0662  0.1882  0.2637
 4347TIP3    H134676   5.949   4.279   1.564  2.0324  0.6847 -0.1937
 4347TIP3    H234677   5.911   4.389   1.466  0.0268  0.1623 -0.0551
 4348TIP3   OH234678   1.345   3.620   0.881  0.2535 -0.2039  0.6854
 4348TIP3    H134679   1.323   3.527   0.874 -1.1849  0.0793  1.0114
 4348TIP3    H234680   1.278   3.656   0.939 -0.3244  1.3733 -0.8570
 4349TIP3   OH234681   1.533   1.842   1.957  0.4628 -0.1327 -0.4791
 4349TIP3    H134682   1.512   1.879   2.042  0.5485 -0.6380 -0.2369
 4349TIP3    H234683   1.627   1.857   1.946  0.8068 -1.5929  0.2785
 4350TIP3   OH234684   0.629   2.937   0.550 -0.4844  0.0102  0.1917
 4350TIP3    H134685   0.667   2.854   0.580  1.1248 -0.2208 -2.1880
 4350TIP3    H234686   0.545   2.912   0.511 -0.1856 -0.4522 -0.1680
 4351TIP3   OH234687   3.676   5.684   2.433 -1.0374 -0.6107  0.5608
 4351TIP3    H134688   3.608   5.744   2.463 -0.4133  1.2272 -1.4740
 4351TIP3    H234689   3.758   5.734   2.441 -0.6115 -0.7400 -2.0797
 4352TIP3   OH234690   1.794   5.739   8.484  0.3811 -0.3881 -0.7439
 4352TIP3    H134691   1.726   5.688   8.526  0.7868 -0.6522 -0.4050
 4352TIP3    H234692   1.854   5.763   8.555 -0.7681  2.1597 -0.5278
 4353TIP3   OH234693   1.375   5.096   1.151  0.1495 -0.2843 -0.4021
 4353TIP3    H134694   1.417   5.181   1.142  0.5567 -0.5375 -0.9704
 4353TIP3    H234695   1.380   5.057   1.063  1.2005 -1.4621  0.1382
 4354TIP3   OH234696   3.004   4.301   7.898  0.3498 -0.6670  0.3229
 4354TIP3    H134697   3.083   4.339   7.936 -1.0792  0.8406  1.9630
 4354TIP3    H234698   2.961   4.257   7.971 -1.5356  0.6709  0.0833
 4355TIP3   OH234699   5.342   4.507   6.520  0.0992 -0.0977  0.1787
 4355TIP3    H134700   5.430   4.543   6.505 -0.4781  1.8517  1.2288
 4355TIP3    H234701   5.289   4.542   6.449  0.0678 -1.0954 -0.3222
 4356TIP3   OH234702   5.732   0.440   0.123  0.3373 -0.4800  0.7819
 4356TIP3    H134703   5.775   0.437   0.208 -0.2756  1.5288  1.2133
 4356TIP3    H234704   5.649   0.483   0.139  0.5168  0.6162 -0.9502
 4357TIP3   OH234705   6.263   2.191   0.762 -0.2918  0.3236 -0.1968
 4357TIP3    H134706   6.222   2.278   0.770 -1.6997 -0.3312  0.0348
 4357TIP3    H234707   6.191   2.130   0.777  0.7180 -0.8923 -0.1942
 4358TIP3   OH234708   1.147   5.037   2.155 -0.3797 -0.0698 -0.5147
 4358TIP3    H134709   1.211   5.078   2.213 -0.5906 -0.7330  0.2186
 4358TIP3    H234710   1.138   4.948   2.190  0.3258 -0.8633 -2.2586
 4359TIP3   OH234711   5.085   3.466   0.980 -0.1309  0.2220  0.7841
 4359TIP3    H134712   5.122   3.386   0.943 -0.9914 -0.3950  1.2224
 4359TIP3    H234713   5.066   3.521   0.904  0.8727  0.2078  0.5045
 4360TIP3   OH234714   2.511   3.242   1.870 -0.0341  0.4042 -0.4145
 4360TIP3    H134715   2.458   3.172   1.909  1.2548 -0.6244 -0.4469
 4360TIP3    H234716   2.448   3.312   1.852 -1.1015 -0.1092  1.0970
 4361TIP3   OH234717   1.927   5.919   0.890  0.2643 -0.3014 -0.0216
 4361TIP3    H134718   1.944   5.952   0.802 -2.7346 -0.7458 -0.8756
 4361TIP3    H234719   1.856   5.974   0.923  1.6373  0.1781  2.3906
 4362TIP3   OH234720   1.024   0.900   2.329  0.4613  0.0269  0.3493
 4362TIP3    H134721   0.955   0.858   2.380  1.5997 -1.1424  0.9839
 4362TIP3    H234722   0.978   0.963   2.273 -1.0869 -0.6212  0.8464
 4363TIP3   OH234723   2.073   3.024   1.337  0.0956 -0.0256 -0.5543
 4363TIP3    H134724   2.039   2.945   1.379  0.4301 -0.3208 -0.8292
 4363TIP3    H234725   2.025   3.029   1.254 -0.5355  0.5333 -0.1688
 4364TIP3   OH234726   5.724   5.612   7.729 -0.0811  0.1428  0.3255
 4364TIP3    H134727   5.765   5.537   7.772  0.5050  0.4525  0.3349
 4364TIP3    H234728   5.641   5.625   7.776 -0.7328 -1.1866 -0.4296
 4365TIP3   OH234729   4.094   2.554   1.271  0.6560 -0.3469 -0.2038
 4365TIP3    H134730   4.032   2.500   1.320  2.6404 -1.9738  0.6754
 4365TIP3    H234731   4.053   2.567   1.186 -1.6906  0.2394  0.9430
 4366TIP3   OH234732   4.941   1.012   0.515  0.8217  0.7369  0.3787
 4366TIP3    H134733   4.940   1.016   0.611  2.5841  0.3578  0.4520
 4366TIP3    H234734   4.939   1.103   0.487  0.4662  0.8535  0.7685
 4367TIP3   OH234735   3.878   1.538   8.456  0.1150  0.1397  0.5105
 4367TIP3    H134736   3.866   1.443   8.465 -0.1569  0.0948 -0.2728
 4367TIP3    H234737   3.828   1.575   8.528 -0.9977 -0.2502 -0.0474
 4368TIP3   OH234738   2.097   4.248   7.154 -0.7748  0.1799  0.2281
 4368TIP3    H134739   2.088   4.229   7.061  0.5390 -1.6050  0.3977
 4368TIP3    H234740   2.021   4.207   7.195 -0.6429 -0.2390  0.0607
 4369TIP3   OH234741   3.302   3.381   2.034 -1.1012 -0.8978  0.7180
 4369TIP3    H134742   3.208   3.370   2.022 -1.0978  0.3400 -0.7618
 4369TIP3    H234743   3.315   3.475   2.042  0.2138 -0.7850 -1.6431
 4370TIP3   OH234744   6.714   0.373   1.174 -0.4454 -0.0709 -0.0841
 4370TIP3    H134745   6.719   0.460   1.134 -0.8017  0.5001  1.0793
 4370TIP3    H234746   6.773   0.378   1.249 -0.3594 -0.8912 -0.0910
 4371TIP3   OH234747   3.270   6.710   1.176  0.1165  0.0311 -0.6384
 4371TIP3    H134748   3.281   6.754   1.092 -1.6048  1.1652 -0.3217
 4371TIP3    H234749   3.276   6.780   1.241  1.7048 -0.8647  0.2554
 4372TIP3   OH234750   0.782   0.668   0.918 -0.3573  0.2136 -0.1020
 4372TIP3    H134751   0.843   0.730   0.877 -0.7352  1.0019  0.5068
 4372TIP3    H234752   0.748   0.715   0.994 -2.3835  0.1180 -0.8860
 4373TIP3   OH234753   2.984   2.888   7.442 -0.3477 -0.2158 -0.6715
 4373TIP3    H134754   3.077   2.897   7.461 -0.3615  0.1521 -0.7731
 4373TIP3    H234755   2.956   2.976   7.415 -0.4062 -0.6116 -2.0020
 4374TIP3   OH234756   6.221   6.430   2.193 -0.1689  0.0956 -0.1932
 4374TIP3    H134757   6.150   6.366   2.203 -0.8085  0.8466  0.2370
 4374TIP3    H234758   6.251   6.446   2.283  0.4905 -0.1486 -0.3658
 4375TIP3   OH234759   4.049   5.150   6.307 -0.5345 -0.3990  0.1430
 4375TIP3    H134760   4.096   5.233   6.318 -2.5251  0.7947  0.1093
 4375TIP3    H234761   3.958   5.176   6.293 -0.8902 -2.5326 -2.0578
 4376TIP3   OH234762   5.464   5.061   0.712  0.2556 -0.0132 -0.0874
 4376TIP3    H134763   5.460   5.154   0.694 -0.4484  0.2820  1.4068
 4376TIP3    H234764   5.444   5.054   0.806  2.1554 -1.5055  0.2651
 4377TIP3   OH234765   0.768   4.749   1.174 -0.1153  0.0459 -0.0200
 4377TIP3    H134766   0.705   4.759   1.103  1.2390  1.2632 -1.0976
 4377TIP3    H234767   0.759   4.658   1.202 -1.0362 -0.3060 -1.3875
 4378TIP3   OH234768   1.855   3.559   0.610  0.0503 -0.0344 -0.2204
 4378TIP3    H134769   1.769   3.541   0.648  0.6688 -0.7417  0.8836
 4378TIP3    H234770   1.885   3.475   0.575  0.8219 -0.0738  0.5115
 4379TIP3   OH234771   6.500   2.937   2.018  0.4527 -0.0021  0.3234
 4379TIP3    H134772   6.549   3.016   1.994 -0.4988  0.6118  0.3686
 4379TIP3    H234773   6.557   2.892   2.080  1.5488  0.0120 -0.6232
 4380TIP3   OH234774   0.664   2.973   7.542  0.6398  0.4029  0.5393
 4380TIP3    H134775   0.659   2.969   7.447  0.8633  0.1205  0.5375
 4380TIP3    H234776   0.601   2.907   7.572  0.3368  0.7147  0.5922
 4381TIP3   OH234777   3.623   4.870   7.159  0.2730  0.0913  0.0276
 4381TIP3    H134778   3.583   4.787   7.133  1.8794 -0.9020  0.6222
 4381TIP3    H234779   3.681   4.892   7.086  1.4367 -0.4182  0.7746
 4382TIP3   OH234780   5.984   6.112   1.604  0.3979 -0.0424 -0.2483
 4382TIP3    H134781   6.041   6.035   1.609  0.9546  0.2786 -1.4081
 4382TIP3    H234782   5.999   6.147   1.516 -2.1519 -0.3887 -0.8997
 4383TIP3   OH234783   6.801   1.411   1.668  0.1463 -0.1160 -0.0362
 4383TIP3    H134784   6.848   1.471   1.726 -0.4903 -0.6445  1.0378
 4383TIP3    H234785   6.709   1.421   1.691  0.1024 -2.2375  0.8789
 4384TIP3   OH234786   1.971   5.459   7.271  0.3846  0.1813  0.3787
 4384TIP3    H134787   1.907   5.483   7.338 -0.9313  1.8955 -1.4094
 4384TIP3    H234788   1.940   5.375   7.237 -0.9263  0.9500 -0.4083
 4385TIP3   OH234789   1.432   2.710   8.750  0.2663  0.5490  0.0543
 4385TIP3    H134790   1.406   2.754   8.669  1.1184  1.0110  0.0115
 4385TIP3    H234791   1.464   2.781   8.806  1.5269  0.0205  0.0365
 4386TIP3   OH234792   5.098   4.557   6.808 -0.1429 -0.1187 -0.1913
 4386TIP3    H134793   5.103   4.635   6.863  1.4467 -0.9789  0.9401
 4386TIP3    H234794   5.033   4.502   6.851  0.6827 -0.5457  0.5250
 4387TIP3   OH234795   1.267   5.022   2.525 -0.0001  0.3710  0.6517
 4387TIP3    H134796   1.322   5.035   2.448 -0.2635  0.3967  0.4689
 4387TIP3    H234797   1.267   4.928   2.540  0.9919  0.4635  1.3074
 4388TIP3   OH234798   3.022   4.381   0.774 -0.7441  0.1874  0.0616
 4388TIP3    H134799   2.933   4.405   0.803 -0.4119  1.3130  0.2219
 4388TIP3    H234800   3.013   4.365   0.680 -0.8563  1.8426 -0.2442
 4389TIP3   OH234801   1.569   1.174   0.852  0.1320 -0.1435  0.4189
 4389TIP3    H134802   1.590   1.237   0.921  0.6669 -0.0371  0.1664
 4389TIP3    H234803   1.570   1.226   0.771 -1.4356 -0.0685  0.4128
 4390TIP3   OH234804   5.001   1.594   7.806  0.5175  0.2592  0.1123
 4390TIP3    H134805   5.040   1.557   7.727 -1.0296  0.9697 -1.0350
 4390TIP3    H234806   4.925   1.643   7.775 -0.3206  0.3097  2.0734
 4391TIP3   OH234807   1.626   5.232   6.649 -0.5097 -0.4400  0.1706
 4391TIP3    H134808   1.638   5.157   6.590  1.1556 -0.8062  0.9084
 4391TIP3    H234809   1.710   5.239   6.696  0.4136  3.4397 -1.6497
 4392TIP3   OH234810   0.695   5.539   0.999 -0.3252  0.1985 -0.4526
 4392TIP3    H134811   0.780   5.496   0.992  0.2626  1.5040 -2.2618
 4392TIP3    H234812   0.711   5.616   1.053 -0.9026 -0.7001  1.0533
 4393TIP3   OH234813   5.189   4.029   0.750 -0.2535 -0.6201  0.8397
 4393TIP3    H134814   5.274   4.010   0.711 -0.9813 -1.0626 -0.6047
 4393TIP3    H234815   5.200   4.115   0.791  0.2365  0.4824 -1.4345
 4394TIP3   OH234816   0.809   0.066   7.872  0.5645  0.3209 -0.5813
 4394TIP3    H134817   0.840   0.112   7.794  0.2698 -0.0276 -0.9035
 4394TIP3    H234818   0.808   0.133   7.941  1.6146  0.4402 -0.6710
 4395TIP3   OH234819   5.785   2.468   0.653  0.4212 -0.2367 -0.0223
 4395TIP3    H134820   5.853   2.513   0.602  0.4795 -1.5932 -1.2073
 4395TIP3    H234821   5.733   2.421   0.587  0.3014 -1.8005  1.1373
 4396TIP3   OH234822   2.729   2.455   6.253 -0.0458  0.0690  0.1701
 4396TIP3    H134823   2.635   2.439   6.250 -0.2493  1.2307 -2.4703
 4396TIP3    H234824   2.768   2.372   6.228 -0.4508 -0.0374 -0.1207
 4397TIP3   OH234825   1.884   2.082   0.884 -0.3176  0.1634  0.5986
 4397TIP3    H134826   1.888   2.031   0.804 -0.9114  0.0939  0.6101
 4397TIP3    H234827   1.801   2.130   0.878  0.4573  1.5405  0.3356
 4398TIP3   OH234828   1.771   2.137   1.426  0.1180  0.3256  0.1904
 4398TIP3    H134829   1.756   2.128   1.520 -0.8887  2.2936  0.2742
 4398TIP3    H234830   1.864   2.116   1.414  0.4721  0.8689  1.7634
 4399TIP3   OH234831   5.927   6.456   8.491 -0.1910 -0.3748 -0.1308
 4399TIP3    H134832   5.931   6.368   8.528 -2.1861 -0.7101 -0.5882
 4399TIP3    H234833   5.844   6.458   8.444  0.3939  1.3598 -1.1846
 4400TIP3   OH234834   3.443   2.923   6.873 -0.1728 -0.3722  0.1472
 4400TIP3    H134835   3.496   2.844   6.879 -0.0721 -0.3028  0.1770
 4400TIP3    H234836   3.470   2.976   6.949  0.0590 -0.1284 -0.1018
 4401TIP3   OH234837   1.923   4.765   0.424  0.3362 -0.3470 -0.2035
 4401TIP3    H134838   1.988   4.823   0.384 -0.0036  0.7024  0.6802
 4401TIP3    H234839   1.853   4.825   0.453 -0.2750 -1.2704  0.2737
 4402TIP3   OH234840   2.056   6.170   1.985 -0.5920  0.3257  0.4954
 4402TIP3    H134841   2.117   6.179   2.058 -0.2846  0.7967  0.1830
 4402TIP3    H234842   1.972   6.195   2.021  0.0665  3.9101 -0.1282
 4403TIP3   OH234843   1.780   3.221   7.672  0.5075 -0.2287 -0.8337
 4403TIP3    H134844   1.717   3.284   7.706  1.0994 -0.5410  0.8923
 4403TIP3    H234845   1.852   3.220   7.735 -0.5801 -4.4412  0.7108
 4404TIP3   OH234846   0.460   5.815   0.779 -0.2521  0.0107 -0.3552
 4404TIP3    H134847   0.459   5.791   0.687 -0.3443  2.4880 -1.0790
 4404TIP3    H234848   0.368   5.834   0.800 -0.0094  1.2253 -0.3118
 4405TIP3   OH234849   1.373   3.431   7.117 -0.0784 -0.3483  0.1247
 4405TIP3    H134850   1.425   3.409   7.039 -1.8447  0.9443 -1.4960
 4405TIP3    H234851   1.304   3.364   7.119 -0.8865  0.4609 -0.2876
 4406TIP3   OH234852   0.500   1.140   2.836 -0.9305 -0.2995 -0.1995
 4406TIP3    H134853   0.529   1.108   2.750 -1.3254 -0.5315 -0.2487
 4406TIP3    H234854   0.499   1.063   2.891 -0.5179 -0.1220  0.0659
 4407TIP3   OH234855   3.946   6.402   1.369  0.1750  0.7432 -0.3403
 4407TIP3    H134856   3.929   6.440   1.283  0.3666  0.8882 -0.3138
 4407TIP3    H234857   3.981   6.315   1.351  1.2270  1.1761 -0.4294
 4408TIP3   OH234858   1.667   4.248   8.636 -0.1051 -0.3429 -0.6307
 4408TIP3    H134859   1.582   4.251   8.679 -0.9785 -0.7756 -2.2389
 4408TIP3    H234860   1.692   4.155   8.638  0.3277 -0.2233 -0.1937
 4409TIP3   OH234861   0.350   6.224   7.191  0.6021 -0.2517  0.4882
 4409TIP3    H134862   0.381   6.198   7.103 -0.3371 -1.9766  0.6224
 4409TIP3    H234863   0.320   6.314   7.180 -0.2893 -0.7076 -1.1913
 4410TIP3   OH234864   2.584   4.487   7.049 -0.7056  0.3720  0.6779
 4410TIP3    H134865   2.656   4.534   7.089  0.3174 -0.0346 -0.6098
 4410TIP3    H234866   2.592   4.506   6.955 -1.6073 -0.5725  0.3896
 4411TIP3   OH234867   1.764   0.078   8.399 -0.0400  0.2544 -0.0025
 4411TIP3    H134868   1.678   0.036   8.391  0.5305 -0.7710 -0.9910
 4411TIP3    H234869   1.771   0.131   8.320  0.5364 -0.2467 -0.2920
 4412TIP3   OH234870   6.827   4.229   0.379 -0.1468  0.3859 -0.2603
 4412TIP3    H134871   6.838   4.175   0.457  0.6448 -0.2046 -0.7671
 4412TIP3    H234872   6.736   4.260   0.384 -1.1652 -2.2723 -0.7409
 4413TIP3   OH234873   4.321   4.150   6.961 -0.7410 -0.1473 -0.3619
 4413TIP3    H134874   4.350   4.068   6.922  1.0038  0.2207  0.0700
 4413TIP3    H234875   4.276   4.196   6.890 -0.6353 -0.9472 -0.9535
 4414TIP3   OH234876   3.588   5.900   1.840  0.2772 -0.3758  0.0774
 4414TIP3    H134877   3.623   5.989   1.844 -0.5292  0.0052 -0.9657
 4414TIP3    H234878   3.510   5.902   1.896  0.7447 -0.6692  0.7495
 4415TIP3   OH234879   1.545   1.401   8.747 -0.0075 -0.2692  0.1292
 4415TIP3    H134880   1.599   1.456   8.690 -0.1481 -0.2011  0.0614
 4415TIP3    H234881   1.474   1.371   8.690 -0.6250  0.4826  0.4793
 4416TIP3   OH234882   0.395   3.600   6.941 -0.1312  0.6168  0.3502
 4416TIP3    H134883   0.367   3.668   6.881  0.7110 -0.1453 -0.9570
 4416TIP3    H234884   0.352   3.622   7.024 -1.4746  1.5909 -0.5578
 4417TIP3   OH234885   5.298   2.604   0.334  0.0751  0.5802 -0.1297
 4417TIP3    H134886   5.337   2.636   0.415 -0.8264 -0.5720  0.8116
 4417TIP3    H234887   5.236   2.672   0.308  0.6952  1.1586 -0.1184
 4418TIP3   OH234888   1.309   1.345   8.608 -0.4310  0.2317 -0.2984
 4418TIP3    H134889   1.287   1.274   8.669  0.0621  1.5002  1.4408
 4418TIP3    H234890   1.231   1.355   8.554 -0.9092 -0.9178  0.1485
 4419TIP3   OH234891   6.012   2.219   1.199 -0.3041  0.1363 -0.1463
 4419TIP3    H134892   6.062   2.283   1.250 -0.7079 -0.1296  0.6119
 4419TIP3    H234893   5.935   2.268   1.168 -0.3933  0.1343  0.0669
 4420TIP3   OH234894   0.827   1.071   8.763  0.2617 -0.3704  0.8979
 4420TIP3    H134895   0.777   1.148   8.734 -0.8607  0.0295  3.6160
 4420TIP3    H234896   0.918   1.094   8.745 -0.1630  0.9274  0.2173
 4421TIP3   OH234897   3.650   2.346   8.410  0.3420 -0.7015  0.4019
 4421TIP3    H134898   3.683   2.281   8.347 -1.6017 -1.0096 -0.3572
 4421TIP3    H234899   3.726   2.400   8.429  2.0425 -3.0966  0.9939
 4422TIP3   OH234900   6.704   0.907   7.792 -0.6764  0.1895  0.1346
 4422TIP3    H134901   6.662   0.825   7.766 -0.4080  0.3489 -0.8222
 4422TIP3    H234902   6.797   0.893   7.776 -0.6988  0.9060 -0.6466
 4423TIP3   OH234903   2.768   0.852   8.799 -0.6202  0.3786  0.4297
 4423TIP3    H134904   2.708   0.914   8.840 -1.8943 -0.8038  0.4151
 4423TIP3    H234905   2.724   0.767   8.805 -0.1760 -0.1062 -2.0093
 4424TIP3   OH234906   6.040   5.360   7.196 -0.4893  0.6013 -0.6992
 4424TIP3    H134907   6.067   5.368   7.105  0.8247  1.7830 -0.2443
 4424TIP3    H234908   6.074   5.275   7.224  2.6874  1.8399 -0.2712
 4425TIP3   OH234909   6.061   0.533   0.021 -0.7259 -0.1274 -0.2406
 4425TIP3    H134910   6.119   0.577   0.082  0.5240 -0.7324 -0.9615
 4425TIP3    H234911   5.973   0.562   0.046 -0.0631  1.4511  0.3349
 4426TIP3   OH234912   5.438   2.861   2.042 -0.2211 -0.5676  0.6030
 4426TIP3    H134913   5.490   2.853   2.122  0.7134  0.5742  0.1488
 4426TIP3    H234914   5.430   2.956   2.028  0.2108 -0.7251 -0.9816
 4427TIP3   OH234915   3.112   0.394   0.522 -0.2866  0.0274  0.1229
 4427TIP3    H134916   3.072   0.458   0.462  1.0869  0.1300 -0.7342
 4427TIP3    H234917   3.196   0.433   0.545 -0.0265 -0.8524  0.6920
 4428TIP3   OH234918   2.194   5.443   7.580 -0.7719 -0.1730  0.0453
 4428TIP3    H134919   2.272   5.426   7.631 -0.1501 -0.3785 -0.9515
 4428TIP3    H234920   2.226   5.467   7.493 -1.8061 -0.1342 -0.3455
 4429TIP3   OH234921   1.816   5.590   6.559  0.0016  0.4320 -0.1978
 4429TIP3    H134922   1.748   5.612   6.623 -0.5728 -0.6357 -0.4232
 4429TIP3    H234923   1.785   5.629   6.477 -0.7512 -0.7281 -0.4798
 4430TIP3   OH234924   6.431   0.451   7.963  0.2776  0.0368 -0.0974
 4430TIP3    H134925   6.434   0.425   7.871 -0.6840  0.2865 -0.2142
 4430TIP3    H234926   6.404   0.371   8.009  0.3094  0.0318 -0.0878
 4431TIP3   OH234927   5.107   0.452   7.467 -0.2144  0.0566  0.3051
 4431TIP3    H134928   5.124   0.515   7.397 -1.5004  0.8610  0.6688
 4431TIP3    H234929   5.162   0.481   7.540 -0.4380  0.4698  0.3094
 4432TIP3   OH234930   2.440   5.422   0.527 -0.7302  0.7984  0.0638
 4432TIP3    H134931   2.454   5.375   0.445 -1.5013  2.2368 -0.9315
 4432TIP3    H234932   2.386   5.362   0.579  0.2915 -0.3961 -0.2000
 4433TIP3   OH234933   2.404   4.143   1.497  0.0918 -0.3120 -0.0277
 4433TIP3    H134934   2.479   4.168   1.550 -0.2746  1.4158 -0.2616
 4433TIP3    H234935   2.328   4.171   1.548 -0.3135 -0.1022 -0.7327
 4434TIP3   OH234936   0.211   1.911   6.762  0.2073  0.6675  0.5377
 4434TIP3    H134937   0.254   1.919   6.677 -1.7478  3.6906 -0.3102
 4434TIP3    H234938   0.140   1.848   6.747  0.3668  0.5644  0.1945
 4435TIP3   OH234939   2.966   4.553   1.102 -0.8181  0.3739 -0.0410
 4435TIP3    H134940   2.965   4.458   1.113  0.8644  0.4278  1.0097
 4435TIP3    H234941   2.875   4.577   1.085 -1.0971 -1.5511 -1.6526
 4436TIP3   OH234942   2.523   0.509   0.615  0.4887 -0.9797  0.4355
 4436TIP3    H134943   2.547   0.590   0.658  1.8430  0.8765 -3.3610
 4436TIP3    H234944   2.600   0.453   0.624  0.6442 -0.7235  0.7059
 4437TIP3   OH234945   2.210   4.715   7.426 -0.2924  0.1089 -0.1334
 4437TIP3    H134946   2.214   4.679   7.514  2.4173 -1.1514 -0.6618
 4437TIP3    H234947   2.201   4.638   7.369  0.0518  0.7206 -1.0333
 4438TIP3   OH234948   4.338   3.602   7.190  0.3732  0.3433  0.1817
 4438TIP3    H134949   4.395   3.543   7.140 -1.4441 -0.2981 -1.2597
 4438TIP3    H234950   4.325   3.677   7.132  0.0797  0.6671  0.6596
 4439TIP3   OH234951   4.939   6.128   0.525 -0.2644 -0.3812 -0.3579
 4439TIP3    H134952   4.851   6.165   0.522 -0.0077  0.3035  0.2621
 4439TIP3    H234953   4.962   6.129   0.618 -0.1162 -1.8073 -0.3665
 4440TIP3   OH234954   4.970   5.214   6.628  0.0037  0.2068 -0.0846
 4440TIP3    H134955   5.037   5.279   6.606 -0.5888  0.9017  0.1501
 4440TIP3    H234956   4.898   5.264   6.665  0.2194 -0.7452  1.7320
 4441TIP3   OH234957   4.155   4.795   6.839  0.0395 -0.2502 -0.4061
 4441TIP3    H134958   4.233   4.839   6.804  0.9560 -0.6161  1.1216
 4441TIP3    H234959   4.084   4.859   6.826  0.9868  0.9312  0.0717
 4442TIP3   OH234960   0.081   4.452   1.534  0.1883 -0.0095 -0.0861
 4442TIP3    H134961   0.084   4.356   1.527  0.5582  0.0668 -1.0365
 4442TIP3    H234962   0.148   4.473   1.599  1.0334 -0.3063 -0.8490
 4443TIP3   OH234963   0.136   4.577   8.239 -0.2219  0.6635 -0.0493
 4443TIP3    H134964   0.044   4.557   8.220  0.3333 -0.9191 -1.2923
 4443TIP3    H234965   0.135   4.610   8.328 -1.9745  0.4060  0.0682
 4444TIP3   OH234966   5.148   3.669   1.529 -0.6125 -0.4135  0.1202
 4444TIP3    H134967   5.173   3.607   1.460 -0.5607 -0.9792  0.6448
 4444TIP3    H234968   5.135   3.752   1.482  2.5655  0.0283 -0.1874
 4445TIP3   OH234969   1.696   0.072   7.459  0.3624 -0.5990 -0.0985
 4445TIP3    H134970   1.754   0.010   7.414  0.2790  0.1567 -1.2955
 4445TIP3    H234971   1.729   0.158   7.434 -1.8550 -0.1120 -1.7053
 4446TIP3   OH234972   3.983   6.401   8.417  0.0338  0.0618 -0.5407
 4446TIP3    H134973   3.990   6.344   8.340 -1.1197  0.1802 -0.7577
 4446TIP3    H234974   3.984   6.490   8.381 -0.6869  0.1134 -0.4455
 4447TIP3   OH234975   1.785   6.835   0.655  0.4385 -0.2304 -0.2172
 4447TIP3    H134976   1.816   6.925   0.669 -0.8234  0.1506  0.2254
 4447TIP3    H234977   1.759   6.833   0.563  0.2056 -0.0617 -0.1552
 4448TIP3   OH234978   2.215   0.718   0.895  0.1476 -0.4220  0.3501
 4448TIP3    H134979   2.298   0.733   0.941  0.0058  0.8484  0.2375
 4448TIP3    H234980   2.206   0.794   0.838 -1.6292  0.0212  1.1673
 4449TIP3   OH234981   1.508   4.127   0.760 -0.8670  0.3882 -0.0369
 4449TIP3    H134982   1.593   4.166   0.780 -0.9502  0.2019  0.7027
 4449TIP3    H234983   1.458   4.134   0.841 -1.3948  0.0715 -0.3273
 4450TIP3   OH234984   0.196   4.627   2.468 -0.4203  0.0780  0.0929
 4450TIP3    H134985   0.161   4.562   2.529 -0.9305 -0.4091 -0.7052
 4450TIP3    H234986   0.175   4.593   2.381  0.1958  0.8195 -0.3600
 4451TIP3   OH234987   3.670   6.469   7.146  0.2334 -0.0883 -0.0608
 4451TIP3    H134988   3.658   6.437   7.235 -0.7935 -2.2139 -0.8883
 4451TIP3    H234989   3.677   6.390   7.092  2.9146  1.0896 -1.6694
 4452TIP3   OH234990   2.479   1.123   7.721 -0.1274 -0.0545 -0.1396
 4452TIP3    H134991   2.496   1.139   7.814 -0.1009  0.2160 -0.1898
 4452TIP3    H234992   2.492   1.029   7.710 -4.0992 -0.9330  0.9985
 4453TIP3   OH234993   2.167   3.039   1.710  0.4232  0.1497 -0.0574
 4453TIP3    H134994   2.213   3.082   1.638 -1.2647 -0.3552 -1.4952
 4453TIP3    H234995   2.237   3.004   1.766  1.8113 -0.8267 -2.2846
 4454TIP3   OH234996   3.341   1.417   7.916 -0.0591 -1.1812  0.3854
 4454TIP3    H134997   3.286   1.351   7.873  1.4014 -2.5541  0.5695
 4454TIP3    H234998   3.311   1.418   8.007 -1.3739 -0.1671 -0.0260
 4455TIP3   OH234999   1.145   2.037   8.374 -0.4140 -0.2498 -0.5007
 4455TIP3    H135000   1.206   2.044   8.448  0.1213  2.2496 -1.1151
 4455TIP3    H235001   1.062   2.009   8.414  0.5054 -1.5001  0.6420
 4456TIP3   OH235002   3.873   1.237   1.626  0.1169  0.4575 -0.2088
 4456TIP3    H135003   3.802   1.223   1.689  1.0537  2.1086  1.3027
 4456TIP3    H235004   3.834   1.293   1.558 -0.5784 -0.3875 -0.5298
 4457TIP3   OH235005   6.244   4.284   0.144 -0.0598  0.4258 -0.3943
 4457TIP3    H135006   6.155   4.263   0.173 -0.0250 -0.2608 -0.7655
 4457TIP3    H235007   6.301   4.250   0.212 -0.1144  2.1298  0.5637
 4458TIP3   OH235008   6.610   5.255   0.483 -0.0267 -0.2557 -0.4317
 4458TIP3    H135009   6.588   5.315   0.412 -0.4736  1.4554  1.0923
 4458TIP3    H235010   6.679   5.300   0.532 -0.8476 -0.6392  1.1450
 4459TIP3   OH235011   5.390   4.056   1.405 -0.1205 -0.0432 -0.1813
 4459TIP3    H135012   5.414   4.095   1.490  0.4419  1.4281 -0.9770
 4459TIP3    H235013   5.450   4.097   1.342 -0.2735 -1.3924 -1.2522
 4460TIP3   OH235014   6.354   6.855   2.153 -1.1020  0.4504  0.2573
 4460TIP3    H135015   6.290   6.786   2.169 -0.7808 -0.0728 -0.6702
 4460TIP3    H235016   6.303   6.936   2.159 -1.8860  0.0407 -0.5474
 4461TIP3   OH235017   2.946   0.725   7.477  0.4958 -0.5742 -0.1344
 4461TIP3    H135018   2.914   0.648   7.430  1.2992 -1.0419  0.0627
 4461TIP3    H235019   2.874   0.788   7.472  0.6020 -0.5493 -2.1117
 4462TIP3   OH235020   4.338   5.967   7.354  0.2121 -0.5849 -0.4556
 4462TIP3    H135021   4.319   5.919   7.274 -1.6980  0.2308 -0.5498
 4462TIP3    H235022   4.254   5.972   7.399  1.0283 -0.1059  1.0991
 4463TIP3   OH235023   4.917   5.207   0.309  0.5352  0.0438 -0.2611
 4463TIP3    H135024   4.914   5.302   0.312  0.1509  0.0256 -0.0704
 4463TIP3    H235025   4.973   5.183   0.383  2.6884  0.2207 -1.7456
 4464TIP3   OH235026   4.142   1.855   0.591 -0.3053  0.2840 -0.4346
 4464TIP3    H135027   4.228   1.841   0.630  0.0362  1.5006 -0.6975
 4464TIP3    H235028   4.159   1.900   0.508 -1.2075  1.6744  0.0735
 4465TIP3   OH235029   0.100   4.045   8.028 -0.1723 -0.6802  0.2421
 4465TIP3    H135030   0.130   4.012   8.112 -2.7535 -1.4208  0.9724
 4465TIP3    H235031   0.129   3.980   7.964  1.4796 -0.3037  0.5850
 4466TIP3   OH235032   1.611   1.186   7.715 -0.5666 -0.3932  0.2910
 4466TIP3    H135033   1.658   1.256   7.670 -0.0895 -0.4918  0.6237
 4466TIP3    H235034   1.658   1.106   7.692 -1.6667 -0.7348 -0.8344
 4467TIP3   OH235035   0.630   5.593   0.751  0.1813 -0.1074  0.4310
 4467TIP3    H135036   0.606   5.681   0.780  0.9848  0.4223 -0.4596
 4467TIP3    H235037   0.637   5.542   0.832 -3.0179 -0.1176  0.8447
 4468TIP3   OH235038   4.638   3.689   8.084  0.2493 -0.5440  0.0408
 4468TIP3    H135039   4.644   3.746   8.008 -0.7717  1.3096  1.2607
 4468TIP3    H235040   4.728   3.658   8.099  0.5676 -0.4092 -1.4779
 4469TIP3   OH235041   1.857   2.510   2.634 -0.0055  0.3923  0.3732
 4469TIP3    H135042   1.883   2.601   2.624  0.3390  0.3698  1.0396
 4469TIP3    H235043   1.867   2.473   2.546 -0.0809  0.9717  0.1148
 4470TIP3   OH235044   2.515   1.115   8.564 -0.3721 -0.7363  0.2174
 4470TIP3    H135045   2.506   1.177   8.491 -1.1665  1.5174  2.0974
 4470TIP3    H235046   2.569   1.160   8.628  0.9590 -2.9682  0.7705
 4471TIP3   OH235047   2.752   4.496   6.793  0.1922  0.0650 -0.3832
 4471TIP3    H135048   2.747   4.407   6.828 -0.4497  0.5789  0.9138
 4471TIP3    H235049   2.707   4.492   6.709 -2.6655 -0.2221  1.0312
 4472TIP3   OH235050   5.752   3.198   0.406 -0.3555  0.0489  0.3890
 4472TIP3    H135051   5.693   3.134   0.445 -0.3474  0.9307  1.9198
 4472TIP3    H235052   5.694   3.269   0.377 -0.0968  0.9273  1.9164
 4473TIP3   OH235053   6.781   4.755   1.714  0.5892  0.3348  0.3182
 4473TIP3    H135054   6.740   4.818   1.774 -1.2742  0.5510 -1.0800
 4473TIP3    H235055   6.799   4.805   1.635  0.6806 -0.4981 -0.2009
 4474TIP3   OH235056   2.045   1.355   2.447 -0.3722  0.7133 -0.3267
 4474TIP3    H135057   2.133   1.362   2.410  0.2497 -0.1207  0.9237
 4474TIP3    H235058   1.993   1.420   2.399  0.5414  0.1653 -2.1472
 4475TIP3   OH235059   1.271   3.799   1.396  0.3200  0.1888 -0.4643
 4475TIP3    H135060   1.256   3.882   1.350 -2.0074  0.1546  0.1102
 4475TIP3    H235061   1.319   3.746   1.333 -0.8221  0.9363 -2.0471
 4476TIP3   OH235062   3.793   5.367   8.572  0.3767  0.0468  0.2377
 4476TIP3    H135063   3.812   5.446   8.521 -0.5541  2.6162  3.4894
 4476TIP3    H235064   3.698   5.356   8.565  0.5665 -1.1937 -0.6498
 4477TIP3   OH235065   1.562   2.645   8.181  0.0488  0.7443  0.3060
 4477TIP3    H135066   1.593   2.619   8.268 -1.0264 -0.5553  0.3310
 4477TIP3    H235067   1.642   2.648   8.127  0.6539  1.0328  1.1995
 4478TIP3   OH235068   4.041   4.421   1.558 -0.7073  0.3645  0.4108
 4478TIP3    H135069   3.979   4.372   1.612  0.7528 -1.4681  0.5375
 4478TIP3    H235070   4.064   4.360   1.487  0.9877  0.9505  0.4214
 4479TIP3   OH235071   3.395   1.599   1.679  0.3458  0.1033  0.2947
 4479TIP3    H135072   3.402   1.674   1.738  1.0360  1.1417 -1.0372
 4479TIP3    H235073   3.302   1.596   1.655  0.7173  2.3859 -1.8454
 4480TIP3   OH235074   3.746   2.086   0.020 -0.6336  0.9200  0.3432
 4480TIP3    H135075   3.701   2.025   0.080 -3.1954  1.8829 -0.4431
 4480TIP3    H235076   3.777   2.030  -0.052  0.8900  0.0113  1.6426
 4481TIP3   OH235077   3.289   4.419   0.171  0.4456  0.1503 -0.6558
 4481TIP3    H135078   3.270   4.479   0.243 -2.1185 -0.3661 -0.7887
 4481TIP3    H235079   3.258   4.334   0.202  1.9760 -0.6802 -1.3045
 4482TIP3   OH235080   5.638   6.309   8.716 -0.1823  0.2715  0.2090
 4482TIP3    H135081   5.666   6.394   8.752  2.1650 -0.1636 -0.4058
 4482TIP3    H235082   5.630   6.324   8.622  1.5658 -0.4430 -0.0943
 4483TIP3   OH235083   0.099   2.747   0.370  0.1812 -0.8485 -0.5070
 4483TIP3    H135084   0.018   2.698   0.361  1.0404 -2.3648 -0.4347
 4483TIP3    H235085   0.135   2.751   0.281 -0.7650  1.3658 -0.8702
 4484TIP3   OH235086   2.486   4.294   2.004 -0.5878 -0.2142  0.3244
 4484TIP3    H135087   2.540   4.232   1.955 -1.1105 -0.6320  0.2679
 4484TIP3    H235088   2.535   4.377   2.001 -0.9708 -0.0247 -1.5658
 4485TIP3   OH235089   4.198   1.594   8.590  0.3706  0.5679 -0.1965
 4485TIP3    H135090   4.131   1.661   8.577  0.4377  0.4348 -1.3587
 4485TIP3    H235091   4.265   1.614   8.525  0.8500 -0.0558  0.0948
 4486TIP3   OH235092   1.080   2.702   8.372  0.0256 -0.1005  0.0136
 4486TIP3    H135093   0.991   2.672   8.390  0.1905 -0.2184  0.6518
 4486TIP3    H235094   1.083   2.711   8.276 -0.3234 -1.1834 -0.1165
 4487TIP3   OH235095   1.036   2.611   1.046 -0.2290 -0.5058 -0.1918
 4487TIP3    H135096   1.026   2.697   1.087 -1.3840  0.4598 -2.3834
 4487TIP3    H235097   1.129   2.605   1.026 -0.2890  0.7319 -0.9774
 4488TIP3   OH235098   2.859   4.977   0.132 -0.7608  0.5283  0.1636
 4488TIP3    H135099   2.821   4.894   0.162  0.9728 -0.5364 -0.4459
 4488TIP3    H235100   2.847   4.977   0.038  1.7429 -0.4711 -0.2506
 4489TIP3   OH235101   6.023   4.665   1.667 -0.0419 -0.9869 -0.1132
 4489TIP3    H135102   5.927   4.666   1.667 -0.0576  0.5920 -0.4308
 4489TIP3    H235103   6.046   4.659   1.760 -0.4821 -0.0346  0.0744
 4490TIP3   OH235104   4.698   3.032   8.740 -0.3326  0.3864  0.1659
 4490TIP3    H135105   4.652   3.080   8.671 -1.0228 -2.0171 -1.1543
 4490TIP3    H235106   4.758   2.974   8.693 -0.5141 -1.0173  1.5854
 4491TIP3   OH235107   4.610   3.515   1.799  0.5749  0.3796  0.2671
 4491TIP3    H135108   4.673   3.579   1.832  0.5297  1.7491 -2.0495
 4491TIP3    H235109   4.644   3.491   1.713 -2.5562  2.0833 -1.6396
 4492TIP3   OH235110   1.551   3.943   0.273 -0.3716 -0.0321 -0.1736
 4492TIP3    H135111   1.477   3.889   0.245 -0.5225 -0.0405  0.2304
 4492TIP3    H235112   1.615   3.880   0.309  0.0728 -0.0806 -1.0304
 4493TIP3   OH235113   0.488   1.367   8.290  0.1629  0.1180  0.1613
 4493TIP3    H135114   0.480   1.300   8.357 -0.1899 -0.0872 -0.0838
 4493TIP3    H235115   0.413   1.426   8.306 -0.2393 -0.2338 -0.3854
 4494TIP3   OH235116   5.779   2.880   8.530  0.7523 -0.1306  0.1535
 4494TIP3    H135117   5.836   2.817   8.574  0.3845 -1.0702 -0.6660
 4494TIP3    H235118   5.837   2.931   8.474  1.0376  0.2022  0.7430
 4495TIP3   OH235119   4.561   6.067   8.093 -0.1561  1.0090  0.1820
 4495TIP3    H135120   4.470   6.037   8.092  0.1548  0.0236  0.6554
 4495TIP3    H235121   4.571   6.108   8.179 -0.3903  1.9115 -0.2084
 4496TIP3   OH235122   5.274   3.241   1.528 -0.3750 -0.0732  0.4374
 4496TIP3    H135123   5.289   3.314   1.468 -1.2527 -1.1449 -1.1557
 4496TIP3    H235124   5.181   3.220   1.518 -0.2626 -1.0499  1.2884
 4497TIP3   OH235125   6.858   2.050   7.972 -0.0741  0.2153  0.3256
 4497TIP3    H135126   6.860   2.143   7.993  0.3865  0.5503 -1.0606
 4497TIP3    H235127   6.788   2.014   8.026  1.3082  0.8727  2.6848
 4498TIP3   OH235128   5.069   4.583   7.180 -0.0179 -0.0361 -0.0684
 4498TIP3    H135129   5.134   4.637   7.224  0.2312  1.1110 -1.7172
 4498TIP3    H235130   4.994   4.642   7.168 -1.4890 -1.3835  1.9477
 4499TIP3   OH235131   5.571   0.129   6.511 -0.0687  0.2281  0.6086
 4499TIP3    H135132   5.508   0.197   6.487  0.3181  0.0248 -1.1294
 4499TIP3    H235133   5.542   0.051   6.463  0.2788 -0.4734  1.4977
 4500TIP3   OH235134   2.494   6.036   1.844  0.3365  0.4626 -0.2008
 4500TIP3    H135135   2.510   5.942   1.838  1.4201  0.6901 -1.1317
 4500TIP3    H235136   2.551   6.065   1.915 -0.2134  0.3870  0.2824
 4501TIP3   OH235137   3.007   0.606   2.712 -0.7108 -0.5689  0.0135
 4501TIP3    H135138   3.008   0.521   2.668 -0.1352 -0.3746 -0.3673
 4501TIP3    H235139   2.922   0.610   2.756 -2.1100  0.0008 -2.5861
 4502TIP3   OH235140   4.329   0.009   1.538  0.4532 -0.1623  0.2216
 4502TIP3    H135141   4.277   0.076   1.583  1.2383 -0.1723  1.1720
 4502TIP3    H235142   4.277  -0.071   1.544 -1.0842  0.5512 -2.0003
 4503TIP3   OH235143   6.779   2.884   8.192 -0.0108 -0.2435 -0.4458
 4503TIP3    H135144   6.720   2.903   8.265 -0.4410 -1.4386 -0.4673
 4503TIP3    H235145   6.859   2.933   8.213 -0.1367 -0.5430  0.8081
 4504TIP3   OH235146   5.980   0.674   6.877  0.1923 -0.4921 -0.2773
 4504TIP3    H135147   5.921   0.622   6.931  0.5187  1.5921  2.2814
 4504TIP3    H235148   5.928   0.750   6.850  1.3160  0.8163  1.0873
 4505TIP3   OH235149   0.897   2.937   2.381 -0.1836 -0.1759 -0.3205
 4505TIP3    H135150   0.972   2.921   2.438  0.3566  0.8824 -0.7037
 4505TIP3    H235151   0.908   2.877   2.308  2.2979  2.3158 -2.2022
 4506TIP3   OH235152   2.016   2.196   7.936 -0.0895 -0.4606  0.1261
 4506TIP3    H135153   1.980   2.271   7.888 -0.8120 -0.9082 -0.0480
 4506TIP3    H235154   1.972   2.198   8.021  0.3097 -0.3591  0.3315
 4507TIP3   OH235155   0.543   1.935   0.048  0.1226 -0.4298  0.0081
 4507TIP3    H135156   0.608   1.873   0.016  0.9729  1.0432 -1.3098
 4507TIP3    H235157   0.540   2.003  -0.019 -0.6243  1.0441  1.4588
 4508TIP3   OH235158   5.648   5.520   7.015  0.7597 -0.3781  0.6705
 4508TIP3    H135159   5.728   5.530   6.963 -0.0304  0.6130 -0.4230
 4508TIP3    H235160   5.595   5.597   6.992 -0.6464 -1.1762  1.1156
 4509TIP3   OH235161   5.042   5.107   0.544 -0.2681  0.3444 -0.6045
 4509TIP3    H135162   5.079   5.033   0.592 -2.7977 -0.0682  0.9123
 4509TIP3    H235163   5.037   5.178   0.608 -0.6439  0.8720 -1.1971
 4510TIP3   OH235164   0.490   4.521   1.569  0.3001 -0.0693 -0.1668
 4510TIP3    H135165   0.575   4.559   1.593 -0.2809  0.3963  1.1936
 4510TIP3    H235166   0.461   4.475   1.648 -0.2167 -1.1796 -0.9755
 4511TIP3   OH235167   4.836   3.804   0.575  0.2720 -0.2108  0.0609
 4511TIP3    H135168   4.813   3.739   0.509  3.1120 -1.3184  0.0154
 4511TIP3    H235169   4.899   3.862   0.532 -0.5088  1.2558  0.7846
 4512TIP3   OH235170   4.842   2.017   0.264  0.4067 -0.4244  0.0566
 4512TIP3    H135171   4.787   2.035   0.340 -0.9563  0.9795 -1.2017
 4512TIP3    H235172   4.793   2.051   0.190  1.0921 -2.9394 -1.6718
 4513TIP3   OH235173   2.208   0.028   8.588 -0.2648  0.7425  0.2675
 4513TIP3    H135174   2.191   0.009   8.496  1.8701 -0.3695  0.0429
 4513TIP3    H235175   2.298  -0.000   8.602 -0.6174  0.6523  2.7704
 4514TIP3   OH235176   6.038   5.707   0.233 -0.0745 -0.0448 -0.0675
 4514TIP3    H135177   6.065   5.754   0.155  1.7114  0.3218  0.7311
 4514TIP3    H235178   6.098   5.633   0.240  1.0463  0.9558  1.9109
 4515TIP3   OH235179   5.868   0.667   6.517  0.0371  0.0548 -0.3219
 4515TIP3    H135180   5.910   0.656   6.603 -0.2436 -1.6232 -0.3692
 4515TIP3    H235181   5.801   0.733   6.532  0.1951  0.0174  0.6752
 4516TIP3   OH235182   5.558   3.500   6.290 -1.0789  0.0149  0.3376
 4516TIP3    H135183   5.495   3.429   6.274 -0.0002 -1.1320  1.1123
 4516TIP3    H235184   5.626   3.487   6.224 -0.7205  0.1498  0.6779
 4517TIP3   OH235185   5.277   6.795   7.403 -0.2857 -0.2008 -0.4186
 4517TIP3    H135186   5.301   6.819   7.313  0.6615 -0.0881 -0.1490
 4517TIP3    H235187   5.232   6.872   7.437  0.7139  0.3474 -0.3053
 4518TIP3   OH235188   4.259   3.820   7.035  0.1458 -0.1200 -0.4296
 4518TIP3    H135189   4.173   3.863   7.032 -0.4553 -1.1967  0.4654
 4518TIP3    H235190   4.307   3.856   6.960 -1.5759 -0.5055 -1.7819
 4519TIP3   OH235191   4.381   4.083   7.402 -0.4780  0.4368  0.2240
 4519TIP3    H135192   4.461   4.065   7.352  0.5535  2.7997  0.8791
 4519TIP3    H235193   4.398   4.045   7.488 -1.5814 -2.1804 -0.6352
 4520TIP3   OH235194   1.418   2.801   1.639 -0.2432  0.2646  0.9377
 4520TIP3    H135195   1.400   2.869   1.574  1.8268  1.0239  1.1034
 4520TIP3    H235196   1.428   2.849   1.721 -1.0513 -0.5075  1.5118
 4521TIP3   OH235197   1.573   6.413   7.926 -0.3222 -0.6076  0.3453
 4521TIP3    H135198   1.594   6.339   7.869  0.9095 -0.0531  0.0306
 4521TIP3    H235199   1.531   6.477   7.868 -0.8417 -0.8168  0.4878
 4522TIP3   OH235200   6.853   3.098   1.624  0.0852  0.0067 -0.2474
 4522TIP3    H135201   6.786   3.094   1.556 -0.6888  0.5829  0.4513
 4522TIP3    H235202   6.854   3.190   1.651 -0.1469 -0.3398  1.0077
 4523TIP3   OH235203   5.604   4.619   8.257 -0.4985 -0.8460  0.1786
 4523TIP3    H135204   5.594   4.638   8.350 -0.6407 -1.6908  0.3398
 4523TIP3    H235205   5.515   4.624   8.222 -0.5865 -1.5448  0.2903
 4524TIP3   OH235206   6.608   5.558   1.624 -0.1451  0.5203 -0.0769
 4524TIP3    H135207   6.648   5.473   1.641 -1.5231 -0.3291 -0.9795
 4524TIP3    H235208   6.549   5.544   1.550 -0.1034  2.3564 -0.5205
 4525TIP3   OH235209   0.683   4.629   8.179  0.4256 -0.1452  0.5171
 4525TIP3    H135210   0.674   4.546   8.226  0.1063 -0.7625 -0.6078
 4525TIP3    H235211   0.709   4.691   8.247  0.6814 -1.1551  1.3833
 4526TIP3   OH235212   4.100   2.691   8.675 -0.6211 -0.0528  0.1033
 4526TIP3    H135213   4.052   2.721   8.597 -1.7487  0.1067  0.8274
 4526TIP3    H235214   4.076   2.755   8.743 -1.0735 -1.1837  1.0345
 4527TIP3   OH235215   4.380   2.520   1.331 -1.0559  0.1119  0.1503
 4527TIP3    H135216   4.398   2.449   1.393 -0.4790 -0.7048 -0.9294
 4527TIP3    H235217   4.284   2.525   1.328 -1.1994 -2.2508 -1.5148
 4528TIP3   OH235218   4.872   6.191   1.197 -0.2704  0.2993  0.4457
 4528TIP3    H135219   4.935   6.234   1.255  1.6927 -2.2033  0.2915
 4528TIP3    H235220   4.891   6.226   1.110 -1.3282  1.9348  0.8232
 4529TIP3   OH235221   6.342   2.080   2.388  0.4500  0.2410 -0.2796
 4529TIP3    H135222   6.316   2.137   2.460 -0.5011  0.2288 -0.6002
 4529TIP3    H235223   6.287   2.002   2.397  1.3105 -0.3731 -0.2043
 4530TIP3   OH235224   5.020   6.802   0.504  0.3256 -0.5997  0.0907
 4530TIP3    H135225   5.101   6.753   0.514  0.4278 -0.3537  0.4786
 4530TIP3    H235226   5.012   6.853   0.585 -2.3165 -3.7157  2.1104
 4531TIP3   OH235227   6.299   1.116   8.396 -0.2932  0.4518  0.1426
 4531TIP3    H135228   6.263   1.030   8.375  0.7730  0.0567 -0.1276
 4531TIP3    H235229   6.246   1.177   8.343 -1.4486  0.0451  0.7956
 4532TIP3   OH235230   3.802   5.454   0.284 -0.2812  0.7228 -0.0023
 4532TIP3    H135231   3.811   5.469   0.190 -1.2192  1.7492  0.0482
 4532TIP3    H235232   3.888   5.424   0.313 -0.2418 -0.5402 -1.3475
 4533TIP3   OH235233   3.079   1.567   0.296 -0.2680 -0.3758  0.0893
 4533TIP3    H135234   3.077   1.568   0.200 -0.2613  2.8373 -0.0123
 4533TIP3    H235235   3.168   1.541   0.318 -0.7959 -3.0292 -0.6453
 4534TIP3   OH235236   1.676   2.744   7.847  0.2206  0.5447 -0.1184
 4534TIP3    H135237   1.750   2.736   7.787 -0.2464 -0.2618 -0.5890
 4534TIP3    H235238   1.686   2.832   7.885  1.9016  0.1442  0.4724
 4535TIP3   OH235239   6.153   5.131   2.673  0.0007 -0.7659  0.1948
 4535TIP3    H135240   6.144   5.222   2.700  1.3893 -0.4604 -0.2854
 4535TIP3    H235241   6.105   5.082   2.740 -2.1225  0.3881 -0.4074
 4536TIP3   OH235242   5.945   1.737   7.831 -0.2872  0.0340 -0.3876
 4536TIP3    H135243   5.973   1.702   7.916 -0.5357  0.5738 -0.0796
 4536TIP3    H235244   5.851   1.751   7.841 -0.2956  0.2129 -0.7183
 4537TIP3   OH235245   1.361   1.645   8.542 -0.2728  0.2108  0.1120
 4537TIP3    H135246   1.326   1.696   8.470  0.4763 -0.7724 -0.9812
 4537TIP3    H235247   1.355   1.554   8.513 -0.2014 -0.2300  1.3975
 4538TIP3   OH235248   0.954   1.448   1.112 -0.8136  1.0367 -0.2145
 4538TIP3    H135249   1.000   1.476   1.033 -1.1131  1.0510 -0.3851
 4538TIP3    H235250   1.005   1.374   1.145 -0.8689  0.8303 -0.5958
 4539TIP3   OH235251   4.075   0.229   1.943  0.4113  0.0886  0.0446
 4539TIP3    H135252   4.064   0.179   1.862 -0.1593 -0.8184  0.6607
 4539TIP3    H235253   4.023   0.309   1.929  0.0160 -0.2280 -0.3511
 4540TIP3   OH235254   0.978   5.546   0.357  0.5197 -0.0949 -0.4397
 4540TIP3    H135255   0.988   5.636   0.387  1.3847 -0.7947  1.5425
 4540TIP3    H235256   0.887   5.524   0.376  0.6433 -0.0212  0.2766
 4541TIP3   OH235257   4.731   3.216   7.096  0.0577  0.0797 -0.4573
 4541TIP3    H135258   4.760   3.130   7.066 -0.2816 -0.0853 -0.3186
 4541TIP3    H235259   4.645   3.227   7.056 -1.1911 -0.8895  1.7563
 4542TIP3   OH235260   5.963   1.599   8.093 -0.1699 -0.6042  0.0786
 4542TIP3    H135261   5.876   1.559   8.091 -0.3398 -0.2355  0.0210
 4542TIP3    H235262   6.017   1.536   8.141 -1.2846  0.7636  3.4573
 4543TIP3   OH235263   4.202   5.819   8.577  0.3260 -0.4826 -0.2004
 4543TIP3    H135264   4.223   5.730   8.548 -1.2823 -0.8964 -0.2303
 4543TIP3    H235265   4.247   5.830   8.660 -0.6727 -1.9177  0.5631
 4544TIP3   OH235266   4.130   0.774   7.830 -0.2806 -0.4477 -0.0954
 4544TIP3    H135267   4.178   0.772   7.912 -0.2275 -2.7230 -0.1192
 4544TIP3    H235268   4.171   0.706   7.776 -1.7982 -0.6164 -1.1035
 4545TIP3   OH235269   5.401   4.380   1.459  0.2082 -0.2736  0.0909
 4545TIP3    H135270   5.438   4.353   1.375  0.1095 -0.2941  0.0542
 4545TIP3    H235271   5.474   4.421   1.505  1.0043 -2.6049  1.0636
 4546TIP3   OH235272   1.493   5.979   7.611 -0.2750 -0.1109  0.0705
 4546TIP3    H135273   1.537   6.030   7.543 -0.2538  0.3683  0.4341
 4546TIP3    H235274   1.529   6.014   7.693 -0.4375 -0.5528  0.3308
 4547TIP3   OH235275   1.595   6.030   8.544 -0.2246  0.5537 -0.3332
 4547TIP3    H135276   1.553   5.959   8.591 -0.9431  0.7854 -0.5984
 4547TIP3    H235277   1.681   6.039   8.584 -0.2041 -0.3221 -0.1630
 4548TIP3   OH235278   0.810   6.357   1.800  0.2342 -0.5376  0.8770
 4548TIP3    H135279   0.829   6.345   1.707 -1.3104 -0.7431  0.5535
 4548TIP3    H235280   0.869   6.428   1.828  0.5213 -0.2846 -0.3204
 4549TIP3   OH235281   0.725   6.171   0.308 -0.1722  0.0160  0.2629
 4549TIP3    H135282   0.686   6.256   0.329  0.7070  0.3297  0.6510
 4549TIP3    H235283   0.790   6.156   0.376  0.8880 -0.1775 -0.7664
 4550TIP3   OH235284   2.566   2.693   7.274 -0.8111  0.0095  0.1181
 4550TIP3    H135285   2.656   2.719   7.253 -0.0460 -1.2831  1.5869
 4550TIP3    H235286   2.576   2.615   7.328 -2.8385 -0.1435  0.3341
 4551TIP3   OH235287   2.456   3.017   0.108  0.2607 -0.2953  0.2166
 4551TIP3    H135288   2.378   3.025   0.163 -1.1011 -1.8155 -1.3673
 4551TIP3    H235289   2.517   3.083   0.141 -1.9028  1.3118  1.1523
 4552TIP3   OH235290   4.914   2.511   8.036 -0.1411 -0.4743  0.4212
 4552TIP3    H135291   4.970   2.562   7.977  3.1330 -1.1683  2.6488
 4552TIP3    H235292   4.861   2.577   8.082 -0.5794  0.2980 -1.1157
 4553TIP3   OH235293   6.599   0.116   1.868 -0.0299 -0.4637  0.8462
 4553TIP3    H135294   6.663   0.165   1.920 -0.6861  0.6837  0.6095
 4553TIP3    H235295   6.527   0.177   1.856  0.4054 -0.3716 -2.0648
 4554TIP3   OH235296   0.505   5.414   6.268 -0.0298  0.5317 -0.0850
 4554TIP3    H135297   0.565   5.428   6.195 -0.3963  1.1898 -0.2633
 4554TIP3    H235298   0.562   5.390   6.341  0.4197  0.8163 -0.3386
 4555TIP3   OH235299   6.129   6.603   7.300 -0.2960  0.0369  0.0278
 4555TIP3    H135300   6.060   6.646   7.351  0.5434  0.5011  0.7876
 4555TIP3    H235301   6.206   6.606   7.356 -0.1253 -2.2696  0.0300
 4556TIP3   OH235302   2.915   1.082   1.292 -0.3533 -0.1508 -0.3624
 4556TIP3    H135303   2.875   1.116   1.372  0.2324 -0.9032  0.2599
 4556TIP3    H235304   3.005   1.062   1.316 -0.6193 -1.9456 -0.7581
 4557TIP3   OH235305   3.180   5.766   1.900  0.0037  0.6439 -0.0146
 4557TIP3    H135306   3.128   5.686   1.899  2.1155 -0.9199 -2.9065
 4557TIP3    H235307   3.122   5.834   1.867 -1.0798 -0.3011 -0.0918
 4558TIP3   OH235308   4.388   6.489   7.773  0.5200 -0.3278 -0.6841
 4558TIP3    H135309   4.332   6.460   7.845  1.5062 -1.9282 -0.5035
 4558TIP3    H235310   4.340   6.562   7.733 -0.0964  0.5449  1.4979
 4559TIP3   OH235311   5.904   0.471   1.722 -0.1493 -0.0532 -0.1848
 4559TIP3    H135312   5.956   0.546   1.693  0.8152  0.2455  2.0739
 4559TIP3    H235313   5.861   0.439   1.643  0.9900  1.6476 -1.5650
 4560TIP3   OH235314   2.841   3.706   6.826  0.1416 -0.3715 -0.4218
 4560TIP3    H135315   2.800   3.787   6.794  0.7382 -0.1952 -0.7609
 4560TIP3    H235316   2.927   3.704   6.783  0.4313 -0.8086  0.1613
 4561TIP3   OH235317   3.250   4.774   1.634 -0.0964 -0.0395 -0.2551
 4561TIP3    H135318   3.198   4.702   1.599 -1.3233  0.2574  0.8782
 4561TIP3    H235319   3.209   4.853   1.599  1.0584  0.1423 -1.2510
 4562TIP3   OH235320   4.540   4.802   1.052  0.7444 -0.8848  0.8054
 4562TIP3    H135321   4.636   4.801   1.055  0.8246  0.7736 -0.1560
 4562TIP3    H235322   4.515   4.841   1.136  0.9719 -0.0738  0.5025
 4563TIP3   OH235323   0.737   3.462   8.471 -0.1134 -0.2622 -0.5336
 4563TIP3    H135324   0.648   3.497   8.463 -0.3744 -0.9053 -0.5014
 4563TIP3    H235325   0.772   3.469   8.382  0.3186  1.2946 -0.2741
 4564TIP3   OH235326   2.529   1.816   2.100  0.4370  0.4152  0.0728
 4564TIP3    H135327   2.482   1.836   2.181 -0.5234 -0.6716 -0.1714
 4564TIP3    H235328   2.618   1.794   2.128  0.8565  2.5456  0.5516
 4565TIP3   OH235329   0.279   2.111   2.055  0.8790 -0.1385 -0.7971
 4565TIP3    H135330   0.320   2.146   1.976  2.1435 -0.2875 -0.2350
 4565TIP3    H235331   0.198   2.071   2.025  0.7790  0.8268 -1.8470
 4566TIP3   OH235332   1.648   6.365   8.698  0.3947  0.0681  0.5803
 4566TIP3    H135333   1.614   6.361   8.609 -0.0015 -0.2664  0.7436
 4566TIP3    H235334   1.633   6.456   8.725 -0.3021 -0.0473  0.6157
 4567TIP3   OH235335   2.835   5.485   1.611  0.4881  0.4546  0.0700
 4567TIP3    H135336   2.827   5.543   1.686 -0.3097  1.3979 -0.7186
 4567TIP3    H235337   2.833   5.543   1.535  0.4374 -0.5468 -0.7159
 4568TIP3   OH235338   1.545   5.323   1.153 -0.5226  0.1761 -0.3893
 4568TIP3    H135339   1.612   5.376   1.197 -0.0668 -0.9993  0.3759
 4568TIP3    H235340   1.554   5.345   1.061 -0.2885  1.3586 -0.1054
 4569TIP3   OH235341   5.096   1.734   6.755 -0.5379 -0.0048  0.6983
 4569TIP3    H135342   5.188   1.759   6.742 -0.5005 -0.1006  0.7765
 4569TIP3    H235343   5.053   1.755   6.672 -0.2234 -0.9600  0.2778
 4570TIP3   OH235344   5.777   0.104   7.968  0.6524 -0.1057 -0.6796
 4570TIP3    H135345   5.848   0.113   8.032  2.7116  0.3443 -2.8711
 4570TIP3    H235346   5.781   0.012   7.942 -0.8865 -0.5549  0.5222
 4571TIP3   OH235347   5.777   0.465   0.373 -0.0765 -0.3246  0.2544
 4571TIP3    H135348   5.731   0.531   0.425 -0.0119  0.1023 -0.2249
 4571TIP3    H235349   5.868   0.472   0.400 -0.0350 -0.0683  0.0474
 4572TIP3   OH235350   6.446   2.523   0.213 -0.2141 -0.0801 -0.4879
 4572TIP3    H135351   6.398   2.507   0.133  0.8592 -1.0038 -0.9856
 4572TIP3    H235352   6.538   2.519   0.187  0.1749  2.0828  0.3394
 4573TIP3   OH235353   4.977   5.631   6.921 -0.1242 -0.3948  0.1683
 4573TIP3    H135354   4.912   5.592   6.979 -2.0015  0.1478 -1.4251
 4573TIP3    H235355   4.947   5.721   6.909  1.2529  0.0439 -0.2102
 4574TIP3   OH235356   6.583   1.541   7.871 -0.3803  0.1992  0.0649
 4574TIP3    H135357   6.614   1.619   7.824 -1.9321  1.0883  0.4498
 4574TIP3    H235358   6.651   1.525   7.936  0.8116  0.1588 -1.1299
 4575TIP3   OH235359   0.721   4.473   1.265  0.5516 -0.1064  0.6521
 4575TIP3    H135360   0.660   4.435   1.328 -1.3355  1.9691  0.2161
 4575TIP3    H235361   0.721   4.412   1.191 -2.6258  0.6980 -0.1707
 4576TIP3   OH235362   0.381   6.182   7.471 -0.1075  0.5782 -0.3461
 4576TIP3    H135363   0.404   6.196   7.379  1.5341  1.8928  0.2099
 4576TIP3    H235364   0.289   6.209   7.477  0.2105  2.0435 -1.3167
 4577TIP3   OH235365   0.209   3.585   0.061 -0.1338 -0.3642  0.3223
 4577TIP3    H135366   0.263   3.660   0.083 -1.3750  0.3983  0.9112
 4577TIP3    H235367   0.233   3.562  -0.028 -0.0992  1.0730 -0.0580
 4578TIP3   OH235368   5.990   0.352   6.785 -0.2184 -0.0658  0.4122
 4578TIP3    H135369   6.021   0.440   6.764 -0.5818 -0.1440 -0.5299
 4578TIP3    H235370   5.902   0.349   6.747  0.7015 -1.6420 -1.8038
 4579TIP3   OH235371   0.741   1.655   7.245 -0.0562 -0.0690 -0.2937
 4579TIP3    H135372   0.729   1.567   7.281  2.6838 -0.6898 -0.7305
 4579TIP3    H235373   0.823   1.650   7.196 -0.8029  2.2536 -1.9229
 4580TIP3   OH235374   3.442   4.977   1.837  0.0720 -0.1191 -0.0333
 4580TIP3    H135375   3.522   4.925   1.829 -0.3860 -0.5949 -2.0883
 4580TIP3    H235376   3.439   5.028   1.756 -1.7564 -0.1792 -0.0357
 4581TIP3   OH235377   0.007   0.655   2.351 -0.1282  0.3919  0.1086
 4581TIP3    H135378  -0.046   0.582   2.384  1.0197 -0.5980 -0.1559
 4581TIP3    H235379  -0.043   0.688   2.276 -1.2518  0.6738  0.9612
 4582TIP3   OH235380   4.677   3.635   0.068 -0.5197 -0.0200 -0.4678
 4582TIP3    H135381   4.765   3.672   0.063 -0.5317  0.0013 -0.5253
 4582TIP3    H235382   4.638   3.657  -0.017 -0.5956  0.0092 -0.4248
 4583TIP3   OH235383   6.792   3.355   0.291  0.5526  0.6383 -0.1751
 4583TIP3    H135384   6.806   3.278   0.346  1.1580  0.5510 -0.4359
 4583TIP3    H235385   6.718   3.400   0.330 -1.8766 -1.6715 -1.7631
 4584TIP3   OH235386   5.853   0.071   6.685 -0.4428 -0.3181  0.2995
 4584TIP3    H135387   5.916   0.038   6.749 -0.1039 -1.8431 -0.7450
 4584TIP3    H235388   5.905   0.125   6.625 -0.6641  0.6868  0.9989
 4585TIP3   OH235389   5.860   5.498   6.849  0.0100  0.0757  0.5479
 4585TIP3    H135390   5.950   5.498   6.880  0.1495 -1.0642  0.1799
 4585TIP3    H235391   5.864   5.543   6.765  0.6629 -1.9011 -0.5483
 4586TIP3   OH235392   3.791   0.950   1.925 -0.5899  0.3554  0.1297
 4586TIP3    H135393   3.798   0.861   1.960 -2.3829 -0.3171 -1.0723
 4586TIP3    H235394   3.857   1.000   1.973  2.2961 -2.1542 -0.9184
 4587TIP3   OH235395   4.176   6.398   6.490 -0.0045 -0.2165 -0.0697
 4587TIP3    H135396   4.243   6.461   6.460 -1.2842  0.2700 -2.1815
 4587TIP3    H235397   4.222   6.314   6.494  0.9419  0.2462 -0.7120
 4588TIP3   OH235398   3.488   5.990   2.286 -0.2453  0.3108 -0.7156
 4588TIP3    H135399   3.581   5.970   2.294 -0.7278 -1.1230  2.5949
 4588TIP3    H235400   3.453   5.921   2.230  0.6522  1.1108 -2.3657
 4589TIP3   OH235401   0.951   1.364   1.846  0.0679 -0.4204 -0.1424
 4589TIP3    H135402   0.931   1.354   1.939  0.2360 -0.1386 -0.0766
 4589TIP3    H235403   0.939   1.457   1.828 -0.9001 -0.6183 -0.6226
 4590TIP3   OH235404   3.538   2.889   7.667 -1.0833  0.8455 -0.6022
 4590TIP3    H135405   3.504   2.803   7.642 -0.4673  0.4097  0.0247
 4590TIP3    H235406   3.492   2.910   7.747  0.1225  0.2240  0.2857
 4591TIP3   OH235407   0.236   4.684   6.727 -0.1715  0.1537 -0.4756
 4591TIP3    H135408   0.317   4.724   6.758  1.4945 -1.9513 -1.8826
 4591TIP3    H235409   0.202   4.747   6.664  1.0263  0.5281 -0.7796
 4592TIP3   OH235410   1.721   3.573   7.416  0.0044 -0.0697  0.4115
 4592TIP3    H135411   1.718   3.588   7.322 -3.5959  1.9041  0.6450
 4592TIP3    H235412   1.653   3.508   7.432 -0.3865  0.6506  1.7761
 4593TIP3   OH235413   4.107   2.437   8.507 -0.4890 -0.2198 -0.1261
 4593TIP3    H135414   4.145   2.505   8.564 -0.1989 -0.4027 -0.0998
 4593TIP3    H235415   4.055   2.382   8.566 -1.7894  0.7275 -0.3454
 4594TIP3   OH235416   4.140   1.561   0.837  0.1843  0.4946 -0.3457
 4594TIP3    H135417   4.206   1.547   0.904  0.6362  1.8110 -0.4843
 4594TIP3    H235418   4.058   1.531   0.877  0.4222  1.3684  0.8340
 4595TIP3   OH235419   2.333   3.461   7.700 -0.1733  0.4540 -0.5286
 4595TIP3    H135420   2.292   3.375   7.691  0.9028 -0.1990  0.5350
 4595TIP3    H235421   2.427   3.443   7.705  0.0409  1.6239  0.2647
 4596TIP3   OH235422   5.263   6.111   7.757 -0.0297 -0.0713  0.0684
 4596TIP3    H135423   5.280   6.166   7.680  0.6248 -1.1132 -0.5538
 4596TIP3    H235424   5.168   6.110   7.765 -0.3760 -2.5478 -2.7325
 4597TIP3   OH235425   6.209   3.281   8.401  0.0955 -0.3257 -0.3141
 4597TIP3    H135426   6.239   3.232   8.324 -2.1309 -0.6297 -1.0849
 4597TIP3    H235427   6.268   3.356   8.407  1.6621 -1.4534 -0.9841
 4598TIP3   OH235428   0.086   3.203   8.663  0.2865 -0.0879 -0.0858
 4598TIP3    H135429   0.164   3.235   8.618  0.1360 -0.6948 -0.8031
 4598TIP3    H235430   0.048   3.281   8.704  0.5952  0.4314 -0.7717
 4599TIP3   OH235431   6.110   0.149   2.100 -0.3661 -0.2374  0.3497
 4599TIP3    H135432   6.064   0.227   2.068 -2.1007 -0.4814  2.0021
 4599TIP3    H235433   6.081   0.078   2.043 -1.0844 -0.1540  0.5997
 4600TIP3   OH235434   3.530   2.112   6.183 -0.1261 -0.7569  0.8128
 4600TIP3    H135435   3.475   2.107   6.106  0.8250 -1.9916  0.1782
 4600TIP3    H235436   3.489   2.054   6.247 -0.2903 -0.6122  0.8408
 4601TIP3   OH235437   3.938   2.700   0.202  0.0234  0.1225 -0.0993
 4601TIP3    H135438   3.896   2.669   0.122 -0.9181  1.6178 -0.2219
 4601TIP3    H235439   4.026   2.724   0.175  0.2466 -0.9122 -0.3259
 4602TIP3   OH235440   1.254   3.912   1.112  0.1390 -0.2620 -0.5655
 4602TIP3    H135441   1.175   3.897   1.059  0.6036 -0.2611 -1.2801
 4602TIP3    H235442   1.282   3.825   1.139  0.4673 -0.3515 -1.1775
 4603TIP3   OH235443   3.218   1.474   1.484  0.7611 -0.3385 -0.3141
 4603TIP3    H135444   3.161   1.408   1.523 -0.8704  0.8687 -0.5374
 4603TIP3    H235445   3.306   1.441   1.497  0.0218 -2.2089  0.1908
 4604TIP3   OH235446   5.855   5.411   7.824 -0.8912  0.3343  0.4315
 4604TIP3    H135447   5.836   5.331   7.872  1.0341  0.3250  1.2540
 4604TIP3    H235448   5.886   5.381   7.738  2.1489 -0.0165  1.5271
 4605TIP3   OH235449   4.555   1.025   1.243 -0.2832 -0.6241 -0.1712
 4605TIP3    H135450   4.519   1.064   1.323  0.9474  1.8842 -0.7280
 4605TIP3    H235451   4.487   0.965   1.213 -1.1266 -1.0060  2.2882
 4606TIP3   OH235452   4.642   4.987   1.776 -0.0049  0.9494 -0.2083
 4606TIP3    H135453   4.647   5.064   1.834  0.9497  1.9888 -1.6068
 4606TIP3    H235454   4.712   4.930   1.807 -0.6483  0.6646  0.7750
 4607TIP3   OH235455   0.416   1.697   7.282  0.8727 -0.1428  0.4044
 4607TIP3    H135456   0.383   1.608   7.296 -0.9254  0.5046  0.4638
 4607TIP3    H235457   0.511   1.686   7.277  0.6225 -2.2872 -1.2244
 4608TIP3   OH235458   3.860   4.931   6.989  0.0560 -0.3912 -1.1129
 4608TIP3    H135459   3.924   4.893   7.049 -0.5073 -3.3822 -2.2673
 4608TIP3    H235460   3.913   4.984   6.929  1.3920 -2.1327 -1.5387
 4609TIP3   OH235461   0.442   2.415   0.176  0.1468  0.5549  0.1212
 4609TIP3    H135462   0.453   2.334   0.225  0.8193 -0.5634 -1.7478
 4609TIP3    H235463   0.527   2.459   0.183 -0.7437  2.0794  2.6339
 4610TIP3   OH235464   2.633   6.541   0.273 -0.4070 -0.1359  0.1312
 4610TIP3    H135465   2.671   6.519   0.188  1.0352 -1.3442  1.0407
 4610TIP3    H235466   2.685   6.615   0.304 -0.8121  0.1827  0.0701
 4611TIP3   OH235467   1.898   0.813   0.237 -0.7949  0.1643  0.0856
 4611TIP3    H135468   1.990   0.835   0.254 -0.9881  1.0252  0.0711
 4611TIP3    H235469   1.863   0.891   0.193 -1.0777 -0.8374 -1.5416
 4612TIP3   OH235470   4.257   4.520   2.440  0.1852  0.2914 -0.0833
 4612TIP3    H135471   4.277   4.611   2.417  0.1118  0.4775  0.5610
 4612TIP3    H235472   4.321   4.468   2.393  1.2182  0.7761  0.7425
 4613TIP3   OH235473   2.639   5.307   1.472  0.3468  0.1455 -0.3123
 4613TIP3    H135474   2.666   5.386   1.520 -2.5826  0.6258  0.7912
 4613TIP3    H235475   2.699   5.239   1.502  1.8430  1.5602  0.0732
 4614TIP3   OH235476   6.233   1.543   6.773  0.3708 -0.1693  0.0112
 4614TIP3    H135477   6.151   1.499   6.797  0.0886  0.0160 -0.5951
 4614TIP3    H235478   6.213   1.637   6.783  0.6445 -0.1385  0.2756
 4615TIP3   OH235479   1.679   4.024   1.572 -0.1311 -0.0713 -0.3902
 4615TIP3    H135480   1.636   4.096   1.619 -0.9806 -1.8275  1.6942
 4615TIP3    H235481   1.622   4.006   1.498 -1.7638 -0.7338  0.9581
 4616TIP3   OH235482   2.418   0.552   2.006 -0.6544 -0.6317 -0.2614
 4616TIP3    H135483   2.328   0.562   1.975 -0.7114  2.1736  0.5441
 4616TIP3    H235484   2.410   0.516   2.094 -0.8229 -2.5614 -1.0324
 4617TIP3   OH235485   5.006   0.532   1.430 -0.5175 -0.3676  0.3093
 4617TIP3    H135486   5.038   0.619   1.402 -0.2235 -0.7927 -0.7297
 4617TIP3    H235487   5.031   0.526   1.522  0.7109  0.1043  0.0312
 4618TIP3   OH235488   4.661   0.713   8.697 -0.4572  0.5749  0.0175
 4618TIP3    H135489   4.639   0.698   8.605 -1.3525  1.6439  0.0416
 4618TIP3    H235490   4.744   0.760   8.695 -1.3182  2.1353 -0.3334
 4619TIP3   OH235491   2.132   3.269   2.107  0.2157  0.0136  0.2798
 4619TIP3    H135492   2.180   3.198   2.064 -0.8938 -0.3083 -0.4888
 4619TIP3    H235493   2.122   3.239   2.198 -0.7945 -1.1518 -0.1804
 4620TIP3   OH235494   5.385   1.878   7.571  0.0051 -0.4931  0.3132
 4620TIP3    H135495   5.453   1.928   7.616 -0.1381 -2.1018  2.4844
 4620TIP3    H235496   5.322   1.944   7.541 -0.2205  0.7074  3.1279
 4621TIP3   OH235497   5.204   1.342   1.505 -0.3867 -0.0037 -0.5556
 4621TIP3    H135498   5.157   1.415   1.466  0.0385 -0.5374 -2.1108
 4621TIP3    H235499   5.199   1.272   1.440  0.3994 -0.8998  0.3148
 4622TIP3   OH235500   0.109   4.534   2.215  0.1521  0.0285  0.2429
 4622TIP3    H135501   0.172   4.570   2.153 -0.6877  1.0795 -0.0215
 4622TIP3    H235502   0.024   4.556   2.178 -0.4674 -3.0612 -0.4553
 4623TIP3   OH235503   0.156   4.912   6.571 -0.1141 -0.1875  0.4691
 4623TIP3    H135504   0.085   4.970   6.597  0.3139  0.7537 -0.3913
 4623TIP3    H235505   0.200   4.958   6.499  1.0831 -0.9482  0.6781
 4624TIP3   OH235506   0.538   1.326   6.328  0.1934  0.9012  0.2314
 4624TIP3    H135507   0.581   1.245   6.354 -1.3098  0.7362  2.4134
 4624TIP3    H235508   0.461   1.298   6.280 -1.0111  0.9385  2.0695
 4625TIP3   OH235509   4.828   4.767   6.869 -0.4016  0.3462  0.0736
 4625TIP3    H135510   4.765   4.704   6.903 -0.1253 -0.9817 -1.7647
 4625TIP3    H235511   4.833   4.834   6.937 -1.6554 -0.9503  1.5184
 4626TIP3   OH235512   0.635   6.410   0.374 -0.2240  0.1816 -0.2598
 4626TIP3    H135513   0.625   6.462   0.454 -1.6012  0.7565 -0.7785
 4626TIP3    H235514   0.705   6.453   0.326  0.4561 -0.0286  0.5060
 4627TIP3   OH235515   6.202   2.348   8.561 -0.0493 -0.3545  0.1472
 4627TIP3    H135516   6.190   2.253   8.571  0.3236 -0.3131  1.1851
 4627TIP3    H235517   6.293   2.363   8.586  0.0510  0.2181 -0.5339
 4628TIP3   OH235518   6.714   2.704   1.315 -0.2824  0.3118 -0.7579
 4628TIP3    H135519   6.729   2.675   1.405  0.8098 -2.1975 -1.6402
 4628TIP3    H235520   6.632   2.753   1.318 -0.1403  0.4971  1.6232
 4629TIP3   OH235521   2.891   5.581   2.039  0.1620 -0.1958  0.1701
 4629TIP3    H135522   2.948   5.515   2.000  1.0370  0.4948  0.2510
 4629TIP3    H235523   2.909   5.577   2.133  0.1524  0.0924  0.1874
 4630TIP3   OH235524   2.081   3.948   6.686  0.8728  0.4059  0.1619
 4630TIP3    H135525   2.083   3.870   6.630  2.3570  0.1857  0.4777
 4630TIP3    H235526   2.006   3.998   6.655  0.3377 -0.7870 -0.5425
 4631TIP3   OH235527   3.668   5.273   8.167 -0.0786 -0.3374 -0.4034
 4631TIP3    H135528   3.648   5.223   8.088  0.4527  0.5830 -1.1482
 4631TIP3    H235529   3.582   5.294   8.205 -0.3641 -0.2628 -1.0805
 4632TIP3   OH235530   2.270   5.727   0.876  0.6346 -0.2045  0.8276
 4632TIP3    H135531   2.253   5.714   0.783  2.8843  3.1784 -0.2274
 4632TIP3    H235532   2.185   5.750   0.913 -0.0483 -0.1636 -0.6958
 4633TIP3   OH235533   3.480   5.219   1.108 -0.3562 -0.3988  0.2742
 4633TIP3    H135534   3.479   5.189   1.017  1.8314 -2.1109  0.7421
 4633TIP3    H235535   3.484   5.315   1.102  3.6761 -0.4811 -1.6287
 4634TIP3   OH235536   0.932   5.263   8.791 -0.3717  0.6746  0.2987
 4634TIP3    H135537   0.988   5.317   8.846  1.5288  0.5157 -1.3879
 4634TIP3    H235538   0.912   5.319   8.715 -4.0908  1.4151  1.5753
 4635TIP3   OH235539   4.829   3.229   8.068  0.1032  0.0662  0.1705
 4635TIP3    H135540   4.789   3.297   8.014 -0.1887 -0.7085 -0.6011
 4635TIP3    H235541   4.916   3.264   8.090 -0.0438  0.6890 -0.2130
 4636TIP3   OH235542   1.566   3.552   6.879 -0.0022 -0.2897  0.4277
 4636TIP3    H135543   1.617   3.625   6.844  2.9628 -1.9916  0.9058
 4636TIP3    H235544   1.560   3.490   6.807 -0.1320 -0.7451  0.8275
 4637TIP3   OH235545   1.192   3.015   0.361 -0.2696  0.5656 -0.0284
 4637TIP3    H135546   1.210   2.927   0.327  0.5075  0.8606 -0.3952
 4637TIP3    H235547   1.267   3.067   0.333 -1.5901  1.7868 -1.3929
 4638TIP3   OH235548   4.690   5.999   1.499 -0.6030  0.2802 -0.0137
 4638TIP3    H135549   4.622   5.941   1.534 -0.5731  0.0293 -0.3658
 4638TIP3    H235550   4.653   6.032   1.417 -1.1822  1.8195  0.8261
 4639TIP3   OH235551   1.306   2.943   0.951  0.3640 -0.0760  0.2611
 4639TIP3    H135552   1.342   2.855   0.943  0.7474  0.1099 -0.0360
 4639TIP3    H235553   1.221   2.938   0.907 -0.0736 -0.5609  1.1258
 4640TIP3   OH235554   3.210   2.578   6.419 -0.2377  0.5725  0.2804
 4640TIP3    H135555   3.168   2.503   6.376 -0.9846 -0.0730  2.0514
 4640TIP3    H235556   3.186   2.653   6.364 -0.3416 -0.3386 -0.9576
 4641TIP3   OH235557   3.243   0.016   7.929  0.4785 -0.0643 -0.2139
 4641TIP3    H135558   3.233   0.110   7.915  0.7705 -0.1559 -1.1150
 4641TIP3    H235559   3.308   0.009   7.998 -0.3969  0.4061  0.6788
 4642TIP3   OH235560   5.655   1.777   8.357 -0.0303 -0.3308 -0.7372
 4642TIP3    H135561   5.700   1.856   8.327  0.0187  0.0829  0.3606
 4642TIP3    H235562   5.693   1.759   8.443 -0.3538 -1.3027 -0.7795
 4643TIP3   OH235563   6.469   3.293   7.792 -0.3962  0.4001  0.0986
 4643TIP3    H135564   6.471   3.386   7.814  0.1440  0.7171 -1.2069
 4643TIP3    H235565   6.501   3.249   7.871 -0.6079  1.3076  0.7104
 4644TIP3   OH235566   6.224   4.529   7.986 -0.1869  0.9435 -0.4440
 4644TIP3    H135567   6.204   4.605   7.931  0.9344 -0.7113 -3.3810
 4644TIP3    H235568   6.143   4.513   8.035 -1.0458  2.9188 -1.1103
 4645TIP3   OH235569   4.395   0.821   1.133 -0.0275 -0.3548  0.1782
 4645TIP3    H135570   4.368   0.797   1.221 -0.8110 -2.2142 -0.5203
 4645TIP3    H235571   4.318   0.864   1.095 -0.7675 -2.1919 -0.5257
 4646TIP3   OH235572   2.239   4.943   1.625 -0.1799 -0.0145 -0.0178
 4646TIP3    H135573   2.152   4.936   1.663  0.4256  0.6849  1.5933
 4646TIP3    H235574   2.243   5.031   1.589 -0.6990 -0.6243 -1.6801
 4647TIP3   OH235575   4.687   4.610   8.489  0.2997 -0.0406 -0.3393
 4647TIP3    H135576   4.771   4.614   8.445 -0.6103 -0.7088 -2.2165
 4647TIP3    H235577   4.635   4.548   8.438 -0.3181 -2.1599  2.5854
 4648TIP3   OH235578   6.784   5.598   7.232 -0.9123 -0.2846  0.1417
 4648TIP3    H135579   6.762   5.584   7.325 -0.3361 -0.1176  0.3035
 4648TIP3    H235580   6.800   5.510   7.198 -1.1613 -0.3500  0.1861
 4649TIP3   OH235581   1.084   3.711   0.985 -0.2588  0.2840 -0.0227
 4649TIP3    H135582   1.074   3.756   1.069 -0.3464 -3.2875  2.0868
 4649TIP3    H235583   1.013   3.647   0.984  1.0297 -1.2172 -1.7968
 4650TIP3   OH235584   3.466   1.466   8.522 -0.0828  0.1254 -0.0515
 4650TIP3    H135585   3.432   1.536   8.467 -0.5614 -0.0810 -0.0257
 4650TIP3    H235586   3.535   1.507   8.573 -0.7978  0.7548  0.4402
 4651TIP3   OH235587   2.607   2.718   6.985  0.1793  0.5451 -0.2607
 4651TIP3    H135588   2.622   2.796   7.038 -0.9281 -0.4339  1.5672
 4651TIP3    H235589   2.574   2.653   7.046 -0.7229 -0.7880 -2.0777
 4652TIP3   OH235590   3.462   3.352   6.581 -0.4285 -0.0290  0.0301
 4652TIP3    H135591   3.554   3.328   6.571 -0.5831 -0.4496 -0.3790
 4652TIP3    H235592   3.445   3.415   6.510 -0.6953 -0.6484 -0.4655
 4653TIP3   OH235593   6.032   4.554   7.087  0.0766 -0.0394 -0.0051
 4653TIP3    H135594   6.086   4.619   7.044 -0.7847  1.8999  1.6930
 4653TIP3    H235595   6.081   4.528   7.165  0.3753 -1.4183 -0.6172
 4654TIP3   OH235596   4.214   3.197   1.009 -0.1208 -0.4997 -0.5163
 4654TIP3    H135597   4.263   3.145   0.946  0.4603 -1.1529  0.4504
 4654TIP3    H235598   4.124   3.164   1.003 -0.0050 -0.7678 -0.7760
 4655TIP3   OH235599   5.697   6.211   0.139 -0.3414 -0.5903  0.0634
 4655TIP3    H135600   5.780   6.256   0.126 -1.1030  1.2203  1.0987
 4655TIP3    H235601   5.639   6.246   0.072 -0.6758 -0.7575  0.2600
 4656TIP3   OH235602   3.065   6.685   2.143  0.0445  0.1114 -0.2399
 4656TIP3    H135603   3.007   6.733   2.202  1.8024  2.2363 -0.0842
 4656TIP3    H235604   3.111   6.623   2.200 -1.6609 -1.2722 -0.2929
 4657TIP3   OH235605   0.051   6.293   7.545 -0.1825 -0.5403  0.0283
 4657TIP3    H135606   0.135   6.339   7.544 -0.5007  0.0417 -0.8532
 4657TIP3    H235607   0.004   6.327   7.469 -1.3815 -0.5576  0.7390
 4658TIP3   OH235608   1.917   0.773   7.327 -0.2083 -0.2350 -0.1603
 4658TIP3    H135609   1.957   0.844   7.277 -1.4545  0.5988  0.0132
 4658TIP3    H235610   1.858   0.730   7.265 -0.8274  0.0260  0.2458
 4659TIP3   OH235611   1.368   6.034   8.159  0.8770 -0.3434  0.1767
 4659TIP3    H135612   1.426   6.108   8.179  1.6479 -0.8637 -0.1205
 4659TIP3    H235613   1.426   5.964   8.131  0.2635 -1.4650  1.5738
 4660TIP3   OH235614   4.002   5.216   8.565 -0.2848  0.0555  0.1426
 4660TIP3    H135615   3.945   5.292   8.558 -0.2853  0.0386 -0.0314
 4660TIP3    H235616   4.086   5.245   8.531 -0.0079  0.2718  0.9991
 4661TIP3   OH235617   0.688   2.449   0.354 -0.0350 -0.4764 -0.0825
 4661TIP3    H135618   0.747   2.518   0.385  0.9015 -1.3179  0.0726
 4661TIP3    H235619   0.648   2.415   0.434 -2.2958  1.3790 -0.3044
 4662TIP3   OH235620   2.756   4.397   0.757  0.3281 -0.2270 -0.2537
 4662TIP3    H135621   2.749   4.473   0.700  1.8138  1.6935  1.9477
 4662TIP3    H235622   2.666   4.365   0.766 -0.2569  0.9152 -1.6517
 4663TIP3   OH235623   6.240   0.477   6.998 -0.2831 -0.0040  0.1801
 4663TIP3    H135624   6.162   0.507   7.046 -0.1356 -0.2159  0.5649
 4663TIP3    H235625   6.228   0.382   6.992 -0.2687  0.0157 -0.1518
 4664TIP3   OH235626   3.472   6.115   1.181 -0.0441  0.2203 -0.8109
 4664TIP3    H135627   3.387   6.071   1.173  0.9784 -1.7621 -1.3707
 4664TIP3    H235628   3.532   6.046   1.208  1.0235  2.0371  1.9581
 4665TIP3   OH235629   0.742   4.580   2.301  0.3497  0.3942  0.6219
 4665TIP3    H135630   0.816   4.627   2.341 -0.1377  0.8840  0.9676
 4665TIP3    H235631   0.691   4.549   2.375  0.6277 -0.6343  0.3893
 4666TIP3   OH235632   6.751   4.967   8.578 -0.3219  0.2645  0.0519
 4666TIP3    H135633   6.703   4.894   8.538 -0.3828  0.3700 -0.0672
 4666TIP3    H235634   6.838   4.963   8.538 -0.3122  0.2327  0.0758
 4667TIP3   OH235635   5.944   0.490   0.843  0.7861 -0.0933 -0.3974
 4667TIP3    H135636   5.930   0.450   0.757 -2.6323 -0.6783  0.2943
 4667TIP3    H235637   6.005   0.431   0.887  0.8204 -1.0280 -1.6314
 4668TIP3   OH235638   1.226   0.579   2.004 -0.1736 -0.6686  0.0210
 4668TIP3    H135639   1.276   0.661   2.006  0.8297 -1.2073  3.5827
 4668TIP3    H235640   1.292   0.511   2.016 -1.3899 -1.5982  1.9454
 4669TIP3   OH235641   1.561   3.401   6.640  0.1916  0.1577 -0.4505
 4669TIP3    H135642   1.584   3.473   6.582  2.0148 -0.7472 -0.9205
 4669TIP3    H235643   1.552   3.325   6.583 -2.2675  0.0596 -0.0313
 4670TIP3   OH235644   4.262   1.166   1.867  0.1028 -0.5018  0.3837
 4670TIP3    H135645   4.208   1.130   1.797 -0.6844  0.8441  0.2499
 4670TIP3    H235646   4.349   1.174   1.828  0.0602 -1.2915  0.1078
 4671TIP3   OH235647   1.193   5.785   1.667 -0.0202  0.4262  0.3073
 4671TIP3    H135648   1.204   5.875   1.638 -2.9098  0.2768 -1.5995
 4671TIP3    H235649   1.139   5.744   1.600 -1.8574 -1.7215  2.8778
 4672TIP3   OH235650   4.957   3.806   1.276 -0.4624 -0.2603 -0.1922
 4672TIP3    H135651   4.936   3.760   1.357  0.5091 -0.2325  0.0881
 4672TIP3    H235652   5.026   3.866   1.300 -1.0500  0.6719 -0.7730
 4673TIP3   OH235653   4.450   3.094   8.157  0.4435  0.2019 -0.4889
 4673TIP3    H135654   4.459   3.080   8.063 -0.5764 -0.0347 -0.5632
 4673TIP3    H235655   4.369   3.048   8.180  1.8520 -1.7311  0.9077
 4674TIP3   OH235656   1.118   1.666   7.397  0.2108  0.4130  0.9048
 4674TIP3    H135657   1.063   1.738   7.366 -0.5686 -0.7351 -0.5177
 4674TIP3    H235658   1.061   1.615   7.455  0.4287  0.3369  1.0551
 4675TIP3   OH235659   0.475   0.895   7.523 -0.2754  0.4710  0.8233
 4675TIP3    H135660   0.394   0.859   7.487  0.1631 -0.4757  0.7522
 4675TIP3    H235661   0.544   0.863   7.465  0.1845  0.9970  1.0699
 4676TIP3   OH235662   0.103   0.837   8.208  0.1470 -0.0259  0.4362
 4676TIP3    H135663   0.056   0.754   8.207  0.8359 -0.5004 -2.6145
 4676TIP3    H235664   0.042   0.901   8.171  0.0774  0.5935  1.5595
 4677TIP3   OH235665   1.094   5.609   7.645  0.2043  0.3333  0.0067
 4677TIP3    H135666   1.118   5.570   7.729  0.0948 -0.3741 -0.2783
 4677TIP3    H235667   1.169   5.662   7.620 -0.9501  3.1821  2.0522
 4678TIP3   OH235668   2.801   3.467   1.681  0.0225  0.3810  0.0174
 4678TIP3    H135669   2.729   3.500   1.628 -0.4808 -0.5120  0.1299
 4678TIP3    H235670   2.764   3.454   1.768 -0.0268 -1.1945 -0.2018
 4679TIP3   OH235671   6.191   5.408   7.513  0.4641 -0.4070  0.3407
 4679TIP3    H135672   6.175   5.351   7.438 -1.2433 -1.2098  1.2793
 4679TIP3    H235673   6.119   5.471   7.511 -1.1856 -2.0489  2.7557
 4680TIP3   OH235674   0.771   2.749   1.370 -1.0470  0.0717 -0.2921
 4680TIP3    H135675   0.856   2.735   1.413 -1.7194 -1.3299  0.6463
 4680TIP3    H235676   0.791   2.743   1.277 -0.2494 -1.2391 -0.0683
 4681TIP3   OH235677   6.781   6.190   1.576 -0.3446  0.7019 -0.4483
 4681TIP3    H135678   6.793   6.285   1.585 -0.8194  0.6480  1.2080
 4681TIP3    H235679   6.697   6.181   1.533  0.1696  1.0277 -1.5450
 4682TIP3   OH235680   2.427   5.840   0.106 -0.3216  0.4428 -0.9306
 4682TIP3    H135681   2.366   5.883   0.166 -0.1455 -0.8033  0.1746
 4682TIP3    H235682   2.489   5.909   0.082  0.3317  0.7127  1.2949
 4683TIP3   OH235683   2.551   2.615   0.014  0.0216  0.6556 -0.0952
 4683TIP3    H135684   2.526   2.639  -0.075  1.4029 -0.3241 -0.7768
 4683TIP3    H235685   2.646   2.610   0.012 -0.0090 -1.3443  0.8907
 4684TIP3   OH235686   4.821   4.435   6.914  0.2281  0.2984  0.3828
 4684TIP3    H135687   4.752   4.481   6.963  0.3410  0.2664  0.5718
 4684TIP3    H235688   4.857   4.373   6.976  0.4466  0.3325  0.2902
 4685TIP3   OH235689   1.036   0.527   0.643  0.1452  0.4336  0.1622
 4685TIP3    H135690   1.004   0.502   0.556  0.4562  0.9080 -0.0917
 4685TIP3    H235691   1.041   0.623   0.640  0.5109  0.4304  0.5783
 4686TIP3   OH235692   4.221   5.506   6.866 -0.3081 -0.2025  0.5899
 4686TIP3    H135693   4.163   5.570   6.824 -2.2601 -1.1250  1.7166
 4686TIP3    H235694   4.300   5.507   6.813 -1.7194  0.4239 -1.6520
 4687TIP3   OH235695   0.493   6.643   8.089  0.2118 -0.8730  0.0651
 4687TIP3    H135696   0.515   6.645   8.183 -0.6617 -0.6926  0.2766
 4687TIP3    H235697   0.433   6.716   8.077  0.7417 -0.5686 -0.7570
 4688TIP3   OH235698   0.262   5.952   7.614  0.9075  0.2235 -0.4064
 4688TIP3    H135699   0.306   6.028   7.574  2.3810 -2.0208 -3.5136
 4688TIP3    H235700   0.174   5.953   7.575  0.6895  0.6403  0.0747
 4689TIP3   OH235701   0.580   0.757   1.860  0.2123 -0.3114 -0.1834
 4689TIP3    H135702   0.645   0.815   1.899 -0.5846 -0.6414  1.7507
 4689TIP3    H235703   0.505   0.814   1.842 -0.6354 -0.6991  1.8770
 4690TIP3   OH235704   5.333   6.471   7.924  0.3467  0.0397  0.1980
 4690TIP3    H135705   5.268   6.406   7.950  0.4381 -0.1122  0.0452
 4690TIP3    H235706   5.338   6.463   7.829  0.3840  0.2457  0.1832
 4691TIP3   OH235707   0.296   5.655   8.774 -0.9913  0.2560 -0.1922
 4691TIP3    H135708   0.354   5.580   8.786 -0.9492  0.0824 -1.3586
 4691TIP3    H235709   0.256   5.641   8.688 -0.5002  1.8862 -0.7220
 4692TIP3   OH235710   3.614   1.339   7.052  0.0249 -0.0115 -0.1012
 4692TIP3    H135711   3.657   1.370   6.973 -0.7346  3.8009  0.7980
 4692TIP3    H235712   3.675   1.361   7.123 -0.1463 -1.5886  0.5819
 4693TIP3   OH235713   4.716   5.186   7.156  0.3087  0.1077  0.7476
 4693TIP3    H135714   4.734   5.280   7.162  1.1129 -0.1072  1.8876
 4693TIP3    H235715   4.671   5.177   7.072 -0.8293  1.6672  1.1318
 4694TIP3   OH235716   3.436   6.254   6.230  0.0603  0.6013  0.1009
 4694TIP3    H135717   3.388   6.170   6.230 -0.1655  0.6923  2.1781
 4694TIP3    H235718   3.452   6.271   6.137 -0.1875 -1.5711 -0.4093
 4695TIP3   OH235719   6.193   4.850   1.520  0.6771  0.0282  0.8730
 4695TIP3    H135720   6.173   4.830   1.611 -1.1976  1.0035  0.7146
 4695TIP3    H235721   6.196   4.765   1.476  1.9153 -0.4702  1.8732
 4696TIP3   OH235722   2.337   5.026   0.723 -0.3061 -0.2781  0.1580
 4696TIP3    H135723   2.427   5.038   0.693 -0.5923 -2.0944 -1.6607
 4696TIP3    H235724   2.299   5.114   0.719  0.5682  0.0782 -2.0417
 4697TIP3   OH235725   1.859   4.117   0.704  0.0550 -0.3582 -0.3804
 4697TIP3    H135726   1.912   4.119   0.624  0.4721 -1.0843 -0.1250
 4697TIP3    H235727   1.791   4.052   0.686 -2.5172  2.4367 -1.7791
 4698TIP3   OH235728   5.629   3.417   1.754  0.2357  0.0971  0.2824
 4698TIP3    H135729   5.538   3.412   1.726 -0.3209  0.8142  1.8592
 4698TIP3    H235730   5.667   3.334   1.727 -1.6241 -1.4308  2.0181
 4699TIP3   OH235731   1.278   5.730   6.956 -0.3239 -0.1890  0.4882
 4699TIP3    H135732   1.218   5.695   6.890  0.1267 -1.3768  0.6829
 4699TIP3    H235733   1.224   5.785   7.012 -1.4448 -1.9134  1.1803
 4700TIP3   OH235734   4.411   5.570   7.533 -0.1356  0.6356 -0.2867
 4700TIP3    H135735   4.474   5.510   7.492  1.1744  1.2283  0.7855
 4700TIP3    H235736   4.453   5.656   7.527 -0.4732  0.9211  1.1438
 4701TIP3   OH235737   0.391   1.154   2.542  0.4033  0.3918  0.2262
 4701TIP3    H135738   0.402   1.237   2.497 -1.1939  0.1516 -0.6864
 4701TIP3    H235739   0.480   1.124   2.560  1.1615  0.4431 -2.9045
 4702TIP3   OH235740   3.568   1.829   8.566 -0.0312  0.4220  0.2341
 4702TIP3    H135741   3.578   1.834   8.471  2.1140  0.4567  0.4201
 4702TIP3    H235742   3.576   1.920   8.596 -0.6397  0.4046  0.4675
 4703TIP3   OH235743   6.413   3.020   8.628  0.0634  0.1122 -0.1171
 4703TIP3    H135744   6.496   3.052   8.594  0.6247 -2.5808 -1.5348
 4703TIP3    H235745   6.353   3.024   8.553 -0.5552  0.2226  0.3707
 4704TIP3   OH235746   1.199   4.570   1.189  0.0325  0.5483 -0.2494
 4704TIP3    H135747   1.195   4.541   1.098 -1.3341  1.0351 -0.3561
 4704TIP3    H235748   1.200   4.665   1.184 -0.9257  0.5976  0.2556
 4705TIP3   OH235749   5.214   5.114   6.745 -1.0540  0.5176  1.1523
 4705TIP3    H135750   5.188   5.021   6.738  1.7005 -0.3119  0.8885
 4705TIP3    H235751   5.137   5.162   6.714 -1.7862 -1.7650 -0.9005
 4706TIP3   OH235752   5.116   6.676   7.652  0.0686 -0.6412 -0.0701
 4706TIP3    H135753   5.174   6.709   7.584  1.0909 -2.6368 -0.2444
 4706TIP3    H235754   5.154   6.709   7.734  0.6172 -0.7471 -0.2753
 4707TIP3   OH235755   3.436   5.783   7.776  0.0542 -0.0120  0.0113
 4707TIP3    H135756   3.357   5.837   7.773  0.0804  0.0926  0.9305
 4707TIP3    H235757   3.450   5.766   7.869  2.1275  1.4539  0.0523
 4708TIP3   OH235758   6.137   6.126   7.145 -0.7006  0.1119 -0.1270
 4708TIP3    H135759   6.144   6.114   7.050  1.9201  0.5016 -0.0450
 4708TIP3    H235760   6.108   6.041   7.178 -2.0974  0.1053 -1.2847
 4709TIP3   OH235761   0.541   1.459   7.035 -0.0066  0.6490 -0.3920
 4709TIP3    H135762   0.529   1.461   7.130 -0.5669  2.2577 -0.4765
 4709TIP3    H235763   0.578   1.544   7.013 -0.7664  0.6616 -1.7272
 4710TIP3   OH235764   5.561   1.472   8.429  0.4518 -0.2355 -0.2000
 4710TIP3    H135765   5.647   1.448   8.463  0.6484  0.2424 -0.3385
 4710TIP3    H235766   5.499   1.419   8.478  0.9518 -2.3138 -1.6735
 4711TIP3   OH235767   5.267   4.234   8.304  0.1382 -0.1191  0.2642
 4711TIP3    H135768   5.213   4.253   8.381  0.7556  3.4262 -0.0212
 4711TIP3    H235769   5.206   4.242   8.230  0.7221  2.9338  0.0127
 4712TIP3   OH235770   1.630   0.827   7.226 -0.7861  0.3919 -0.1285
 4712TIP3    H135771   1.612   0.833   7.320 -1.5630  2.5199 -0.3498
 4712TIP3    H235772   1.670   0.741   7.214 -0.6003  0.1089  2.1528
 4713TIP3   OH235773   2.572   1.232   8.303  0.5685 -0.0162 -0.5171
 4713TIP3    H135774   2.504   1.165   8.301  2.0535 -1.6021 -2.9912
 4713TIP3    H235775   2.527   1.313   8.281 -1.2878 -0.0531  2.5791
 4714TIP3   OH235776   6.445   3.768   7.706 -0.1913  0.0899 -0.1669
 4714TIP3    H135777   6.403   3.837   7.756 -0.0961  0.9185 -1.1831
 4714TIP3    H235778   6.459   3.806   7.619  0.1371 -1.1042 -0.6681
 4715TIP3   OH235779   3.991   2.663   6.285  0.3514  0.4750 -0.3009
 4715TIP3    H135780   4.021   2.624   6.367  1.2830 -0.4791 -1.0687
 4715TIP3    H235781   4.066   2.713   6.253  0.0578  0.6813 -0.6702
 4716TIP3   OH235782   6.110   0.739   1.367 -0.2389 -0.5097  0.6914
 4716TIP3    H135783   6.043   0.674   1.389 -2.1690  1.1243 -0.0179
 4716TIP3    H235784   6.193   0.693   1.379 -1.4696 -2.6601  1.5405
 4717TIP3   OH235785   0.104   6.415   1.349 -0.3307  0.7236  0.2059
 4717TIP3    H135786   0.051   6.391   1.273  1.4179 -2.6727 -0.0981
 4717TIP3    H235787   0.180   6.461   1.312  0.0070 -0.0010 -0.0079
 4718TIP3   OH235788   5.730   4.161   8.216  0.0470  0.3694 -0.2579
 4718TIP3    H135789   5.781   4.107   8.277 -0.4827 -0.3683 -0.4622
 4718TIP3    H235790   5.666   4.206   8.271 -1.5207 -1.5433 -0.4230
 4719TIP3   OH235791   0.197   2.769   0.077  0.0684  0.7170 -0.0660
 4719TIP3    H135792   0.266   2.818   0.032 -0.4748 -1.7317 -4.0313
 4719TIP3    H235793   0.116   2.812   0.050 -0.2143 -0.0918 -0.5392
 4720TIP3   OH235794   2.258   0.068   1.833 -0.5440  0.2324 -0.0644
 4720TIP3    H135795   2.200  -0.003   1.861 -0.0065  0.2416  1.1568
 4720TIP3    H235796   2.284   0.044   1.744 -1.6644 -0.2450 -0.2824
 4721TIP3   OH235797   3.468   3.310   1.135 -0.0177 -0.0341 -0.1217
 4721TIP3    H135798   3.519   3.301   1.055  0.1317 -0.8334  0.0505
 4721TIP3    H235799   3.424   3.225   1.145 -1.9851  0.8491 -0.6575
 4722TIP3   OH235800   3.859   3.767   6.691 -0.4203 -0.5432 -0.5399
 4722TIP3    H135801   3.947   3.804   6.686 -0.6065  0.0460  0.3447
 4722TIP3    H235802   3.818   3.791   6.608  0.3098 -0.9873 -1.0388
 4723TIP3   OH235803   1.489   2.864   7.633 -0.2503  0.1879 -0.1150
 4723TIP3    H135804   1.570   2.897   7.594 -0.8144  0.5547 -1.0081
 4723TIP3    H235805   1.517   2.823   7.715  0.9662 -0.5905 -0.8952
 4724TIP3   OH235806   4.987   3.767   7.282  0.3757  0.5219  0.2594
 4724TIP3    H135807   5.011   3.845   7.232 -0.8280  0.8081  0.1045
 4724TIP3    H235808   4.914   3.795   7.337  0.9427 -0.0941  1.3482
 4725TIP3   OH235809   3.487   4.307   8.068 -0.2659 -0.3400  0.4945
 4725TIP3    H135810   3.478   4.342   8.157 -0.8960 -0.4046  0.4653
 4725TIP3    H235811   3.570   4.259   8.069  0.1403  0.3556  0.8039
 4726TIP3   OH235812   0.927   3.712   8.684  0.1090 -0.1649 -0.2614
 4726TIP3    H135813   0.837   3.718   8.718  0.2214  1.0090 -0.1327
 4726TIP3    H235814   0.918   3.724   8.589  0.0091 -1.3800 -0.4228
 4727TIP3   OH235815   3.903   0.639   1.565 -0.4413 -0.0770  0.3335
 4727TIP3    H135816   3.854   0.616   1.644  0.0341 -2.9924 -0.1216
 4727TIP3    H235817   3.857   0.595   1.494 -0.3778  1.8154 -0.9673
 4728TIP3   OH235818   2.788   6.113   7.459 -0.5290  0.8275  0.5237
 4728TIP3    H135819   2.717   6.067   7.504 -1.0433  0.8292 -0.2772
 4728TIP3    H235820   2.856   6.046   7.449 -0.4661  0.7877  1.1648
 4729TIP3   OH235821   6.211   3.889   8.315  0.4201 -0.0263  0.0123
 4729TIP3    H135822   6.196   3.807   8.363 -1.7127  0.1456 -0.2369
 4729TIP3    H235823   6.196   3.958   8.380  2.1244  0.2061  0.1978
 4730TIP3   OH235824   0.959   0.683   0.092  0.6682  0.1309 -0.2732
 4730TIP3    H135825   0.898   0.713   0.159 -0.4024 -1.8238 -0.2796
 4730TIP3    H235826   1.045   0.684   0.135  0.1159 -0.3237  0.8949
 4731TIP3   OH235827   0.940   5.839   6.715 -0.2231  0.3107 -0.1486
 4731TIP3    H135828   0.862   5.816   6.664 -0.7995  0.3603  0.6936
 4731TIP3    H235829   1.003   5.869   6.649 -1.1702  0.9875 -0.7750
 4732TIP3   OH235830   0.207   2.420   2.028  0.3833 -0.1085  0.0953
 4732TIP3    H135831   0.116   2.402   2.007  0.4644 -0.6960  0.2417
 4732TIP3    H235832   0.253   2.338   2.010  0.4380 -0.7528  2.7685
 4733TIP3   OH235833   4.133   4.587   7.312  0.0524  0.5967  0.0665
 4733TIP3    H135834   4.121   4.621   7.401 -1.1951 -1.0769  0.6021
 4733TIP3    H235835   4.056   4.532   7.298  1.2432 -0.7943 -1.2730
 4734TIP3   OH235836   5.805   4.797   7.050  0.5515 -0.3484 -0.4076
 4734TIP3    H135837   5.900   4.788   7.065  0.7344 -0.8058 -1.6677
 4734TIP3    H235838   5.777   4.709   7.025  0.0760  0.0675 -1.4097
 4735TIP3   OH235839   2.194   2.202   6.625  0.3436  0.2588 -0.1597
 4735TIP3    H135840   2.206   2.109   6.642 -0.9539  0.4199  1.8962
 4735TIP3    H235841   2.102   2.219   6.646  0.9818  2.3298  1.2244
 4736TIP3   OH235842   2.229   0.293   7.952 -0.2015  0.6022 -0.1198
 4736TIP3    H135843   2.274   0.324   8.030  3.7569 -0.6163 -1.6470
 4736TIP3    H235844   2.212   0.201   7.968 -1.2338  0.8035  0.0148
 4737TIP3   OH235845   2.485   5.189   1.810  0.2590 -0.1909 -0.0128
 4737TIP3    H135846   2.479   5.165   1.717  0.2363  2.3536 -0.7489
 4737TIP3    H235847   2.394   5.204   1.836  0.0979 -2.4109  0.9475
 4738TIP3   OH235848   6.612   2.387   2.029  1.1075 -0.4879  0.6582
 4738TIP3    H135849   6.591   2.391   2.122  1.2950 -0.3443  0.6960
 4738TIP3    H235850   6.531   2.412   1.984  1.1607 -0.0597  0.7974
 4739TIP3   OH235851   4.841   2.925   7.436 -0.3189 -0.0526  0.0342
 4739TIP3    H135852   4.772   2.991   7.430  1.4438  1.8107 -1.0612
 4739TIP3    H235853   4.820   2.876   7.516 -0.2455  3.6862  2.6063
 4740TIP3   OH235854   2.565   2.101   7.692 -0.6884 -0.6318 -0.4156
 4740TIP3    H135855   2.482   2.059   7.671 -0.2707 -1.3365 -0.6861
 4740TIP3    H235856   2.603   2.123   7.607  0.1460 -1.7959 -0.3614
 4741TIP3   OH235857   2.184   2.466   6.813 -0.4363 -0.0505 -0.2765
 4741TIP3    H135858   2.210   2.379   6.842 -0.4015  0.3528  0.9989
 4741TIP3    H235859   2.108   2.452   6.756 -0.0863 -0.9392 -0.5328
 4742TIP3   OH235860   6.381   4.024   0.723 -0.0598 -0.4337  0.2857
 4742TIP3    H135861   6.431   4.096   0.684  1.0062 -0.5258  1.4281
 4742TIP3    H235862   6.318   4.067   0.780  1.0511 -0.3860  1.5233
 4743TIP3   OH235863   1.078   2.720   7.246  0.0865  0.1585  0.1692
 4743TIP3    H135864   1.167   2.687   7.241 -0.1372 -0.6078  0.9118
 4743TIP3    H235865   1.024   2.647   7.216 -0.1965  1.4169 -2.7283
 4744TIP3   OH235866   2.532   0.273   7.437  0.2936 -0.6282  0.1374
 4744TIP3    H135867   2.502   0.183   7.425  0.6138 -0.8825  1.1180
 4744TIP3    H235868   2.626   0.265   7.455  0.2369 -0.1494  0.6983
 4745TIP3   OH235869   4.516   1.316   7.718 -0.2515 -0.0479  0.0616
 4745TIP3    H135870   4.425   1.343   7.705 -0.0467  0.2510 -0.8177
 4745TIP3    H235871   4.518   1.223   7.696  0.0910  0.4477 -2.2279
 4746TIP3   OH235872   6.490   5.688   0.001  0.1002  0.2211 -0.3949
 4746TIP3    H135873   6.477   5.740   0.080 -4.9766 -0.6449 -0.3358
 4746TIP3    H235874   6.463   5.746  -0.070  0.0940 -0.5164 -1.0009
 4747TIP3   OH235875   1.360   1.118   1.392  0.1429 -0.6557  0.5678
 4747TIP3    H135876   1.276   1.130   1.436  0.9235  1.8165  1.5691
 4747TIP3    H235877   1.395   1.207   1.384  2.2449 -1.5301 -0.6980
 4748TIP3   OH235878   4.085   4.669   6.515  0.6174 -0.4628 -0.0119
 4748TIP3    H135879   4.054   4.758   6.501 -0.8771 -1.1845 -1.7532
 4748TIP3    H235880   4.174   4.669   6.478  0.7123  0.3598  0.2067
 4749TIP3   OH235881   2.123   5.652   2.404 -0.1797  0.2960  0.2198
 4749TIP3    H135882   2.129   5.727   2.464 -3.0333 -1.4158  2.9551
 4749TIP3    H235883   2.201   5.600   2.423 -0.4497  0.3740  1.6450
 4750TIP3   OH235884   5.062   3.016   2.469  0.5946  0.0312  0.2696
 4750TIP3    H135885   5.020   3.062   2.542 -0.4013 -0.2151 -0.1304
 4750TIP3    H235886   5.111   2.944   2.511  1.4235  0.8956  0.8212
 4751TIP3   OH235887   3.128   1.862   1.836 -0.3336 -0.0544  0.1370
 4751TIP3    H135888   3.218   1.830   1.846 -0.5947 -0.7666  0.3208
 4751TIP3    H235889   3.123   1.895   1.746  0.5883  1.5921  0.6598
 4752TIP3   OH235890   4.451   2.899   6.608  0.0559 -0.7461 -0.4236
 4752TIP3    H135891   4.449   2.978   6.662  0.3328 -0.5568 -0.6847
 4752TIP3    H235892   4.402   2.834   6.659  0.9935 -0.8101  0.4369
 4753TIP3   OH235893   0.952   2.428   8.688  0.1697  0.3666 -0.2087
 4753TIP3    H135894   1.026   2.471   8.731  0.6619  0.6814 -1.3401
 4753TIP3    H235895   0.892   2.406   8.760  0.8338  1.1330  0.6020
 4754TIP3   OH235896   5.443   1.160   0.786 -0.0767 -0.1312 -0.0385
 4754TIP3    H135897   5.498   1.108   0.846 -0.8174  0.5522  1.2810
 4754TIP3    H235898   5.488   1.244   0.779 -0.8763  0.3939  0.9649
 4755TIP3   OH235899   0.854   4.743   2.030  0.4608 -0.5320 -0.3309
 4755TIP3    H135900   0.940   4.704   2.050 -0.4065 -3.0095 -1.0742
 4755TIP3    H235901   0.846   4.734   1.935 -0.2430  0.5585 -0.3855
 4756TIP3   OH235902   4.226   6.737   6.511 -0.2991 -0.4295  0.2567
 4756TIP3    H135903   4.290   6.666   6.504  0.2584  0.1686 -1.0427
 4756TIP3    H235904   4.208   6.762   6.420  0.8694  2.2835  0.6879
 4757TIP3   OH235905   0.348   1.907   7.670 -0.2265 -0.1735  0.1275
 4757TIP3    H135906   0.354   1.816   7.701 -0.8056 -0.1407  0.3388
 4757TIP3    H235907   0.322   1.957   7.747 -0.8292  0.0334 -0.2049
 4758TIP3   OH235908   6.714   1.502   0.801  0.3468  0.0512  0.2113
 4758TIP3    H135909   6.765   1.469   0.727 -0.5202  1.2462 -0.9604
 4758TIP3    H235910   6.665   1.576   0.766  0.8391  1.4700  2.2737
 4759TIP3   OH235911   6.086   1.529   0.771 -0.6919  0.0188  0.7091
 4759TIP3    H135912   6.125   1.503   0.854  2.3055  1.9473  0.0438
 4759TIP3    H235913   6.146   1.498   0.704 -1.0457  1.7355 -0.4946
 4760TIP3   OH235914   5.486   6.411   0.663  0.2677  0.1055 -0.5159
 4760TIP3    H135915   5.485   6.409   0.759  1.2957 -0.4766 -0.4962
 4760TIP3    H235916   5.574   6.441   0.641  0.5563 -1.2236 -1.2662
 4761TIP3   OH235917   1.178   4.612   7.346 -0.3392 -0.2356  0.4976
 4761TIP3    H135918   1.206   4.690   7.298  0.4329 -1.5338 -1.3032
 4761TIP3    H235919   1.088   4.629   7.371 -0.1025  1.3127  0.3497
 4762TIP3   OH235920   3.533   3.927   1.133  0.5468  0.2947  0.1160
 4762TIP3    H135921   3.543   3.851   1.076  0.5924  0.7924 -0.5530
 4762TIP3    H235922   3.447   3.963   1.112 -0.6799 -1.1187  2.3692
 4763TIP3   OH235923   5.255   2.579   7.136  0.1908 -0.2275 -0.2530
 4763TIP3    H135924   5.195   2.506   7.122 -0.6836  0.7422 -1.8384
 4763TIP3    H235925   5.335   2.553   7.090  0.5382 -0.9347  0.7161
 4764TIP3   OH235926   0.768   3.520   1.129  0.9103  0.0752 -0.6237
 4764TIP3    H135927   0.720   3.445   1.094  0.9575  0.4927 -1.6182
 4764TIP3    H235928   0.860   3.503   1.107  0.8221  0.8258 -1.6466
 4765TIP3   OH235929   0.201   5.454   0.697 -0.1491 -0.5183  0.2613
 4765TIP3    H135930   0.185   5.539   0.656  0.6295  0.0946  1.1720
 4765TIP3    H235931   0.141   5.453   0.772 -2.5021 -2.1616 -1.4606
 4766TIP3   OH235932   4.362   2.732   7.687 -0.4243 -0.3861  0.3592
 4766TIP3    H135933   4.350   2.772   7.773  0.4699 -0.1549  0.3927
 4766TIP3    H235934   4.274   2.726   7.651 -0.7204  0.3802  0.9069
 4767TIP3   OH235935   3.342   2.759   8.465 -0.3437 -0.0278  0.3930
 4767TIP3    H135936   3.402   2.686   8.479  0.6656  0.4067 -1.3426
 4767TIP3    H235937   3.312   2.783   8.553  2.8737  0.4597  1.4754
 4768TIP3   OH235938   3.932   1.575   7.724 -0.1841 -0.3606  0.0371
 4768TIP3    H135939   3.879   1.652   7.706 -2.2402 -1.5321  0.6407
 4768TIP3    H235940   3.953   1.539   7.638  1.7581  1.3909 -0.3057
 4769TIP3   OH235941   4.871   3.815   6.448  0.1369  0.2413 -1.0110
 4769TIP3    H135942   4.798   3.829   6.508  0.0860 -1.7260 -0.5382
 4769TIP3    H235943   4.833   3.766   6.375  1.0024 -1.2029 -0.5506
 4770TIP3   OH235944   2.346   3.438   6.870  0.8126  0.1731 -0.4610
 4770TIP3    H135945   2.395   3.361   6.840 -1.2356 -2.0689  1.5756
 4770TIP3    H235946   2.366   3.444   6.964 -0.8514  0.7256 -0.1206
 4771TIP3   OH235947   1.117   3.547   7.315 -0.4465 -0.5010 -0.2380
 4771TIP3    H135948   1.088   3.634   7.340  0.2743  0.1577 -1.5857
 4771TIP3    H235949   1.161   3.513   7.392 -0.7558  0.3124  0.3075
 4772TIP3   OH235950   6.508   0.702   7.168  0.3200 -0.5121 -0.4496
 4772TIP3    H135951   6.440   0.728   7.106  0.0273 -0.3621 -0.0749
 4772TIP3    H235952   6.461   0.649   7.232  0.0417  1.5001  1.1321
 4773TIP3   OH235953   0.150   4.809   0.995 -0.7465 -0.3491 -0.3384
 4773TIP3    H135954   0.155   4.726   1.043 -0.0664 -0.6571 -0.9103
 4773TIP3    H235955   0.075   4.799   0.937 -1.6192  0.0545  0.6830
 4774TIP3   OH235956   1.078   2.689   2.051  0.6933  0.3950  0.1804
 4774TIP3    H135957   1.147   2.662   2.110  1.0831  0.7017 -0.1323
 4774TIP3    H235958   1.004   2.710   2.108 -0.5575 -3.7231  0.4143
 4775TIP3   OH235959   2.012   2.798   7.253  0.0249  0.3249 -0.0126
 4775TIP3    H135960   2.103   2.777   7.232 -0.0119  0.9736 -0.9057
 4775TIP3    H235961   1.975   2.716   7.286  0.6399 -0.2396 -0.6938
 4776TIP3   OH235962   5.848   1.888   0.370 -0.1730 -0.0379 -0.1266
 4776TIP3    H135963   5.770   1.840   0.341 -0.7581 -0.4462  1.9829
 4776TIP3    H235964   5.917   1.822   0.374 -0.0842  0.0244 -0.5764
 4777TIP3   OH235965   4.189   3.983   7.604 -0.6138 -0.2817 -0.2491
 4777TIP3    H135966   4.225   3.919   7.543 -2.2695 -1.1864 -0.3077
 4777TIP3    H235967   4.199   4.067   7.558 -0.3420 -0.7428 -1.0574
 4778TIP3   OH235968   1.197   1.337   1.739  0.0223  0.3657 -0.4092
 4778TIP3    H135969   1.105   1.341   1.765 -0.2677  2.7645 -1.5561
 4778TIP3    H235970   1.200   1.380   1.654  2.1455 -0.1623 -0.6625
 4779TIP3   OH235971   2.276   5.021   0.250  0.1381  0.3754 -0.7406
 4779TIP3    H135972   2.329   4.944   0.231  0.5699 -0.0659  1.8760
 4779TIP3    H235973   2.332   5.095   0.229  2.2231 -0.0725  2.4997
 4780TIP3   OH235974   1.465   6.686   2.496 -0.4922  0.0782  0.2232
 4780TIP3    H135975   1.389   6.628   2.493 -1.3472  1.1110  0.9600
 4780TIP3    H235976   1.525   6.643   2.557 -1.0332 -0.1510  0.6118
 4781TIP3   OH235977   5.669   2.382   0.071 -1.1512  0.3238  0.0268
 4781TIP3    H135978   5.637   2.337  -0.008 -0.5414  2.5430 -1.5813
 4781TIP3    H235979   5.747   2.333   0.097 -1.0653 -0.1429 -1.0708
 4782TIP3   OH235980   5.377   4.476   6.208  0.0735  0.1069 -0.2658
 4782TIP3    H135981   5.326   4.425   6.145  3.8347 -0.6744 -3.0150
 4782TIP3    H235982   5.395   4.414   6.280 -1.2900 -0.1138 -0.0835
 4783TIP3   OH235983   6.767   5.456   0.596 -0.1201  0.1558  0.4526
 4783TIP3    H135984   6.815   5.438   0.677 -0.5205  1.2419  0.9584
 4783TIP3    H235985   6.815   5.529   0.557  0.2801 -0.5953 -0.4858
 4784TIP3   OH235986   2.518   5.949   6.762 -0.1768  0.5740  0.3554
 4784TIP3    H135987   2.488   6.038   6.776 -0.6237  0.3567  0.8258
 4784TIP3    H235988   2.554   5.949   6.673 -0.2196  1.2044  0.3353
 4785TIP3   OH235989   4.941   3.803   7.878  0.4508  0.1097 -0.1597
 4785TIP3    H135990   5.002   3.792   7.951  2.4777  1.5888 -1.5179
 4785TIP3    H235991   4.943   3.719   7.833  0.9428 -0.0836  0.2116
 4786TIP3   OH235992   3.989   6.762   7.551  0.1524 -0.0796 -0.3215
 4786TIP3    H135993   4.042   6.727   7.622  0.0300  1.3408  0.5253
 4786TIP3    H235994   3.901   6.727   7.566 -0.2433  1.4258  1.2062
 4787TIP3   OH235995   3.754   3.596   1.258  0.4038 -0.9329  0.1604
 4787TIP3    H135996   3.770   3.689   1.248  1.0673 -0.8654  1.6346
 4787TIP3    H235997   3.660   3.589   1.277  0.6609 -0.3967  1.7454
 4788TIP3   OH235998   2.783   6.676   6.498 -0.0609 -0.4558 -0.4820
 4788TIP3    H135999   2.742   6.598   6.537 -0.2755 -0.5625 -0.9213
 4788TIP3    H236000   2.717   6.711   6.438 -0.5408  0.9129  0.7766
 4789TIP3   OH236001   5.873   0.887   6.749  0.3920  0.0563  0.8920
 4789TIP3    H136002   5.938   0.945   6.710 -0.5091  1.4986  1.4490
 4789TIP3    H236003   5.791   0.912   6.708 -0.2878  0.3739  2.3851
 4790TIP3   OH236004   5.447   2.586   1.011  0.0180 -0.1879  0.4876
 4790TIP3    H136005   5.539   2.609   1.001 -0.1683  0.3232 -0.0932
 4790TIP3    H236006   5.443   2.492   0.992  0.5076 -0.3427  1.1165
 4791TIP3   OH236007   2.155   1.761   8.013 -0.0174  0.8098  0.0478
 4791TIP3    H136008   2.065   1.790   8.002 -0.2799 -0.5192 -1.8559
 4791TIP3    H236009   2.208   1.840   7.997 -0.8010  1.3911  0.2763
 4792TIP3   OH236010   4.259   6.224   7.136 -0.0069  0.0888 -0.4471
 4792TIP3    H136011   4.344   6.181   7.135 -0.0133  0.0514  0.1641
 4792TIP3    H236012   4.195   6.153   7.140 -0.1178  0.0776 -1.8545
 4793TIP3   OH236013   6.748   4.554   0.576  0.4418  0.2959 -0.9535
 4793TIP3    H136014   6.714   4.511   0.498  1.4006 -1.5772 -0.3845
 4793TIP3    H236015   6.773   4.642   0.546  0.7323 -0.3616 -2.7356
 4794TIP3   OH236016   4.109   4.058   8.255  0.2572  0.0873  0.0133
 4794TIP3    H136017   4.062   4.124   8.203  1.1072 -0.3866 -1.4050
 4794TIP3    H236018   4.057   4.050   8.335 -0.9391  1.0642 -0.6211
 4795TIP3   OH236019   0.245   5.140   1.520  0.1184 -0.3986  0.1919
 4795TIP3    H136020   0.257   5.119   1.612 -0.1243 -1.9255 -0.0905
 4795TIP3    H236021   0.333   5.161   1.488  0.4210 -1.1891  0.4770
 4796TIP3   OH236022   2.831   2.455   7.903 -0.4153 -0.0252 -0.2117
 4796TIP3    H136023   2.777   2.533   7.914 -1.1935 -0.1943 -2.3611
 4796TIP3    H236024   2.772   2.382   7.917 -0.0318 -0.2277  0.3635
 4797TIP3   OH236025   2.854   2.308   7.249  0.1178  0.0330 -0.5317
 4797TIP3    H136026   2.847   2.334   7.341  0.7861 -0.1675 -0.4172
 4797TIP3    H236027   2.941   2.339   7.223  0.4241 -0.9850 -0.7507
 4798TIP3   OH236028   0.172   1.830   7.251 -0.1441 -0.1210 -0.0110
 4798TIP3    H136029   0.169   1.871   7.164  2.3318  0.7723  0.2474
 4798TIP3    H236030   0.261   1.797   7.259 -0.8894 -1.9559  1.4567
 4799TIP3   OH236031   4.369   4.522   1.508 -0.3950  0.2037 -0.1311
 4799TIP3    H136032   4.453   4.568   1.511  0.7630 -1.7997  1.9272
 4799TIP3    H236033   4.378   4.459   1.437  1.0778 -1.9352  1.8077
 4800TIP3   OH236034   0.317   4.742   1.717  0.1465 -0.6632 -0.3177
 4800TIP3    H136035   0.316   4.656   1.759 -0.0184 -0.4061  0.2262
 4800TIP3    H236036   0.265   4.731   1.637 -0.2279 -0.9697 -0.0383
 4801TIP3   OH236037   0.491   4.209   8.578 -0.0512  0.3028 -0.0415
 4801TIP3    H136038   0.429   4.135   8.575 -1.0836  1.1481 -0.1113
 4801TIP3    H236039   0.577   4.167   8.574 -0.6058 -0.8124 -3.0578
 4802TIP3   OH236040   5.660   3.700   0.150 -0.2003 -0.5314  0.1905
 4802TIP3    H136041   5.595   3.641   0.113  0.2469 -0.3456 -0.9328
 4802TIP3    H236042   5.613   3.783   0.162 -0.8030 -1.0556  1.6859
 4803TIP3   OH236043   4.457   3.882   0.313 -0.3539  0.1250  0.1871
 4803TIP3    H136044   4.489   3.902   0.401  0.5286 -0.9782  0.1461
 4803TIP3    H236045   4.434   3.789   0.316 -4.0535  0.9152  0.3143
 4804TIP3   OH236046   3.350   3.180   7.572  0.2898  0.4339  0.3220
 4804TIP3    H136047   3.266   3.192   7.616  0.3089  1.6222  0.0719
 4804TIP3    H236048   3.415   3.199   7.640  0.3430  0.1859  0.3391
 4805TIP3   OH236049   3.427   3.194   0.292 -0.3140 -0.3664 -0.1731
 4805TIP3    H136050   3.476   3.214   0.213 -0.5263 -3.2693 -1.1678
 4805TIP3    H236051   3.339   3.230   0.276 -0.1423 -0.2759 -0.9190
 4806TIP3   OH236052   0.216   6.187   0.158  0.6533 -0.2567  0.3123
 4806TIP3    H136053   0.301   6.147   0.142  0.3443 -0.4167 -1.0614
 4806TIP3    H236054   0.162   6.115   0.191  0.5941 -0.5835 -0.4587
 4807TIP3   OH236055   4.969   4.692   1.430 -0.4131 -0.4064 -0.3285
 4807TIP3    H136056   5.017   4.773   1.450 -1.1964 -0.4612  2.2055
 4807TIP3    H236057   5.015   4.625   1.481 -0.3049 -1.4055 -1.7134
 4808TIP3   OH236058   5.686   2.126   8.462 -0.3539 -0.3098  0.4206
 4808TIP3    H136059   5.726   2.094   8.380  1.0426  1.5824  0.2966
 4808TIP3    H236060   5.715   2.063   8.528 -4.2430 -3.9013 -0.8585
 4809TIP3   OH236061   2.207   3.695   6.069 -0.2111 -0.0937  0.0642
 4809TIP3    H136062   2.129   3.749   6.074 -0.0152  0.3221 -1.0801
 4809TIP3    H236063   2.204   3.640   6.147 -1.1111  0.6295  0.5453
 4810TIP3   OH236064   5.048   2.664   1.522 -0.4049  0.3218  0.1035
 4810TIP3    H136065   5.063   2.572   1.544 -0.2295  0.4413  0.4902
 4810TIP3    H236066   5.013   2.702   1.603 -1.3706  0.3862 -0.3326
 4811TIP3   OH236067   3.531   1.742   1.312 -0.1227  0.4285  0.1728
 4811TIP3    H136068   3.443   1.711   1.334 -0.1823 -1.0551 -1.8584
 4811TIP3    H236069   3.567   1.674   1.256  2.3039  1.0682  0.8281
 4812TIP3   OH236070   0.398   4.391   0.647  0.1061  0.2639  0.1219
 4812TIP3    H136071   0.362   4.387   0.559  0.8430 -0.6814 -0.1586
 4812TIP3    H236072   0.330   4.354   0.703  0.1839 -0.4325 -0.2399
 4813TIP3   OH236073   3.531   2.561   8.235  0.4681 -0.4234 -0.3328
 4813TIP3    H136074   3.442   2.545   8.203 -0.1731 -0.9395  1.5969
 4813TIP3    H236075   3.543   2.497   8.305  1.8213  0.6523  0.4565
 4814TIP3   OH236076   2.905   4.122   0.254  0.1845 -0.5030 -0.1735
 4814TIP3    H136077   2.826   4.082   0.217 -0.6577  1.9849 -1.2607
 4814TIP3    H236078   2.886   4.132   0.347 -1.2731  1.0072 -0.5893
 4815TIP3   OH236079   2.917   5.093   6.790 -0.1891  0.2322 -0.7626
 4815TIP3    H136080   2.960   5.106   6.705  0.1794  2.4285 -0.2758
 4815TIP3    H236081   2.876   5.177   6.810  0.0555 -0.1123  1.4290
 4816TIP3   OH236082   4.594   2.412   0.544  0.0572  0.0165 -0.0626
 4816TIP3    H136083   4.535   2.342   0.573  1.3727 -1.3889 -0.6169
 4816TIP3    H236084   4.670   2.404   0.602  0.8823 -0.0348 -1.1145
 4817TIP3   OH236085   6.051   1.996   0.643  0.1040  0.1542  0.6768
 4817TIP3    H136086   5.981   1.948   0.599  1.1874  0.5480 -1.6911
 4817TIP3    H236087   6.025   2.000   0.735 -1.2174 -2.7830  0.5377
 4818TIP3   OH236088   1.595   4.559   7.206  0.1400 -0.3672  0.3395
 4818TIP3    H136089   1.549   4.523   7.131 -0.3977  0.3711  0.3139
 4818TIP3    H236090   1.664   4.494   7.225  1.5675  0.3387 -1.9992
 4819TIP3   OH236091   6.265   4.754   7.218  0.0792  0.0248 -0.0907
 4819TIP3    H136092   6.295   4.710   7.139 -0.7752 -0.6509 -0.0496
 4819TIP3    H236093   6.306   4.841   7.214 -0.4134  0.2211 -1.5701
 4820TIP3   OH236094   4.626   1.417   1.123  0.2617  0.0206  0.1132
 4820TIP3    H136095   4.581   1.333   1.113  0.3364  0.0619 -0.6389
 4820TIP3    H236096   4.666   1.413   1.210  0.5437 -0.8536 -0.0506
 4821TIP3   OH236097   3.483   2.883   0.202 -0.3536 -0.0128 -0.1546
 4821TIP3    H136098   3.545   2.858   0.271 -0.9365 -0.0213  0.3752
 4821TIP3    H236099   3.482   2.978   0.204 -1.3334 -0.0182  0.7464
 4822TIP3   OH236100   5.787   2.543   7.768 -0.2978  0.0488  0.0469
 4822TIP3    H136101   5.786   2.566   7.675  0.4625  0.4805  0.1296
 4822TIP3    H236102   5.748   2.456   7.772 -0.0135 -0.1239 -0.7211
 4823TIP3   OH236103   0.213   6.333   8.727  0.4052 -0.7376  0.7546
 4823TIP3    H136104   0.214   6.285   8.810 -1.9465 -2.8978 -0.3617
 4823TIP3    H236105   0.229   6.267   8.660  2.7080  1.0281 -0.5981
 4824TIP3   OH236106   5.733   3.759   7.569  0.3286  0.1514  0.1795
 4824TIP3    H136107   5.775   3.825   7.513 -0.6971  0.4603 -0.2461
 4824TIP3    H236108   5.752   3.788   7.658  0.9352  0.3333  0.0002
 4825TIP3   OH236109   0.106   3.452   0.573  0.0218  0.8794  0.2684
 4825TIP3    H136110   0.069   3.528   0.619 -0.6424  0.8690 -0.2306
 4825TIP3    H236111   0.123   3.485   0.484 -2.2638 -0.0943 -0.5980
 4826TIP3   OH236112   4.849   4.197   7.068  0.2346  0.4019  0.5335
 4826TIP3    H136113   4.796   4.228   7.142 -0.4964  0.9238 -0.2044
 4826TIP3    H236114   4.786   4.177   7.000  0.7653 -1.6411  0.5764
 4827TIP3   OH236115   4.581   2.898   7.057  0.3678 -0.9652  0.6102
 4827TIP3    H136116   4.595   2.930   6.967  2.0175  0.7191  1.4067
 4827TIP3    H236117   4.516   2.958   7.093  1.1567 -0.3944  1.1239
 4828TIP3   OH236118   0.410   5.285   0.686 -0.4488 -0.0996  0.6770
 4828TIP3    H136119   0.339   5.337   0.722 -1.1795 -1.4787  1.2938
 4828TIP3    H236120   0.478   5.287   0.753 -0.6060 -0.1997  0.8406
 4829TIP3   OH236121   3.193   5.520   7.923  0.1949  0.2341  0.3232
 4829TIP3    H136122   3.261   5.533   7.857  0.0691  0.5673  0.2563
 4829TIP3    H236123   3.175   5.607   7.957 -0.5254  0.2164  0.0117
 4830TIP3   OH236124   4.929   0.609   0.301  0.2163 -0.1379 -0.3621
 4830TIP3    H136125   4.869   0.649   0.364  0.3737  0.9168 -0.8606
 4830TIP3    H236126   4.873   0.582   0.228  0.0545 -1.2235  0.1484
 4831TIP3   OH236127   0.470   3.949   0.462  0.5798  0.0943  0.1608
 4831TIP3    H136128   0.547   3.971   0.409  0.1871  0.4542 -0.2670
 4831TIP3    H236129   0.480   4.001   0.541  0.1855  1.0399 -0.3977
 4832TIP3   OH236130   0.636   0.738   7.353 -0.1455 -0.0907  0.4291
 4832TIP3    H136131   0.600   0.668   7.407 -0.5429  2.1209  3.2756
 4832TIP3    H236132   0.595   0.726   7.267 -3.3589 -1.0455  1.9219
 4833TIP3   OH236133   2.552   5.761   1.890 -0.1431 -0.2487 -0.3724
 4833TIP3    H136134   2.596   5.779   1.973 -0.0680  1.9916 -0.8375
 4833TIP3    H236135   2.623   5.756   1.826 -0.1894 -2.0982 -0.3183
 4834TIP3   OH236136   0.540   5.218   0.290 -0.4458 -0.2591 -0.7050
 4834TIP3    H136137   0.476   5.287   0.272  0.2313  0.2963 -1.0146
 4834TIP3    H236138   0.517   5.186   0.378 -2.2741 -1.3284 -1.5143
 4835TIP3   OH236139   5.558   2.165   8.692 -0.6896 -0.5761 -0.7339
 4835TIP3    H136140   5.592   2.075   8.696  1.3046  0.1268 -0.7103
 4835TIP3    H236141   5.574   2.192   8.602  2.4494  1.0150  0.1384
 4836TIP3   OH236142   0.402   0.397   8.809  0.1096 -0.1642  0.2437
 4836TIP3    H136143   0.447   0.475   8.840 -0.1085  0.8112 -1.7659
 4836TIP3    H236144   0.319   0.396   8.859  0.1078  0.8876  0.2861
 4837TIP3   OH236145   4.081   6.439   8.031  0.1858 -0.5225  0.4448
 4837TIP3    H136146   4.140   6.493   8.084 -0.9219  0.4273  0.7303
 4837TIP3    H236147   4.088   6.352   8.070 -0.2826  0.0653  1.8998
 4838TIP3   OH236148   2.293   1.947   8.720  0.3613 -0.5031 -0.5045
 4838TIP3    H136149   2.252   2.007   8.782 -1.7276  0.6743 -2.8306
 4838TIP3    H236150   2.247   1.864   8.735 -0.6554 -0.0359 -0.9130
 4839TIP3   OH236151   2.211   0.141   1.263 -0.4135  0.2015  0.1966
 4839TIP3    H136152   2.129   0.112   1.303 -1.0926  0.6192 -0.8619
 4839TIP3    H236153   2.279   0.110   1.324 -1.2584 -1.2676  0.4465
 4840TIP3   OH236154   3.992   6.015   8.002 -0.3049  0.0201 -0.2554
 4840TIP3    H136155   3.949   5.952   8.060 -0.7623  0.4697 -0.0935
 4840TIP3    H236156   3.971   5.984   7.914 -0.0597 -0.3625 -0.1815
 4841TIP3   OH236157   0.508   2.614   1.274 -0.1208  0.4298  0.2439
 4841TIP3    H136158   0.597   2.595   1.246  0.0960  0.0149  1.1996
 4841TIP3    H236159   0.512   2.704   1.307 -0.0672  0.4233  0.2556
 4842TIP3   OH236160   2.738   2.835   7.593 -0.1991 -0.3782  0.2721
 4842TIP3    H136161   2.727   2.882   7.510  0.0662 -2.8771 -1.2866
 4842TIP3    H236162   2.832   2.819   7.599 -0.2927 -0.7774  0.7147
 4843TIP3   OH236163   2.355   2.449   7.308 -0.2152 -0.1040  0.1400
 4843TIP3    H136164   2.443   2.486   7.313 -0.5177  0.5945  0.4530
 4843TIP3    H236165   2.338   2.416   7.397 -0.5248  0.3655  0.2546
 4844TIP3   OH236166   0.418   1.962   7.403 -0.4315 -0.0460  0.0845
 4844TIP3    H136167   0.435   1.874   7.369 -0.0107 -0.3062  0.9405
 4844TIP3    H236168   0.352   1.949   7.471 -0.6348  0.3451 -0.0390
 4845TIP3   OH236169   3.709   0.214   0.887  0.0796  0.3346 -0.6107
 4845TIP3    H136170   3.697   0.179   0.975 -0.7625  0.3841 -0.6994
 4845TIP3    H236171   3.756   0.296   0.900  0.0021  0.3196 -0.2154
 4846TIP3   OH236172   2.913   6.135   1.696  0.1724  0.1669  0.0865
 4846TIP3    H136173   2.842   6.128   1.632  0.4442 -0.4878 -0.1470
 4846TIP3    H236174   2.988   6.166   1.645  0.5221 -0.8318 -0.0153
 4847TIP3   OH236175   3.115   3.733   7.269 -0.1849  0.4506  0.6308
 4847TIP3    H136176   3.202   3.732   7.310  0.3473  0.6994 -0.4456
 4847TIP3    H236177   3.080   3.819   7.289  0.4352  0.8958 -0.1375
 4848TIP3   OH236178   0.568   5.865   8.462  0.6434 -0.0597  0.1252
 4848TIP3    H136179   0.624   5.936   8.431  1.0975  0.0526  1.1645
 4848TIP3    H236180   0.484   5.881   8.419  0.7178  1.1552  0.3796
 4849TIP3   OH236181   3.310   4.239   8.679  0.3729  0.0215  0.5839
 4849TIP3    H136182   3.221   4.237   8.713 -0.1543 -0.6675 -0.7687
 4849TIP3    H236183   3.346   4.153   8.700  0.6414  0.2044  0.8927
 4850TIP3   OH236184   2.590   6.826   7.478  0.4819 -0.4935 -0.2826
 4850TIP3    H136185   2.645   6.903   7.494  0.5776 -0.6530  0.1778
 4850TIP3    H236186   2.619   6.762   7.543  0.3066 -0.8709 -0.5701
 4851TIP3   OH236187   5.284   4.069   0.056 -0.4752  0.1331  0.3469
 4851TIP3    H136188   5.189   4.064   0.055 -0.4930  0.4417  0.5095
 4851TIP3    H236189   5.305   4.128   0.128 -0.3022  2.7630 -1.6942
 4852TIP3   OH236190   3.298   1.676   8.387 -0.2973 -0.0490 -0.5992
 4852TIP3    H136191   3.346   1.759   8.382 -0.3355 -0.0120 -0.3537
 4852TIP3    H236192   3.307   1.638   8.299  0.3426 -0.1307 -0.5062
 4853TIP3   OH236193   2.240   5.559   6.742  0.1267  0.4357  0.9522
 4853TIP3    H136194   2.205   5.544   6.654 -0.0233 -0.1357  1.1070
 4853TIP3    H236195   2.264   5.472   6.773  0.9903  0.7314  1.1447
 4854TIP3   OH236196   5.392   5.385   6.924  0.5911 -0.1333 -0.1646
 4854TIP3    H136197   5.488   5.378   6.927  0.5796 -0.5635 -0.6200
 4854TIP3    H236198   5.363   5.340   7.003  0.6992 -1.8025 -1.0183
 4855TIP3   OH236199   4.587   2.063   0.420 -0.1505  0.6464 -0.4754
 4855TIP3    H136200   4.548   1.976   0.430  0.4919  0.5216  1.1964
 4855TIP3    H236201   4.540   2.101   0.346  1.3564 -2.1022 -3.0852
 4856TIP3   OH236202   1.952   3.015   0.500 -0.3544  0.3806 -0.0908
 4856TIP3    H136203   2.009   2.990   0.573 -0.1731  0.8234 -0.0745
 4856TIP3    H236204   2.011   3.031   0.427 -0.5728 -0.5212 -0.4780
 4857TIP3   OH236205   0.944   5.855   1.318  0.1999 -0.3710 -0.0766
 4857TIP3    H136206   0.922   5.933   1.370  1.4371 -0.1531  0.1394
 4857TIP3    H236207   0.948   5.784   1.381 -1.9044 -0.8586 -0.3973
 4858TIP3   OH236208   3.493   5.312   7.216  0.6970 -0.6613 -0.0322
 4858TIP3    H136209   3.542   5.382   7.172  1.2069  0.2137  1.8457
 4858TIP3    H236210   3.508   5.235   7.162 -2.3846  1.1389 -4.0130
 4859TIP3   OH236211   4.485   3.750   7.500  0.2873  0.0321  0.0284
 4859TIP3    H136212   4.393   3.723   7.492  0.0831  0.4390  0.8454
 4859TIP3    H236213   4.530   3.671   7.529  0.5751 -0.7229 -2.3014
 4860TIP3   OH236214   4.847   2.523   8.716  0.2314  0.2741 -0.3296
 4860TIP3    H136215   4.796   2.589   8.761 -0.7085  0.2589 -1.3321
 4860TIP3    H236216   4.788   2.486   8.650  1.1057 -0.7107 -0.6092
 4861TIP3   OH236217   1.522   2.582   2.465  0.2238  0.1931  0.1145
 4861TIP3    H136218   1.553   2.649   2.526  1.0624 -0.1191  0.0534
 4861TIP3    H236219   1.586   2.584   2.393  0.3640 -0.7810  0.1936
 4862TIP3   OH236220   2.105   3.671   7.073  0.1296  0.3157 -0.2447
 4862TIP3    H136221   2.011   3.688   7.064  0.1937  0.7120 -0.1740
 4862TIP3    H236222   2.133   3.729   7.144  0.6389  0.9793 -0.9735
 4863TIP3   OH236223   1.221   1.046   6.816  0.0432 -0.1398 -0.1893
 4863TIP3    H136224   1.203   0.953   6.829 -1.6009 -0.2783 -2.7812
 4863TIP3    H236225   1.216   1.059   6.721  1.2170  2.4141  0.0145
 4864TIP3   OH236226   2.546   3.405   1.182  0.1173  0.0899  0.5762
 4864TIP3    H136227   2.542   3.323   1.133 -1.3277  0.4495  0.0347
 4864TIP3    H236228   2.475   3.398   1.246  0.5765  0.5431  1.1438
 4865TIP3   OH236229   1.484   2.963   6.871  0.2810 -0.2937 -0.2091
 4865TIP3    H136230   1.549   3.003   6.929  1.0838  0.1400 -1.3714
 4865TIP3    H236231   1.515   2.874   6.857  2.0420  0.6164 -2.7071
 4866TIP3   OH236232   3.882   5.579   8.451  0.2496 -0.3814 -0.0726
 4866TIP3    H136233   3.859   5.665   8.485  0.1481 -0.7197  0.7323
 4866TIP3    H236234   3.939   5.597   8.376  1.1418  0.3577  0.7579
 4867TIP3   OH236235   5.259   5.118   2.383 -0.0040 -0.5136 -0.3077
 4867TIP3    H136236   5.341   5.103   2.430  0.8250  0.8343 -1.2397
 4867TIP3    H236237   5.215   5.187   2.434 -0.6099 -1.2755  0.2241
 4868TIP3   OH236238   6.179   5.813   8.231  0.5650 -0.1335  0.0025
 4868TIP3    H136239   6.143   5.790   8.145 -1.1010  0.0856  0.6079
 4868TIP3    H236240   6.171   5.909   8.235 -1.7434 -0.3289  1.3701
 4869TIP3   OH236241   4.511   0.534   1.293 -0.0853  0.1005 -0.6316
 4869TIP3    H136242   4.584   0.504   1.347 -0.6559 -1.1194 -0.5131
 4869TIP3    H236243   4.491   0.622   1.326  1.2003  0.3733 -0.5471
 4870TIP3   OH236244   0.381   3.594   6.134 -0.3968 -0.4151  0.5611
 4870TIP3    H136245   0.386   3.508   6.176 -2.9450 -1.4508 -1.0137
 4870TIP3    H236246   0.287   3.610   6.123  0.0531  1.8863 -0.5852
 4871TIP3   OH236247   0.414   3.306   0.473 -0.0332 -0.0620  0.1036
 4871TIP3    H136248   0.372   3.286   0.389 -1.8488 -0.4254  1.0432
 4871TIP3    H236249   0.506   3.317   0.451 -0.2095 -1.5712 -1.7253
 4872TIP3   OH236250   4.858   0.155   7.542 -0.0751  0.6997 -0.1003
 4872TIP3    H136251   4.845   0.067   7.577  0.7150  0.3100 -0.7434
 4872TIP3    H236252   4.798   0.161   7.468 -0.5870  0.9374  0.3312
 4873TIP3   OH236253   1.990   6.146   7.425 -0.1619 -0.0873  0.0937
 4873TIP3    H136254   2.027   6.234   7.426  1.6693 -0.7595 -1.6337
 4873TIP3    H236255   1.926   6.148   7.353 -1.2425  0.1899  1.0228
 4874TIP3   OH236256   5.983   4.697   6.732 -0.0451  0.5790 -0.2422
 4874TIP3    H136257   6.020   4.685   6.820 -1.5907  0.0424  0.3767
 4874TIP3    H236258   5.944   4.612   6.712  1.4116  0.2748 -2.0369
 4875TIP3   OH236259   0.919   5.026   1.336 -0.0359  0.1867 -0.0229
 4875TIP3    H136260   0.977   5.067   1.271  0.1950 -1.3828 -0.8557
 4875TIP3    H236261   0.960   4.942   1.355 -1.7319 -0.7341 -0.2168
 4876TIP3   OH236262   1.548   1.108   0.387 -0.0072  0.4809  0.1169
 4876TIP3    H136263   1.499   1.158   0.322  0.4360  2.0700  0.9596
 4876TIP3    H236264   1.628   1.081   0.341  0.1413  1.2887 -0.1214
 4877TIP3   OH236265   3.748   2.927   8.626 -0.3359 -0.1480  0.7258
 4877TIP3    H136266   3.718   2.852   8.574 -1.9050  2.1873 -2.0495
 4877TIP3    H236267   3.668   2.973   8.649  0.6365  2.3541 -0.5049
 4878TIP3   OH236268   1.286   4.559   1.577  0.1158  0.3675 -0.1913
 4878TIP3    H136269   1.218   4.571   1.643 -0.6350  0.7941 -1.0253
 4878TIP3    H236270   1.242   4.513   1.505  0.5585  1.0979 -0.9522
 4879TIP3   OH236271   4.609   0.039   1.547  0.3026  0.3248 -0.4852
 4879TIP3    H136272   4.618   0.050   1.642 -0.4867  0.3203 -0.3999
 4879TIP3    H236273   4.514   0.043   1.532  0.1034 -2.9326 -0.8519
 4880TIP3   OH236274   0.883   0.764   0.375 -0.5299 -0.1916 -0.3574
 4880TIP3    H136275   0.924   0.766   0.462 -1.1941  0.6871 -0.0415
 4880TIP3    H236276   0.919   0.840   0.330  1.0450 -1.5255 -1.4767
 4881TIP3   OH236277   4.439   3.948   1.162 -0.6221  0.0443  0.5389
 4881TIP3    H136278   4.372   3.887   1.193 -0.5514 -0.1302  0.3485
 4881TIP3    H236279   4.413   3.968   1.072 -0.4319 -0.0067  0.4719
 4882TIP3   OH236280   4.546   1.544   7.871 -0.1403 -0.0870 -0.1676
 4882TIP3    H136281   4.557   1.473   7.808 -0.1187 -1.6816  1.5498
 4882TIP3    H236282   4.630   1.549   7.917 -0.5063  0.2526  0.4889
 4883TIP3   OH236283   2.999   1.718   8.620  0.2032 -0.0445  0.3131
 4883TIP3    H136284   2.933   1.670   8.569 -0.7512  0.2542  1.2350
 4883TIP3    H236285   2.963   1.806   8.629 -0.7101 -0.6147  3.2633
 4884TIP3   OH236286   5.541   3.935   6.957  0.1450  0.6475 -0.4436
 4884TIP3    H136287   5.539   3.881   7.036  2.1662 -0.2083 -0.9253
 4884TIP3    H236288   5.573   4.020   6.987 -2.0553  1.3496  0.1325
 4885TIP3   OH236289   2.933   1.019   8.329 -0.5660 -0.0696 -0.5135
 4885TIP3    H136290   3.023   1.046   8.350 -0.8300  1.1069 -0.8348
 4885TIP3    H236291   2.892   1.007   8.415  0.2850 -2.0921 -0.3309
 4886TIP3   OH236292   5.325   4.853   1.033  0.4000 -0.7890  0.0541
 4886TIP3    H136293   5.419   4.867   1.025  1.0190 -2.5158  3.0668
 4886TIP3    H236294   5.303   4.792   0.963  1.5935 -0.7072 -0.3993
 4887TIP3   OH236295   6.520   4.114   8.201  0.2528 -0.2759 -0.0031
 4887TIP3    H136296   6.476   4.168   8.135 -0.5845 -1.4215 -0.4070
 4887TIP3    H236297   6.528   4.028   8.160  0.7234 -0.7095  0.9781
 4888TIP3   OH236298   3.558   3.228   7.731  0.0500 -0.6216  0.4263
 4888TIP3    H136299   3.575   3.317   7.763  0.5980 -0.5298 -0.0982
 4888TIP3    H236300   3.634   3.178   7.757 -0.1609 -0.8896  0.5295
 4889TIP3   OH236301   1.920   1.113   7.127  0.3416 -0.0012 -0.0855
 4889TIP3    H136302   1.925   1.205   7.101 -0.0442  0.4257  1.2697
 4889TIP3    H236303   1.908   1.065   7.045  0.8655  1.1240 -0.8371
 4890TIP3   OH236304   2.772   6.429   6.956  0.1321 -0.4738  0.0316
 4890TIP3    H136305   2.677   6.423   6.941  0.3914  0.5327 -2.6072
 4890TIP3    H236306   2.784   6.512   7.002 -0.2598 -0.7028  0.5594
 4891TIP3   OH236307   3.795   6.734   8.596 -0.0577 -0.1172  0.0677
 4891TIP3    H136308   3.820   6.712   8.686  1.2569 -0.5706 -0.3844
 4891TIP3    H236309   3.759   6.822   8.602  0.2204 -0.0528  1.0043
 4892TIP3   OH236310   6.482   4.533   8.422 -0.9805 -0.1907 -0.4402
 4892TIP3    H136311   6.527   4.510   8.340  0.3843  0.3977  0.1216
 4892TIP3    H236312   6.417   4.464   8.433 -1.0349 -0.4105 -1.9006
 4893TIP3   OH236313   5.403   3.698   6.824  1.2174 -0.3861  0.0452
 4893TIP3    H136314   5.396   3.605   6.846  1.3536 -0.4308 -0.0961
 4893TIP3    H236315   5.382   3.744   6.906 -0.2167 -0.5121 -0.2211
 4894TIP3   OH236316   5.487   4.686   1.719  0.0595  0.0596 -0.3824
 4894TIP3    H136317   5.441   4.697   1.636 -1.0375  0.8724  0.3036
 4894TIP3    H236318   5.442   4.613   1.762  0.3393 -0.0744 -0.3174
 4895TIP3   OH236319   3.712   0.592   7.719  0.3455  0.3518  0.2002
 4895TIP3    H136320   3.722   0.684   7.746  1.8774  0.1147  0.5321
 4895TIP3    H236321   3.658   0.553   7.788 -1.2982  1.2202 -0.5200
 4896TIP3   OH236322   5.815   4.383   7.515 -0.2992  0.6362 -0.8315
 4896TIP3    H136323   5.749   4.386   7.584 -1.8520 -0.8607 -2.1681
 4896TIP3    H236324   5.858   4.298   7.526  0.7166  1.1560 -0.6252
 4897TIP3   OH236325   6.174   0.586   8.327  0.2212 -0.1980  0.0988
 4897TIP3    H136326   6.166   0.505   8.378  1.1618 -0.2563  0.1656
 4897TIP3    H236327   6.109   0.645   8.366  0.0013 -0.6879  0.4901
 4898TIP3   OH236328   4.901   3.469   1.774 -0.0733  0.2609 -0.0393
 4898TIP3    H136329   4.966   3.537   1.792  0.6044 -0.6487  1.1081
 4898TIP3    H236330   4.913   3.448   1.682 -0.5962  1.9755 -0.5306
 4899TIP3   OH236331   6.218   2.862   6.501 -0.1951  0.3759 -0.0622
 4899TIP3    H136332   6.191   2.942   6.456 -0.1315 -0.3491 -1.4354
 4899TIP3    H236333   6.136   2.825   6.535 -0.5896 -0.2596 -1.6196
 4900TIP3   OH236334   4.370   4.516   0.183 -0.0903  0.3700 -0.6310
 4900TIP3    H136335   4.346   4.534   0.092  0.1182  0.0818 -0.7443
 4900TIP3    H236336   4.371   4.602   0.225 -1.8919  0.3615 -0.4785
 4901TIP3   OH236337   0.555   5.218   2.764 -0.4853 -0.5382 -0.4642
 4901TIP3    H136338   0.629   5.233   2.823 -0.3489 -1.3116 -0.4247
 4901TIP3    H236339   0.559   5.124   2.746 -2.0330 -0.7711  0.2959
 4902TIP3   OH236340   5.185   4.590   1.608 -0.0486  0.2148 -0.0331
 4902TIP3    H136341   5.210   4.529   1.677  1.1118  2.1603  1.3332
 4902TIP3    H236342   5.251   4.578   1.540  0.3714  0.1860  0.3774
 4903TIP3   OH236343   6.694   5.157   6.821  0.1671  0.0695  0.4293
 4903TIP3    H136344   6.598   5.153   6.825  0.1323  0.4301  0.1003
 4903TIP3    H236345   6.715   5.247   6.844  0.4722 -0.1654  1.1014
 4904TIP3   OH236346   5.431   1.409   7.846 -0.2011 -0.2530 -0.3870
 4904TIP3    H136347   5.378   1.338   7.810  2.2309 -2.3822 -0.0013
 4904TIP3    H236348   5.479   1.369   7.918 -0.1469  2.3110  1.1115
 4905TIP3   OH236349   5.604   6.840   0.358 -0.0344 -0.4139  0.7337
 4905TIP3    H136350   5.517   6.877   0.373  0.8774  1.9459  0.7411
 4905TIP3    H236351   5.662   6.891   0.415  1.8238  0.5435 -1.7939
 4906TIP3   OH236352   5.734   5.405   0.034 -0.2109 -0.5209 -0.2277
 4906TIP3    H136353   5.694   5.451  -0.039  0.0005 -1.1624 -0.7545
 4906TIP3    H236354   5.821   5.444   0.043 -0.3820 -0.1717 -0.0562
 4907TIP3   OH236355   0.925   0.585   8.396 -0.1166  0.2250 -0.0687
 4907TIP3    H136356   0.922   0.610   8.488  0.1323  0.5858 -0.1533
 4907TIP3    H236357   1.013   0.550   8.384 -0.9388 -2.1944  0.4074
 4908TIP3   OH236358   5.150   0.788   7.603 -0.3589 -0.9425  0.0801
 4908TIP3    H136359   5.221   0.729   7.578  0.8552 -0.1525  1.5030
 4908TIP3    H236360   5.156   0.793   7.699 -1.5079  0.1801  0.1244
 4909TIP3   OH236361   0.048   3.834   7.196 -0.2234  0.1210  0.0095
 4909TIP3    H136362   0.004   3.866   7.118 -0.7081 -0.3494  0.0877
 4909TIP3    H236363   0.039   3.905   7.260  0.2493  0.5407 -0.3812
 4910TIP3   OH236364   3.906   1.956   8.043 -0.6495 -0.6410 -0.4808
 4910TIP3    H136365   3.964   1.883   8.022  0.1780 -0.3520  0.7067
 4910TIP3    H236366   3.959   2.015   8.097 -0.6485  1.8610 -3.0148
 4911TIP3   OH236367   4.547   6.538   1.582 -0.3009 -0.0579 -0.8040
 4911TIP3    H136368   4.542   6.546   1.487 -0.7643 -0.8299 -0.8487
 4911TIP3    H236369   4.630   6.580   1.605 -0.1313  0.0328 -1.5555
 4912TIP3   OH236370   5.028   5.917   8.089 -0.0074  0.0543  0.1354
 4912TIP3    H136371   5.052   5.827   8.108 -0.7414  0.3863  3.0709
 4912TIP3    H236372   5.052   5.966   8.167 -2.8713  1.7513  0.1164
 4913TIP3   OH236373   3.114   6.797   1.634 -0.2490  0.5481 -0.7207
 4913TIP3    H136374   3.119   6.813   1.728 -2.4119 -1.2337 -0.2113
 4913TIP3    H236375   3.192   6.745   1.614  1.0116  2.2021 -0.2574
 4914TIP3   OH236376   1.978   5.122   1.369  0.3850  0.1506  0.0617
 4914TIP3    H136377   2.022   5.064   1.307 -1.1888 -0.3625 -0.6239
 4914TIP3    H236378   1.963   5.203   1.321  1.8851  0.8958  0.7757
 4915TIP3   OH236379   1.891   1.371   7.038 -0.1685 -0.4372  0.4772
 4915TIP3    H136380   1.958   1.438   7.025  0.1925 -0.2659  2.8412
 4915TIP3    H236381   1.811   1.420   7.054 -0.2309 -0.5936  0.6478
 4916TIP3   OH236382   3.019   0.632   1.944 -0.4552 -0.1291  0.6309
 4916TIP3    H136383   2.966   0.620   1.865  0.8256  1.9755 -0.6442
 4916TIP3    H236384   2.956   0.654   2.012 -1.4031  0.2935 -0.3556
 4917TIP3   OH236385   2.259   1.504   6.820  0.5082  0.4643  0.6805
 4917TIP3    H136386   2.347   1.481   6.846  0.6500  0.7067  0.4336
 4917TIP3    H236387   2.271   1.578   6.759  0.1580  0.3044  0.4130
 4918TIP3   OH236388   3.639   4.957   1.066  0.6512 -0.3281  0.0962
 4918TIP3    H136389   3.560   4.903   1.064  0.2251  0.2505  0.7636
 4918TIP3    H236390   3.620   5.028   1.005 -0.3749  1.1550  2.0247
 4919TIP3   OH236391   5.303   4.825   7.561  0.4442  0.7650 -0.0705
 4919TIP3    H136392   5.382   4.795   7.608 -0.2251  0.8084  1.1383
 4919TIP3    H236393   5.304   4.920   7.570  0.4400  0.7949 -0.3725
 4920TIP3   OH236394   3.228   4.942   8.054 -0.6093 -0.7812 -0.0148
 4920TIP3    H136395   3.198   5.029   8.026 -1.1036 -0.9034  0.1132
 4920TIP3    H236396   3.310   4.958   8.100 -1.1007 -0.2798  0.7132
 4921TIP3   OH236397   1.352   6.406   0.842 -0.6518 -0.0220  0.0431
 4921TIP3    H136398   1.436   6.414   0.796  0.3330 -0.4671  1.6852
 4921TIP3    H236399   1.306   6.488   0.823  0.3786  0.4651 -0.4392
 4922TIP3   OH236400   6.691   5.496   1.912  0.5368 -0.1374  0.4405
 4922TIP3    H136401   6.640   5.572   1.883 -0.9956 -1.0970  0.4920
 4922TIP3    H236402   6.764   5.491   1.851 -0.3033  0.3754 -0.6369
 4923TIP3   OH236403   3.235   5.963   0.162 -0.1584 -0.2233 -0.0255
 4923TIP3    H136404   3.237   5.984   0.069 -1.4580 -0.0807 -0.0421
 4923TIP3    H236405   3.207   6.044   0.204  1.5440  0.0585  0.6254
 4924TIP3   OH236406   2.018   1.246   8.236  0.2208 -0.6116  0.5048
 4924TIP3    H136407   2.027   1.175   8.172 -1.9978  1.4620 -2.3434
 4924TIP3    H236408   1.929   1.236   8.271  0.2960  0.1235  0.9233
 4925TIP3   OH236409   5.971   2.691   0.166  0.2632 -0.1141  0.0561
 4925TIP3    H136410   6.024   2.666   0.242 -0.2816 -1.5263  0.0066
 4925TIP3    H236411   6.013   2.647   0.092 -0.5498 -0.6493 -0.0945
 4926TIP3   OH236412   1.630   2.487   1.868  0.2978 -0.6743 -0.1630
 4926TIP3    H136413   1.553   2.452   1.913  1.1366 -3.0835 -0.4393
 4926TIP3    H236414   1.704   2.445   1.912  1.4932  1.4634 -0.0022
 4927TIP3   OH236415   2.675   4.054   0.112  0.2563  0.1521 -0.0365
 4927TIP3    H136416   2.590   4.098   0.103  0.2122  0.3005  0.9746
 4927TIP3    H236417   2.670   3.979   0.052 -0.8776 -0.2688  0.5612
 4928TIP3   OH236418   3.795   6.715   1.759  0.0321 -0.2801 -0.0252
 4928TIP3    H136419   3.718   6.699   1.813  0.7340  0.4344  1.2327
 4928TIP3    H236420   3.846   6.634   1.765  0.1000 -0.2086  0.3722
 4929TIP3   OH236421   3.537   3.300   0.525  0.6639 -0.0864 -0.3994
 4929TIP3    H136422   3.617   3.331   0.482  2.3782 -0.7149  2.0693
 4929TIP3    H236423   3.507   3.227   0.471 -0.7630  2.6596 -3.6923
 4930TIP3   OH236424   1.482   4.599   0.936  0.2995  0.0204  0.5178
 4930TIP3    H136425   1.479   4.583   0.842 -1.1234  0.5487  0.4456
 4930TIP3    H236426   1.568   4.569   0.963  0.4632 -0.8040 -0.8350
 4931TIP3   OH236427   2.369   5.458   8.208  0.0534  0.3946  0.1797
 4931TIP3    H136428   2.456   5.468   8.169  0.0898 -1.0587 -0.1763
 4931TIP3    H236429   2.347   5.366   8.193  0.3307 -0.4833  4.1143
 4932TIP3   OH236430   4.827   5.715   1.186  0.4818  0.1731  0.4888
 4932TIP3    H136431   4.751   5.673   1.227  1.5529 -1.1677  1.1911
 4932TIP3    H236432   4.790   5.788   1.136 -1.1281  0.3835  1.8772
 4933TIP3   OH236433   5.604   2.267   8.183  0.0320  0.2026  0.1210
 4933TIP3    H136434   5.543   2.196   8.201  0.1072  0.0870 -0.0790
 4933TIP3    H236435   5.602   2.321   8.262  0.3247 -0.2743  0.4568
 4934TIP3   OH236436   1.370   4.030   7.445  0.6450 -0.2081 -0.0453
 4934TIP3    H136437   1.369   3.940   7.413 -1.0458 -0.2035 -0.0948
 4934TIP3    H236438   1.322   4.080   7.379  0.1631  0.4182  0.7553
 4935TIP3   OH236439   5.322   3.450   8.125 -0.2697  0.1513 -0.4349
 4935TIP3    H136440   5.286   3.538   8.113  1.4956  0.6929 -2.3115
 4935TIP3    H236441   5.393   3.444   8.061  1.6431 -1.5540  1.6808
 4936TIP3   OH236442   6.707   1.293   1.067  0.2335 -0.0152  0.3303
 4936TIP3    H136443   6.689   1.326   1.155  3.2017 -1.0139  1.4570
 4936TIP3    H236444   6.692   1.198   1.073 -1.0986  0.0930 -0.7581
 4937TIP3   OH236445   5.020   4.784   7.493  0.3047  0.0100 -0.1220
 4937TIP3    H136446   5.107   4.811   7.522 -0.1890  0.4123  1.0701
 4937TIP3    H236447   4.968   4.783   7.573 -0.1850 -2.7450 -0.3794
 4938TIP3   OH236448   3.495   0.949   7.890  0.0553 -0.2346  0.2147
 4938TIP3    H136449   3.579   0.994   7.888  0.8249 -1.6633 -0.1286
 4938TIP3    H236450   3.437   1.010   7.937  1.0002  1.1826 -0.3926
 4939TIP3   OH236451   1.477   6.193   7.167 -0.4749 -0.4759 -0.4475
 4939TIP3    H136452   1.531   6.124   7.129 -1.3729 -1.5725  0.1817
 4939TIP3    H236453   1.522   6.219   7.247 -0.0009 -0.1362 -0.8206
 4940TIP3   OH236454   0.892   4.514   0.951  0.3548  0.1246 -0.1517
 4940TIP3    H136455   0.986   4.497   0.945  0.8297  2.3739 -0.2580
 4940TIP3    H236456   0.863   4.521   0.860  0.5649  1.5148 -0.1345
 4941TIP3   OH236457   2.520   5.812   1.338  0.1230  0.0134 -0.2552
 4941TIP3    H136458   2.451   5.836   1.400  0.9487  0.9669  0.3051
 4941TIP3    H236459   2.483   5.737   1.290  0.0182 -1.7364  2.3450
 4942TIP3   OH236460   0.682   2.738   8.602 -0.0943 -0.0848 -0.2707
 4942TIP3    H136461   0.614   2.754   8.536 -0.4209 -0.6822 -0.0878
 4942TIP3    H236462   0.751   2.692   8.555 -0.0849 -0.0187 -0.3212
 4943TIP3   OH236463   3.450   4.549   1.094 -0.1497 -0.0448 -0.0568
 4943TIP3    H136464   3.427   4.616   1.158 -0.3660 -0.3081  0.1440
 4943TIP3    H236465   3.409   4.577   1.013 -1.5547 -0.7206  0.3917
 4944TIP3   OH236466   5.374   4.683   8.784 -0.6437 -0.4947  0.2067
 4944TIP3    H136467   5.398   4.594   8.809  1.8027  0.4697  1.6567
 4944TIP3    H236468   5.318   4.714   8.856  0.0475 -0.2691  0.6579
 4945TIP3   OH236469   2.625   2.002   8.168  0.8718 -0.5847  0.0669
 4945TIP3    H136470   2.688   1.930   8.165  0.0374 -1.3193 -0.1581
 4945TIP3    H236471   2.549   1.965   8.213 -0.5949 -0.6734 -2.3238
 4946TIP3   OH236472   2.221   4.177   6.645  0.0284 -0.3163 -0.3518
 4946TIP3    H136473   2.151   4.217   6.594 -0.8389 -0.5544  0.6090
 4946TIP3    H236474   2.196   4.084   6.649  0.5209 -0.4414 -0.1998
 4947TIP3   OH236475   5.606   4.994   1.744 -0.1390  0.0466 -0.6625
 4947TIP3    H136476   5.677   5.022   1.802  0.5887  1.4318 -2.1416
 4947TIP3    H236477   5.624   4.902   1.727  1.3813  0.3867 -1.0745
 4948TIP3   OH236478   1.365   2.097   0.506 -0.7835  0.2995  0.1525
 4948TIP3    H136479   1.298   2.123   0.444 -0.0980  2.1612  0.1364
 4948TIP3    H236480   1.437   2.157   0.490  0.0667 -0.2881  1.5981
 4949TIP3   OH236481   3.725   2.525   6.517 -0.5074 -0.5654  0.0671
 4949TIP3    H136482   3.728   2.432   6.536 -1.6530 -0.2517  2.1018
 4949TIP3    H236483   3.635   2.540   6.485 -0.0743 -0.2767 -1.0545
 4950TIP3   OH236484   1.403   4.735   7.888 -0.3918  0.2894  0.0172
 4950TIP3    H136485   1.428   4.827   7.900  1.5838 -0.4451  2.5327
 4950TIP3    H236486   1.334   4.721   7.953 -0.6080 -0.0353 -0.2797
 4951TIP3   OH236487   3.082   0.338   1.063  0.7366  0.3298  0.0019
 4951TIP3    H136488   3.106   0.288   1.141  1.0914 -0.5704 -0.6691
 4951TIP3    H236489   3.081   0.274   0.992 -0.6891  0.9073 -0.5539
 4952TIP3   OH236490   6.667   6.755   7.534 -0.1218  0.1527 -0.1604
 4952TIP3    H136491   6.580   6.771   7.569  0.4167  0.8538  0.9371
 4952TIP3    H236492   6.716   6.836   7.553  0.9462 -0.4746 -0.1316
 4953TIP3   OH236493   1.755   0.826   0.797  0.1582  0.2177  0.2875
 4953TIP3    H136494   1.822   0.784   0.851  2.0094  3.3261  0.7156
 4953TIP3    H236495   1.795   0.832   0.710 -0.2997  0.5263  0.0969
 4954TIP3   OH236496   0.607   0.385   1.912 -0.8234 -0.3331 -0.0236
 4954TIP3    H136497   0.638   0.317   1.972  0.4264 -1.0454 -1.4168
 4954TIP3    H236498   0.524   0.351   1.878 -0.6551 -0.7531 -0.0242
 4955TIP3   OH236499   3.003   4.922   6.993  0.8057  0.2296 -0.3264
 4955TIP3    H136500   2.960   4.977   6.928 -0.1910 -0.0487  0.0735
 4955TIP3    H236501   3.034   4.983   7.059 -1.0649  0.2977  0.5589
 4956TIP3   OH236502   5.801   5.190   7.969  0.0750 -0.3719  0.4770
 4956TIP3    H136503   5.740   5.117   7.981  0.6969 -0.9534  0.1591
 4956TIP3    H236504   5.885   5.157   8.001  0.1202  0.6043  1.4054
 4957TIP3   OH236505   6.597   3.254   1.786 -0.5061  0.1370  0.0282
 4957TIP3    H136506   6.598   3.168   1.744 -0.6653 -0.9131  2.0856
 4957TIP3    H236507   6.600   3.236   1.880  1.0032  2.4160  0.5073
 4958TIP3   OH236508   3.137   1.135   0.569  0.1589  0.3555 -0.2492
 4958TIP3    H136509   3.210   1.183   0.530  0.6026  0.1366  0.2843
 4958TIP3    H236510   3.146   1.152   0.663 -0.3793  0.1882 -0.1685
 4959TIP3   OH236511   2.136   2.676   6.281 -0.1960 -0.2977  0.8170
 4959TIP3    H136512   2.122   2.757   6.232  0.0418 -0.9283 -0.3228
 4959TIP3    H236513   2.231   2.671   6.294 -0.1310 -0.7775  0.1970
 4960TIP3   OH236514   2.989   6.416   8.750  0.1741  0.0394 -0.0613
 4960TIP3    H136515   3.043   6.338   8.739 -0.1905 -0.2384  0.0920
 4960TIP3    H236516   3.051   6.485   8.776  0.6085 -0.0100 -0.9506
 4961TIP3   OH236517   1.724   2.024   7.643 -0.1731  0.4306  0.3440
 4961TIP3    H136518   1.691   1.969   7.572  1.9415 -0.3710 -0.0847
 4961TIP3    H236519   1.742   2.109   7.602 -0.4141  0.4644  0.3019
 4962TIP3   OH236520   2.760   5.204   1.799  0.3041  0.5959  0.2100
 4962TIP3    H136521   2.764   5.257   1.719 -0.1219  0.8931  0.3802
 4962TIP3    H236522   2.668   5.178   1.806  0.3432  0.5457  0.5855
 4963TIP3   OH236523   1.441   0.188   7.506  0.0500 -0.0833 -0.2199
 4963TIP3    H136524   1.365   0.159   7.455  0.2193  0.9227 -1.0690
 4963TIP3    H236525   1.515   0.142   7.467  0.0827  0.1341 -0.4158
 4964TIP3   OH236526   4.878   3.498   0.650  0.3117  0.3151 -0.2545
 4964TIP3    H136527   4.860   3.534   0.563 -2.1061  0.6176  0.2911
 4964TIP3    H236528   4.854   3.406   0.644 -0.6116  0.5046  0.2487
 4965TIP3   OH236529   6.431   2.161   0.255  0.1890 -0.0925 -0.0533
 4965TIP3    H136530   6.357   2.183   0.311  0.5123  0.9598 -0.0134
 4965TIP3    H236531   6.505   2.150   0.315  0.0008 -1.4993 -0.0607
 4966TIP3   OH236532   1.929   3.573   7.797 -0.4218  1.1230 -0.5105
 4966TIP3    H136533   1.952   3.518   7.722  1.6277  0.6262  0.4185
 4966TIP3    H236534   2.004   3.632   7.807 -0.3659  0.7966  1.4650
 4967TIP3   OH236535   0.340   2.829   7.466  0.2920 -0.2170 -0.0984
 4967TIP3    H136536   0.267   2.788   7.513  0.2264 -0.0536 -0.0595
 4967TIP3    H236537   0.309   2.839   7.376  0.2415 -0.0831 -0.0656
 4968TIP3   OH236538   3.010   5.882   1.123  0.2907  0.2193 -0.4802
 4968TIP3    H136539   2.997   5.949   1.190  2.0397 -0.3811  0.5334
 4968TIP3    H236540   3.100   5.854   1.135  0.0749 -1.2203 -1.9064
 4969TIP3   OH236541   0.729   6.760   7.649  0.2561  0.0412 -0.7136
 4969TIP3    H136542   0.739   6.665   7.647  2.7888  0.2301 -0.4685
 4969TIP3    H236543   0.749   6.785   7.739  1.0040  0.8970 -1.0971
 4970TIP3   OH236544   1.105   4.165   8.097 -0.1022 -0.0516  0.6392
 4970TIP3    H136545   1.070   4.206   8.176  1.1545 -2.2812  2.4806
 4970TIP3    H236546   1.191   4.132   8.123  0.4472 -0.7019 -1.7401
 4971TIP3   OH236547   5.889   5.973   7.474 -0.1510  0.2976  0.1118
 4971TIP3    H136548   5.932   5.960   7.390  1.1718 -0.3385  0.8530
 4971TIP3    H236549   5.796   5.961   7.456  0.1024  0.2078 -1.2498
 4972TIP3   OH236550   4.716   5.100   1.287  0.0561 -0.4277 -0.2006
 4972TIP3    H136551   4.749   5.050   1.362 -2.2411 -1.0354  0.4617
 4972TIP3    H236552   4.743   5.049   1.211 -1.1493 -2.0502  0.4085
 4973TIP3   OH236553   2.662   6.398   0.798 -0.0273  0.2013 -0.2627
 4973TIP3    H136554   2.679   6.492   0.804 -2.4043  0.6594  0.5178
 4973TIP3    H236555   2.685   6.364   0.884  0.6293  0.0889 -0.4769
 4974TIP3   OH236556   4.666   5.192   7.892 -0.1815 -0.1188 -0.0484
 4974TIP3    H136557   4.592   5.162   7.945  0.5992 -0.6308  0.7826
 4974TIP3    H236558   4.715   5.250   7.950  0.0368  0.2618 -0.6090
 4975TIP3   OH236559   4.130   2.663   0.454 -0.7883 -0.8620 -0.1326
 4975TIP3    H136560   4.099   2.736   0.400  0.6812  0.4819  0.7571
 4975TIP3    H236561   4.084   2.587   0.419 -3.4334  0.6519 -0.2417
 4976TIP3   OH236562   4.446   0.024   8.709 -0.1125  0.8901  0.2977
 4976TIP3    H136563   4.541   0.032   8.712  0.0000 -0.2379  0.2874
 4976TIP3    H236564   4.430  -0.064   8.675 -1.1773  1.6394 -1.2992
 4977TIP3   OH236565   5.449   1.677   7.783 -0.5318 -0.7036 -0.1553
 4977TIP3    H136566   5.456   1.673   7.688 -1.9001 -1.0804 -0.2489
 4977TIP3    H236567   5.448   1.586   7.812 -2.1773 -0.6561  0.0378
 4978TIP3   OH236568   2.534   0.019   1.210  0.0211 -0.2871  0.1874
 4978TIP3    H136569   2.506   0.031   1.119  1.0657 -0.2766 -0.1515
 4978TIP3    H236570   2.498  -0.065   1.235 -2.5359  0.8592  0.6749
 4979TIP3   OH236571   5.557   3.529   1.425 -0.5439  0.4259 -0.2761
 4979TIP3    H136572   5.538   3.474   1.501 -1.8080 -0.1904 -1.0166
 4979TIP3    H236573   5.619   3.478   1.373  2.4388  1.9106  1.5149
 4980TIP3   OH236574   5.649   4.964   8.008  0.0560 -0.6052 -0.2293
 4980TIP3    H136575   5.590   4.985   7.936 -0.9992 -0.6697  0.5898
 4980TIP3    H236576   5.677   4.874   7.992 -2.1260 -1.5016  0.7052
 4981TIP3   OH236577   4.142   1.465   0.049  0.6448 -0.3179 -0.2816
 4981TIP3    H136578   4.191   1.505  -0.022  2.4640  0.0908  1.1196
 4981TIP3    H236579   4.161   1.521   0.125  0.5823 -1.9625  0.9997
 4982TIP3   OH236580   2.055   0.540   1.064 -0.6727  0.2412 -0.3497
 4982TIP3    H136581   2.071   0.509   1.152 -1.3432  0.4926 -0.1339
 4982TIP3    H236582   2.141   0.571   1.033 -0.4288  0.1098  0.1920
 4983TIP3   OH236583   4.015   1.413   7.478 -0.3695 -0.3190 -0.3504
 4983TIP3    H136584   3.995   1.323   7.505  0.7010  0.0776  2.0496
 4983TIP3    H236585   4.058   1.403   7.393  1.2016 -2.2885  0.5833
 4984TIP3   OH236586   4.889   6.139   0.238  0.4252  0.0755  0.3623
 4984TIP3    H136587   4.941   6.108   0.312 -0.5059  1.2932  1.5814
 4984TIP3    H236588   4.809   6.086   0.243  0.4344  0.0416  0.1250
 4985TIP3   OH236589   0.989   1.916   7.625 -0.0434  0.3316  0.3698
 4985TIP3    H136590   0.963   1.880   7.541 -3.1680 -1.7771  2.0476
 4985TIP3    H236591   1.057   1.856   7.657  1.1404  1.1328 -0.5600
 4986TIP3   OH236592   0.351   4.480   7.271 -0.5655 -0.5311  0.3732
 4986TIP3    H136593   0.399   4.442   7.197  2.1483 -1.7444  2.5628
 4986TIP3    H236594   0.299   4.551   7.233  1.9968  0.0094 -2.4577
 4987TIP3   OH236595   6.080   0.186   0.126  0.1047  0.5129 -0.0717
 4987TIP3    H136596   6.104   0.278   0.116  1.3353  0.1405 -0.8228
 4987TIP3    H236597   6.161   0.143   0.154  0.1638 -0.6689 -1.8491
 4988TIP3   OH236598   2.428   0.006   0.574  0.1491 -0.8820  0.3580
 4988TIP3    H136599   2.337  -0.014   0.553 -0.8116  2.1717  1.1961
 4988TIP3    H236600   2.474  -0.001   0.490 -1.1893 -0.8178 -0.4057
 4989TIP3   OH236601   2.352   6.789   2.440  0.2995  0.2147  0.6118
 4989TIP3    H136602   2.378   6.836   2.519 -0.4801  2.6981 -0.5234
 4989TIP3    H236603   2.434   6.769   2.395  0.6245  0.8651  0.9146
 4990TIP3   OH236604   1.073   3.549   7.031 -0.6131 -0.7688  0.5020
 4990TIP3    H136605   1.153   3.577   6.988 -1.4980  2.8645  0.9174
 4990TIP3    H236606   1.100   3.526   7.120 -0.1181  2.0494  1.1826
 4991TIP3   OH236607   0.228   0.503   1.105 -0.0614  0.6941 -1.0611
 4991TIP3    H136608   0.214   0.425   1.051  1.1021 -0.0262 -0.3648
 4991TIP3    H236609   0.311   0.539   1.074 -0.1560  1.1581 -0.7808
 4992TIP3   OH236610   2.932   0.797   8.139 -0.0973 -0.0794  0.0514
 4992TIP3    H136611   2.919   0.863   8.207 -1.2508 -1.0521  0.8220
 4992TIP3    H236612   2.979   0.843   8.069  0.5722  1.1082  1.2369
 4993TIP3   OH236613   6.335   6.153   1.790 -0.3062 -0.2264 -0.2095
 4993TIP3    H136614   6.406   6.215   1.803  0.6583 -0.5690 -3.1360
 4993TIP3    H236615   6.315   6.159   1.696  0.3830 -4.8163 -0.8547
 4994TIP3   OH236616   3.868   6.483   0.813  0.0261  0.2197 -0.0477
 4994TIP3    H136617   3.895   6.566   0.774  1.5897 -0.5783 -0.7332
 4994TIP3    H236618   3.795   6.506   0.871 -0.0949  1.9320 -0.8441
 4995TIP3   OH236619   4.310   3.367   8.553 -0.1127 -0.3088 -0.0901
 4995TIP3    H136620   4.271   3.428   8.490 -0.4784 -0.5537 -0.0959
 4995TIP3    H236621   4.363   3.308   8.499 -2.9546 -2.5960 -0.6034
 4996TIP3   OH236622   2.197   1.571   7.602  0.6167 -0.0568 -0.0382
 4996TIP3    H136623   2.109   1.609   7.594  0.0527 -1.1021  0.9122
 4996TIP3    H236624   2.253   1.644   7.627  0.4034  1.0292 -2.4965
 4997TIP3   OH236625   3.759   2.408   1.157  0.3575 -0.0763 -0.2032
 4997TIP3    H136626   3.790   2.319   1.176 -0.6642 -0.1220  1.4406
 4997TIP3    H236627   3.680   2.418   1.211  0.6721  1.9758 -0.0374
 4998TIP3   OH236628   3.293   2.816   8.207  0.3562 -0.3805 -0.2865
 4998TIP3    H136629   3.317   2.797   8.297 -1.2376 -1.1159  0.0066
 4998TIP3    H236630   3.373   2.853   8.169  0.8904  0.4906  1.5590
 4999TIP3   OH236631   2.800   5.176   7.182  0.2425  0.2880 -0.2737
 4999TIP3    H136632   2.886   5.135   7.184  0.1982  0.2422  1.0116
 4999TIP3    H236633   2.800   5.225   7.100  0.3313 -2.1443 -1.8377
 5000TIP3   OH236634   4.374   1.812   7.015  0.5642 -0.8832 -0.5145
 5000TIP3    H136635   4.325   1.762   7.080  0.1901 -1.7555 -1.4339
 5000TIP3    H236636   4.325   1.801   6.934  1.5518 -0.6586 -1.1660
 5001TIP3   OH236637   1.671   4.911   1.245  0.1392  0.3610  0.0614
 5001TIP3    H136638   1.615   4.988   1.237 -1.0323 -0.5267 -0.5892
 5001TIP3    H236639   1.760   4.947   1.247 -0.3131  1.6748 -1.2486
 5002TIP3   OH236640   2.343   4.373   7.766 -0.3376  0.2391 -0.8860
 5002TIP3    H136641   2.336   4.321   7.686 -1.0502  0.0968 -0.7412
 5002TIP3    H236642   2.322   4.312   7.837  0.0915  0.4113 -0.6015
 5003TIP3   OH236643   1.827   5.037   8.715 -0.5561 -0.2231 -0.2100
 5003TIP3    H136644   1.832   5.025   8.621  1.5970  1.4287 -0.3803
 5003TIP3    H236645   1.890   4.975   8.751  0.4932  0.8888 -0.0805
 5004TIP3   OH236646   3.309   4.543   8.596 -0.3649  0.3044 -0.1320
 5004TIP3    H136647   3.217   4.517   8.594 -0.0529 -0.9307  1.0830
 5004TIP3    H236648   3.326   4.566   8.687  1.1145 -1.7195  0.1652
 5005TIP3   OH236649   3.289   2.093   0.535  0.0817 -0.4141  0.3723
 5005TIP3    H136650   3.258   2.106   0.445 -0.5110 -0.4461  0.5626
 5005TIP3    H236651   3.375   2.053   0.526  1.8986  3.2239 -0.2805
 5006TIP3   OH236652   2.887   0.305   1.918  0.1990 -0.2082 -0.2067
 5006TIP3    H136653   2.823   0.293   1.988  0.9766 -2.4936  0.2064
 5006TIP3    H236654   2.835   0.318   1.839 -0.7401 -0.4661  0.3593
 5007TIP3   OH236655   0.389   3.744   1.434 -0.2294  0.5339  0.0305
 5007TIP3    H136656   0.440   3.693   1.371  0.2442 -0.4700  1.2013
 5007TIP3    H236657   0.315   3.688   1.455  0.5575  0.0775  1.7144
 5008TIP3   OH236658   0.083   2.858   1.237 -0.1396  0.1816 -0.2102
 5008TIP3    H136659   0.093   2.904   1.154 -1.0385  0.2709 -0.2829
 5008TIP3    H236660   0.020   2.789   1.218 -0.7110  0.4961  0.5017
 5009TIP3   OH236661   4.074   5.879   1.041  0.0819  0.2719  0.4245
 5009TIP3    H136662   4.032   5.950   0.992  0.0274  1.1216  1.6676
 5009TIP3    H236663   4.064   5.802   0.984 -1.5501  0.8409 -0.1223
 5010TIP3   OH236664   5.648   5.587   1.666  0.7425  0.3650 -0.5591
 5010TIP3    H136665   5.585   5.644   1.622  1.0241  1.3225  0.2527
 5010TIP3    H236666   5.708   5.559   1.596 -0.2775 -0.1818 -1.2519
 5011TIP3   OH236667   5.544   5.179   8.802 -0.0012  0.5514  0.1351
 5011TIP3    H136668   5.574   5.193   8.712 -0.8371 -1.2365 -0.4729
 5011TIP3    H236669   5.467   5.124   8.793  0.6983 -0.8345  2.0320
 5012TIP3   OH236670   2.661   4.449   5.728 -0.0950 -0.0388  0.1557
 5012TIP3    H136671   2.616   4.405   5.801 -0.4294 -1.6210 -0.9494
 5012TIP3    H236672   2.607   4.430   5.652  0.9519  0.4557 -0.7355
 5013TIP3   OH236673   6.177   0.363   8.618 -0.3086  0.2069  0.7440
 5013TIP3    H136674   6.146   0.279   8.653 -2.3264  0.9314  0.8028
 5013TIP3    H236675   6.135   0.429   8.672 -1.4925  1.3154 -1.3921
 5014TIP3   OH236676   0.688   1.839   0.359 -0.5287 -0.1100 -0.1238
 5014TIP3    H136677   0.698   1.931   0.337 -0.1609  0.6973  2.9651
 5014TIP3    H236678   0.778   1.806   0.362 -0.5601 -0.1389  0.4399
 5015TIP3   OH236679   3.998   6.282   1.910 -0.6542  0.2272  0.1993
 5015TIP3    H136680   4.091   6.269   1.925 -0.8828 -0.7236  0.9400
 5015TIP3    H236681   3.992   6.317   1.822  0.5252  2.1699  0.8267
 5016TIP3   OH236682   4.967   3.218   0.528 -0.2181 -0.3406  0.1102
 5016TIP3    H136683   4.951   3.242   0.436 -1.5230 -0.3616  0.3045
 5016TIP3    H236684   5.049   3.261   0.550 -0.3422  0.4209 -0.8099
 5017TIP3   OH236685   6.111   0.598   0.517  0.2969  1.0372  0.5016
 5017TIP3    H136686   6.175   0.635   0.577  1.2496  0.0393  0.1317
 5017TIP3    H236687   6.040   0.662   0.514  0.8937  1.7619  1.5712
 5018TIP3   OH236688   3.415   3.888   1.782 -0.2295  0.8866 -0.1722
 5018TIP3    H136689   3.489   3.922   1.732  2.0357  1.0074  2.9397
 5018TIP3    H236690   3.409   3.796   1.757  1.2763  0.7770 -0.2158
 5019TIP3   OH236691   0.444   4.057   6.995  0.3370  0.0312  0.0243
 5019TIP3    H136692   0.405   4.049   6.908  1.9804 -0.6346 -0.6849
 5019TIP3    H236693   0.379   4.107   7.045 -0.1695  1.3893 -1.8616
 5020TIP3   OH236694   3.530   0.644   1.092  0.0345 -0.4437  0.1970
 5020TIP3    H136695   3.528   0.566   1.147  0.4145 -1.1353 -0.7387
 5020TIP3    H236696   3.509   0.716   1.151 -0.9631 -1.3245  0.9519
 5021TIP3   OH236697   5.833   5.589   6.569  0.1001 -0.0720  0.2608
 5021TIP3    H136698   5.809   5.681   6.556  0.6474 -0.0555 -0.8025
 5021TIP3    H236699   5.928   5.590   6.575  0.1256 -0.5888  0.0246
 5022TIP3   OH236700   5.111   5.485   0.931 -0.4251  0.4250 -0.3744
 5022TIP3    H136701   5.159   5.547   0.876 -1.5381 -0.9697 -3.0558
 5022TIP3    H236702   5.019   5.500   0.910 -1.0832  1.0024  2.4777
 5023TIP3   OH236703   1.153   1.697   8.130  0.1571 -0.0040 -0.4071
 5023TIP3    H136704   1.069   1.683   8.173  0.7567 -2.4780  0.1425
 5023TIP3    H236705   1.205   1.746   8.194 -0.4937  0.5430 -0.2890
 5024TIP3   OH236706   5.073   3.658   1.873 -0.0863  0.3817  0.0322
 5024TIP3    H136707   5.166   3.650   1.854 -0.1375 -2.3728  0.6014
 5024TIP3    H236708   5.062   3.615   1.957 -1.9240  0.5119 -0.1067
 5025TIP3   OH236709   2.112   2.370   0.324  0.1482 -0.2078  0.6537
 5025TIP3    H136710   2.183   2.403   0.268  1.3611 -3.4764  0.0833
 5025TIP3    H236711   2.042   2.348   0.263 -0.3508  0.5185  0.9507
 5026TIP3   OH236712   5.751   6.243   7.893 -0.1715 -0.1793  0.3560
 5026TIP3    H136713   5.820   6.256   7.957 -0.5250  0.2470  0.6564
 5026TIP3    H236714   5.748   6.148   7.878 -0.0967 -0.2800  0.9767
 5027TIP3   OH236715   3.524   4.730   1.642  0.3535  0.5081 -0.0384
 5027TIP3    H136716   3.435   4.760   1.659  0.5621  0.7759  0.5800
 5027TIP3    H236717   3.578   4.773   1.708  0.8086 -0.3944  0.1999
 5028TIP3   OH236718   4.415   0.815   0.256  0.6810 -0.1469  0.9034
 5028TIP3    H136719   4.411   0.724   0.282 -0.6169 -0.1071  0.9222
 5028TIP3    H236720   4.378   0.816   0.167  0.9994  0.3099  0.7731
 5029TIP3   OH236721   2.124   0.395   1.290 -0.1898  0.2226 -0.4393
 5029TIP3    H136722   2.037   0.356   1.301 -0.3615  1.1859  2.5331
 5029TIP3    H236723   2.184   0.320   1.294 -0.6802 -0.1684  2.6108
 5030TIP3   OH236724   3.861   4.196   0.137  0.6031  0.2590 -0.3424
 5030TIP3    H136725   3.902   4.269   0.183  1.5889 -0.7479  0.4215
 5030TIP3    H236726   3.771   4.195   0.169  1.3418 -0.6303  1.9186
 5031TIP3   OH236727   6.216   0.356   6.207  0.3027  0.0596 -0.0530
 5031TIP3    H136728   6.229   0.378   6.299  0.1835  2.1605 -0.4943
 5031TIP3    H236729   6.123   0.375   6.190 -0.1312 -1.9707 -0.2197
 5032TIP3   OH236730   3.324   5.096   1.610 -0.2138 -0.3659  0.2241
 5032TIP3    H136731   3.369   5.102   1.526 -0.3734  0.0089  0.1628
 5032TIP3    H236732   3.233   5.073   1.587  0.0256 -1.5274  0.3688
 5033TIP3   OH236733   0.273   6.650   1.912  0.5444 -0.0019 -0.2993
 5033TIP3    H136734   0.239   6.735   1.884 -0.8583 -0.6278 -0.5547
 5033TIP3    H236735   0.268   6.653   2.007  2.5819  1.0091 -0.1617
 5034TIP3   OH236736   1.781   4.122   0.157 -0.2870 -0.0294 -0.2592
 5034TIP3    H136737   1.739   4.204   0.128  0.1777 -0.2062 -1.5155
 5034TIP3    H236738   1.743   4.055   0.100  2.9402  0.0511 -2.8227
 5035TIP3   OH236739   4.673   2.733   8.802 -0.3721  0.5245  0.2787
 5035TIP3    H136740   4.578   2.739   8.801 -0.3452  0.9586 -0.4432
 5035TIP3    H236741   4.698   2.731   8.709  0.1615 -2.2615  0.3718
 5036TIP3   OH236742   1.276   4.259   0.658  0.3778 -0.0586 -0.0318
 5036TIP3    H136743   1.355   4.237   0.708  0.0250  1.3835  1.2373
 5036TIP3    H236744   1.307   4.274   0.569  1.2395 -1.3042  0.0282
 5037TIP3   OH236745   6.733   5.959   8.086  0.4940  0.0632 -0.2355
 5037TIP3    H136746   6.736   6.031   8.023 -0.9691 -0.3950 -0.8726
 5037TIP3    H236747   6.824   5.930   8.092  1.3613  2.7375  1.0289
 5038TIP3   OH236748   0.441   5.418   1.102  0.2695 -0.4979 -0.4015
 5038TIP3    H136749   0.515   5.420   1.041  2.6656 -0.7911  2.2954
 5038TIP3    H236750   0.417   5.510   1.112  0.8955 -0.3033 -0.6030
 5039TIP3   OH236751   1.355   0.830   1.694  0.4328  0.2205 -0.4904
 5039TIP3    H136752   1.291   0.828   1.623  1.0071  0.6723 -1.0325
 5039TIP3    H236753   1.415   0.758   1.675 -0.7418 -1.1783  0.8386
 5040TIP3   OH236754   3.270   5.906   7.355  0.2409  0.3339  0.2310
 5040TIP3    H136755   3.353   5.859   7.360  0.4091  0.6495  0.4432
 5040TIP3    H236756   3.206   5.840   7.327  0.7024  0.2559 -0.6806
 5041TIP3   OH236757   0.485   4.742   1.089  0.5113 -0.5064  0.2240
 5041TIP3    H136758   0.444   4.661   1.119  3.1523 -1.6609  1.0153
 5041TIP3    H236759   0.486   4.734   0.993 -0.7780 -0.5821  0.2082
 5042TIP3   OH236760   1.679   3.629   6.510  0.5214 -0.6247  0.4207
 5042TIP3    H136761   1.626   3.590   6.441  0.4735  0.7708 -0.3694
 5042TIP3    H236762   1.767   3.636   6.471 -0.3613  4.3693 -1.4515
 5043TIP3   OH236763   3.451   0.117   1.182  0.0231  0.1902  0.0992
 5043TIP3    H136764   3.508   0.120   1.259  0.7766 -2.9170 -0.2133
 5043TIP3    H236765   3.362   0.117   1.218  0.3473 -0.2041  0.9074
 5044TIP3   OH236766   6.662   6.522   1.417 -0.5907  0.2855  0.2825
 5044TIP3    H136767   6.699   6.480   1.340  0.7770  0.4509  0.8167
 5044TIP3    H236768   6.635   6.450   1.474 -0.2792  0.1425  0.2511
 5045TIP3   OH236769   2.480   1.385   0.526  0.0933  0.0559  0.1658
 5045TIP3    H136770   2.417   1.435   0.578  0.8605 -0.6577  1.8710
 5045TIP3    H236771   2.560   1.387   0.578  0.7214 -1.2346 -0.6982
 5046TIP3   OH236772   1.372   1.327   7.723  0.0046 -0.0134  0.1730
 5046TIP3    H136773   1.392   1.418   7.745  0.2566  0.4017 -1.6512
 5046TIP3    H236774   1.451   1.279   7.749  0.8788  0.6764 -1.1315
 5047TIP3   OH236775   5.197   3.354   0.658  0.0817 -0.3311 -0.0807
 5047TIP3    H136776   5.286   3.320   0.664 -0.2402 -1.2812 -0.5504
 5047TIP3    H236777   5.206   3.447   0.678  1.3425 -0.1796 -1.2349
 5048TIP3   OH236778   3.604   3.269   7.078 -0.1754  0.2168 -0.8631
 5048TIP3    H136779   3.536   3.207   7.106 -0.4107  0.7221 -0.3161
 5048TIP3    H236780   3.566   3.355   7.093  0.9365  0.5169  0.3158
 5049TIP3   OH236781   1.375   0.495   1.186 -0.0377  0.1198 -0.3034
 5049TIP3    H136782   1.327   0.573   1.158 -1.4761 -1.2044 -1.8019
 5049TIP3    H236783   1.431   0.525   1.257 -1.8982  2.1157  0.4404
 5050TIP3   OH236784   0.797   6.531   1.176  0.0585  0.1632  0.4624
 5050TIP3    H136785   0.875   6.536   1.120  0.1283  0.8533  0.6153
 5050TIP3    H236786   0.787   6.438   1.194  1.7506  0.1752  1.6937
 5051TIP3   OH236787   2.603   3.477   1.524  0.8607  0.8395 -0.1612
 5051TIP3    H136788   2.514   3.490   1.491 -0.0118 -1.6348  0.9798
 5051TIP3    H236789   2.643   3.414   1.464  0.8391 -0.2031  0.8937
 5052TIP3   OH236790   4.432   1.901   1.246  1.0985 -0.1699 -0.7316
 5052TIP3    H136791   4.381   1.955   1.305  0.8026  0.4692 -1.5487
 5052TIP3    H236792   4.413   1.811   1.273 -0.7444  0.0219 -1.2057
 5053TIP3   OH236793   0.420   0.588   2.050 -0.0396 -0.1345  0.4513
 5053TIP3    H136794   0.494   0.599   1.991  0.1452  1.8062  0.9821
 5053TIP3    H236795   0.345   0.624   2.002  0.0474  1.1319  1.2164
 5054TIP3   OH236796   5.715   1.532   8.203 -1.2624 -0.4315 -0.5009
 5054TIP3    H136797   5.668   1.500   8.281 -1.0215 -0.0204 -0.1824
 5054TIP3    H236798   5.712   1.628   8.212 -1.5693 -0.3706 -1.2016
 5055TIP3   OH236799   6.515   1.398   8.764  0.0833 -0.5323  0.0865
 5055TIP3    H136800   6.433   1.350   8.778 -0.5861  0.5221 -0.1247
 5055TIP3    H236801   6.548   1.364   8.681 -1.3866  0.6970 -1.0682
 5056TIP3   OH236802   1.407   2.363   0.841 -0.1456  0.0346 -0.7322
 5056TIP3    H136803   1.393   2.437   0.782 -1.1234  1.0919  0.7624
 5056TIP3    H236804   1.483   2.389   0.894  0.3652 -0.6515 -1.1157
 5057TIP3   OH236805   5.579   1.584   2.113 -0.1663 -0.3889 -0.1454
 5057TIP3    H136806   5.673   1.575   2.100 -0.0514 -0.5080  0.7282
 5057TIP3    H236807   5.569   1.658   2.172 -0.6134 -0.4860 -0.0916
 5058TIP3   OH236808   6.362   3.994   7.553  0.0837  0.0757  0.4363
 5058TIP3    H136809   6.345   3.997   7.647 -0.0781  0.3413  0.3998
 5058TIP3    H236810   6.442   4.045   7.541 -0.5425  1.0495  0.2896
 5059TIP3   OH236811   6.570   4.935   6.500  0.1746  0.3938  0.0534
 5059TIP3    H136812   6.495   4.972   6.545 -0.2714 -1.6251  1.0734
 5059TIP3    H236813   6.551   4.842   6.494  1.1943  0.2733 -2.4855
 5060TIP3   OH236814   6.164   6.134   8.761  0.4780 -0.0317 -0.4877
 5060TIP3    H136815   6.099   6.159   8.828  0.4827  0.0965 -0.5328
 5060TIP3    H236816   6.235   6.095   8.812  0.3838 -0.1377 -0.4341
 5061TIP3   OH236817   5.265   1.052   8.197  0.0624 -0.9205  0.2208
 5061TIP3    H136818   5.246   1.056   8.291 -0.6658 -0.1844  0.0570
 5061TIP3    H236819   5.328   1.123   8.183  1.7565 -2.3128  0.4800
 5062TIP3   OH236820   5.095   0.586   8.470 -0.2616  0.5962  0.8862
 5062TIP3    H136821   5.053   0.506   8.439 -0.1300  0.4785  1.0117
 5062TIP3    H236822   5.023   0.637   8.509 -0.2760  0.3617  1.1702
 5063TIP3   OH236823   1.554   4.503   1.567  0.3439  0.1413 -0.2368
 5063TIP3    H136824   1.459   4.508   1.561  0.1122 -1.1386  1.3808
 5063TIP3    H236825   1.584   4.593   1.571 -0.8543  0.5428 -0.1433
 5064TIP3   OH236826   6.544   5.776   7.859  0.3049 -0.2371 -0.5335
 5064TIP3    H136827   6.480   5.847   7.854 -0.1234 -0.3926  1.7465
 5064TIP3    H236828   6.629   5.819   7.851  0.0383  0.5042  0.5492
 5065TIP3   OH236829   0.449   6.083   1.875  0.9129  0.0931  0.0851
 5065TIP3    H136830   0.466   5.999   1.916  1.0052  1.2547  2.6358
 5065TIP3    H236831   0.358   6.103   1.897  0.7472  0.4885 -0.8887
 5066TIP3   OH236832   6.728   1.827   8.202  0.4696 -0.6193  0.2227
 5066TIP3    H136833   6.797   1.762   8.210  0.2914 -0.8211  0.1177
 5066TIP3    H236834   6.647   1.776   8.191  0.1640 -0.3993  1.3910
 5067TIP3   OH236835   1.021   6.313   7.466 -0.3767 -0.1998  0.0656
 5067TIP3    H136836   1.025   6.321   7.562 -0.8522  1.0238 -0.0062
 5067TIP3    H236837   1.111   6.294   7.440 -0.2866 -0.8236  0.7639
 5068TIP3   OH236838   1.274   0.455   7.570 -0.4026 -0.6996 -0.1538
 5068TIP3    H136839   1.310   0.543   7.567  0.6220 -1.0444  1.0345
 5068TIP3    H236840   1.334   0.402   7.517 -0.0814 -0.9702  0.4690
 5069TIP3   OH236841   2.952   1.042   0.340  0.0552 -0.0519 -0.2868
 5069TIP3    H136842   2.894   0.974   0.373 -0.3910  0.7344  0.5834
 5069TIP3    H236843   2.985   1.086   0.419  1.6196 -0.2997 -0.7683
 5070TIP3   OH236844   4.511   1.560   0.316  0.2080  0.0847  0.3582
 5070TIP3    H136845   4.577   1.560   0.247  1.3739 -0.3534  1.4239
 5070TIP3    H236846   4.524   1.643   0.362 -1.7676  1.2184 -1.0017
 5071TIP3   OH236847   4.278   1.980   0.386  0.0240  0.1280 -0.2698
 5071TIP3    H136848   4.284   1.908   0.322 -0.0139 -1.9286  1.8953
 5071TIP3    H236849   4.186   2.008   0.381 -0.1929 -0.6014 -0.5389
 5072TIP3   OH236850   1.071   3.198   0.115  0.0365  0.0851 -0.3755
 5072TIP3    H136851   1.116   3.122   0.079 -1.9228 -0.7126 -1.2548
 5072TIP3    H236852   0.987   3.165   0.145 -0.7662  1.8469 -0.5333
 5073TIP3   OH236853   0.606   4.349   6.516 -0.1859 -0.7155  0.2888
 5073TIP3    H136854   0.695   4.341   6.480 -0.9654 -0.2682 -1.8533
 5073TIP3    H236855   0.603   4.437   6.553  0.4647 -0.9781  0.9852
 5074TIP3   OH236856   3.700   1.916   7.174  0.3755  0.9664  0.0798
 5074TIP3    H136857   3.739   1.837   7.211  1.0937  2.1168  1.9050
 5074TIP3    H236858   3.767   1.984   7.185 -0.4992  2.0211 -0.7546
 5075TIP3   OH236859   6.148   6.809   0.360  0.5719 -0.8068 -0.0029
 5075TIP3    H136860   6.192   6.742   0.412 -2.0840  0.0809  3.7346
 5075TIP3    H236861   6.218   6.869   0.334  2.1529 -1.5651  2.2101
 5076TIP3   OH236862   6.616   4.274   7.719 -0.4871  0.4381 -0.0597
 5076TIP3    H136863   6.635   4.206   7.783 -3.1211  0.2840  0.6829
 5076TIP3    H236864   6.628   4.231   7.634 -2.0888 -1.0115  0.4019
 5077TIP3   OH236865   0.667   1.288   0.538  0.4016  0.4139 -0.1158
 5077TIP3    H136866   0.669   1.315   0.630 -0.2352 -0.3589  0.1373
 5077TIP3    H236867   0.759   1.281   0.513  0.5844  1.4800  0.2005
 5078TIP3   OH236868   3.037   1.470   8.015 -0.2875  0.7560  0.0640
 5078TIP3    H136869   3.004   1.419   7.941 -0.6032  1.4711 -0.2911
 5078TIP3    H236870   3.002   1.558   8.001  0.4708  1.1356  0.5335
 5079TIP3   OH236871   5.020   5.252   1.496  0.0528  0.4496 -0.1567
 5079TIP3    H136872   5.050   5.272   1.584 -0.0643  0.1401 -0.0437
 5079TIP3    H236873   4.987   5.335   1.462 -2.0333  0.1250  0.9299
 5080TIP3   OH236874   4.231   0.756   7.252 -0.2639 -0.5369 -0.0484
 5080TIP3    H136875   4.298   0.791   7.194  1.8900 -2.2844  1.2462
 5080TIP3    H236876   4.150   0.761   7.200  0.9777  0.8272 -1.9911
 5081TIP3   OH236877   2.647   0.699   1.583 -0.2831  0.1936 -0.2416
 5081TIP3    H136878   2.675   0.669   1.496 -1.5540  0.9118 -0.9311
 5081TIP3    H236879   2.568   0.647   1.602  0.2892 -0.3436  0.7444
 5082TIP3   OH236880   5.439   6.206   0.482  0.1348 -0.2025  0.3062
 5082TIP3    H136881   5.344   6.222   0.484  0.3594  1.2269  0.9021
 5082TIP3    H236882   5.475   6.271   0.543  1.4126 -1.4436  0.9269
 5083TIP3   OH236883   5.261   3.014   6.607 -0.5238 -0.0468  0.0936
 5083TIP3    H136884   5.304   3.075   6.667 -0.8281 -0.2305  0.5014
 5083TIP3    H236885   5.332   2.979   6.553 -0.2620  0.1957  0.2794
 5084TIP3   OH236886   0.110   3.202   8.003  0.6297  0.0279  0.1460
 5084TIP3    H136887   0.121   3.164   8.090  3.5035  1.9433  0.7567
 5084TIP3    H236888   0.193   3.184   7.958 -0.1112  0.6363 -1.5532
 5085TIP3   OH236889   4.086   2.964   0.393 -0.2717 -0.4104  0.1279
 5085TIP3    H136890   4.008   2.988   0.342 -0.5220 -2.2807 -0.4285
 5085TIP3    H236891   4.057   2.966   0.484 -0.6213  0.0663  0.0117
 5086TIP3   OH236892   1.474   5.542   7.003  0.5481 -0.0197 -0.0122
 5086TIP3    H136893   1.437   5.459   7.031 -1.8772  1.3769  1.3082
 5086TIP3    H236894   1.402   5.605   7.013  2.5701  2.4555  0.1472
 5087TIP3   OH236895   1.834   0.616   1.637  0.4409 -0.2077 -0.2301
 5087TIP3    H136896   1.894   0.542   1.623  0.0857 -0.3593 -0.9953
 5087TIP3    H236897   1.797   0.633   1.551  1.9103  2.0911 -0.4990
 5088TIP3   OH236898   6.400   5.876   1.943  0.3623  0.0060  0.3809
 5088TIP3    H136899   6.414   5.910   1.855 -0.8807  0.5515  0.3662
 5088TIP3    H236900   6.309   5.899   1.963  0.9956  1.1005  2.3210
 5089TIP3   OH236901   6.461   5.460   7.254 -0.7577 -0.4256  0.3936
 5089TIP3    H136902   6.469   5.555   7.245  0.3320 -0.4024  1.3183
 5089TIP3    H236903   6.426   5.431   7.171  0.0713  0.6620 -0.3676
 5090TIP3   OH236904   2.035   5.001   0.392 -0.1801 -0.0721 -0.3906
 5090TIP3    H136905   2.061   5.040   0.476  1.3544  0.5123 -1.1124
 5090TIP3    H236906   2.114   5.004   0.338 -0.8960 -1.2750 -1.5664
 5091TIP3   OH236907   5.994   2.720   8.433 -0.1548  0.1951  0.1556
 5091TIP3    H136908   5.933   2.724   8.359 -0.3939  1.9975  0.4282
 5091TIP3    H236909   6.052   2.794   8.421  0.7055 -0.3133  1.0315
 5092TIP3   OH236910   1.753   0.615   7.801 -0.5122 -0.5269 -0.2532
 5092TIP3    H136911   1.711   0.666   7.732  1.5522  0.3277 -0.9536
 5092TIP3    H236912   1.822   0.566   7.756  0.6233 -0.2569  1.1330
 5093TIP3   OH236913   4.309   5.148   7.819  0.2306  0.0638 -0.0549
 5093TIP3    H136914   4.215   5.142   7.839  0.0345  2.1746 -0.0878
 5093TIP3    H236915   4.351   5.160   7.904  0.2257  1.1850 -0.1939
 5094TIP3   OH236916   4.135   0.411   1.123  0.1053 -0.0824 -0.4122
 5094TIP3    H136917   4.228   0.409   1.101  0.1028 -0.7439 -0.4107
 5094TIP3    H236918   4.119   0.499   1.156  1.1227 -0.4972  1.2746
 5095TIP3   OH236919   1.642   4.200   6.105 -0.2635  0.2922  0.2807
 5095TIP3    H136920   1.599   4.285   6.092  2.4139  2.0422  2.0366
 5095TIP3    H236921   1.735   4.221   6.116  0.2586 -2.6258  2.8040
 5096TIP3   OH236922   1.976   5.810   2.205  0.1501 -0.0815  0.2298
 5096TIP3    H136923   2.021   5.754   2.268 -2.2254 -2.5957 -0.0573
 5096TIP3    H236924   2.034   5.814   2.130  1.0401 -0.9721  0.8486
 5097TIP3   OH236925   6.276   4.274   1.832  0.0283 -0.5904 -0.1020
 5097TIP3    H136926   6.266   4.344   1.767  1.1319  1.0409  1.4095
 5097TIP3    H236927   6.217   4.299   1.903  0.6984 -0.9858  0.6067
 5098TIP3   OH236928   6.406   2.756   1.223 -0.0887  0.4495 -0.7505
 5098TIP3    H136929   6.347   2.830   1.238  0.1709  0.5622 -0.2807
 5098TIP3    H236930   6.453   2.779   1.142 -2.0572 -0.5258 -2.2634
 5099TIP3   OH236931   2.067   2.939   8.792  0.0855  0.5584 -0.0171
 5099TIP3    H136932   2.049   2.922   8.700 -0.5176  0.0193  0.1977
 5099TIP3    H236933   1.980   2.948   8.832  0.3095 -0.5248  0.7451
 5100TIP3   OH236934   2.139   1.779   0.776 -0.1665 -0.2108 -0.3686
 5100TIP3    H136935   2.170   1.730   0.700  0.0897 -0.4101 -0.1412
 5100TIP3    H236936   2.132   1.869   0.746  0.1220 -0.2542 -0.5725
 5101TIP3   OH236937   1.789   4.401   8.161 -0.0610 -0.5954  0.3195
 5101TIP3    H136938   1.719   4.389   8.225 -2.0706 -1.5945 -1.9312
 5101TIP3    H236939   1.770   4.485   8.120  1.3410  0.1437  1.0997
 5102TIP3   OH236940   4.782   0.878   8.377  0.0676  0.2121 -0.3318
 5102TIP3    H136941   4.766   0.971   8.363  0.0925  0.3002  0.2130
 5102TIP3    H236942   4.794   0.842   8.289 -0.2993  0.6576 -0.5641
 5103TIP3   OH236943   0.432   4.465   8.505 -0.1478 -0.5661 -0.0202
 5103TIP3    H136944   0.441   4.474   8.410  2.0853 -1.1782  0.0823
 5103TIP3    H236945   0.413   4.373   8.519  0.3787 -0.6533  0.1520
 5104TIP3   OH236946   4.007   6.167   2.176 -0.3106  0.6449 -0.0924
 5104TIP3    H136947   3.970   6.213   2.101 -0.7983  1.1361  0.4407
 5104TIP3    H236948   4.074   6.110   2.138  1.4826  2.9674 -0.6352
 5105TIP3   OH236949   4.705   0.179   7.269  0.0698  0.4080 -0.0277
 5105TIP3    H136950   4.628   0.158   7.322 -0.0359 -0.2185 -0.4176
 5105TIP3    H236951   4.670   0.197   7.182  0.1632  2.1888  0.2597
 5106TIP3   OH236952   4.393   0.461   6.981 -0.7024  0.2445  0.4692
 5106TIP3    H136953   4.298   0.456   6.979 -0.6189 -1.7767  0.0937
 5106TIP3    H236954   4.421   0.453   6.890 -0.1544  1.4614  0.4964
 5107TIP3   OH236955   3.693   4.130   6.854 -0.5292  0.4949 -0.5230
 5107TIP3    H136956   3.753   4.205   6.850 -0.0463  0.1041 -0.6925
 5107TIP3    H236957   3.680   4.105   6.762  0.3984 -0.4783 -0.4067
 5108TIP3   OH236958   6.722   6.658   7.961  0.1230 -0.1818  0.3270
 5108TIP3    H136959   6.653   6.600   7.991 -1.1185 -0.0059 -1.9577
 5108TIP3    H236960   6.678   6.740   7.940  1.2427  0.3807  0.0911
 5109TIP3   OH236961   6.055   3.158   1.255 -0.0566  0.3370  0.2919
 5109TIP3    H136962   6.005   3.089   1.211 -0.5850 -0.4451  2.0512
 5109TIP3    H236963   6.146   3.131   1.245 -0.1817  0.0639 -0.1441
 5110TIP3   OH236964   5.454   5.218   1.255  0.0198  0.4947  0.4158
 5110TIP3    H136965   5.529   5.179   1.212 -0.3314 -0.2802  0.4844
 5110TIP3    H236966   5.464   5.194   1.347  1.3776  3.0940  1.0332
 5111TIP3   OH236967   3.406   5.615   8.347  0.0746 -0.3668  0.4059
 5111TIP3    H136968   3.446   5.688   8.395  0.2690  0.1695 -0.5553
 5111TIP3    H236969   3.330   5.654   8.303  0.8079 -0.4741 -1.0063
 5112TIP3   OH236970   2.495   4.064   5.931 -0.1081  0.2646 -0.1529
 5112TIP3    H136971   2.543   4.027   6.005  0.5592 -0.7928 -1.0981
 5112TIP3    H236972   2.432   3.996   5.907 -2.2599  1.6556  1.1347
 5113TIP3   OH236973   1.279   6.401   1.337 -0.0068 -0.4870  0.3295
 5113TIP3    H136974   1.299   6.494   1.328  0.0050 -0.5567 -0.4278
 5113TIP3    H236975   1.298   6.364   1.250 -0.9088 -1.0270  0.3547
 5114TIP3   OH236976   3.983   4.026   1.415 -0.1371 -0.4201  0.2052
 5114TIP3    H136977   3.992   3.958   1.482 -0.0404  0.0459  0.6705
 5114TIP3    H236978   3.893   4.017   1.384 -0.1894 -0.6207  0.4102
 5115TIP3   OH236979   4.593   0.910   1.703 -0.4629  0.1153 -0.0428
 5115TIP3    H136980   4.548   0.858   1.770  1.3546 -0.3008  0.9443
 5115TIP3    H236981   4.535   0.985   1.688 -2.3274 -1.2895 -0.2375
 5116TIP3   OH236982   6.503   0.815   6.791 -0.2116 -0.1178  0.9702
 5116TIP3    H136983   6.423   0.777   6.827 -0.3902 -0.1457  0.5536
 5116TIP3    H236984   6.572   0.755   6.816 -0.5035 -0.7754  0.2378
 5117TIP3   OH236985   2.538   3.677   1.278 -0.3967 -0.0710 -0.1336
 5117TIP3    H136986   2.598   3.695   1.205 -1.0521  1.6024 -0.3098
 5117TIP3    H236987   2.561   3.589   1.307  2.6553  0.7529  0.2997
 5118TIP3   OH236988   3.240   3.209   6.628  0.0101 -0.2375  0.0335
 5118TIP3    H136989   3.315   3.266   6.613  0.4537 -1.0121 -0.7920
 5118TIP3    H236990   3.224   3.214   6.723  1.2016 -0.1767  0.2441
 5119TIP3   OH236991   6.163   6.092   6.537  0.4590  0.3486  0.2433
 5119TIP3    H136992   6.077   6.122   6.567  1.4445  2.1250  1.4721
 5119TIP3    H236993   6.145   6.007   6.497 -2.0852  1.2903 -0.8812
 5120TIP3   OH236994   0.991   1.543   7.586  0.5210  0.3410 -0.9773
 5120TIP3    H136995   1.033   1.461   7.561  0.0996 -0.3225  0.4087
 5120TIP3    H236996   0.916   1.517   7.638  0.8360  1.6142  0.1825
 5121TIP3   OH236997   1.882   4.315   6.688  0.1225 -0.3721 -0.0884
 5121TIP3    H136998   1.958   4.344   6.638  0.2801 -0.3129  0.1793
 5121TIP3    H236999   1.812   4.374   6.662  0.5959  0.6803  0.9271
 5122TIP3   OH237000   0.891   0.717   2.824  0.4462 -0.5019 -0.1075
 5122TIP3    H137001   0.800   0.706   2.796 -0.0527 -0.3998  1.4071
 5122TIP3    H237002   0.890   0.794   2.881  1.7891  0.4651 -1.3074
 5123TIP3   OH237003   3.498   1.440   1.466  0.1920 -0.3116  0.3810
 5123TIP3    H137004   3.592   1.426   1.458  0.2283 -0.3340  0.8351
 5123TIP3    H237005   3.489   1.500   1.540 -0.1886 -0.7890  0.7261
 5124TIP3   OH237006   6.476   6.253   6.954 -0.1297 -0.5575 -0.5142
 5124TIP3    H137007   6.551   6.194   6.954 -0.8706 -1.5285 -0.3901
 5124TIP3    H237008   6.435   6.240   7.039 -1.6715 -1.6789 -1.3809
 5125TIP3   OH237009   2.635   4.131   0.936 -0.2503  0.2171 -0.1640
 5125TIP3    H137010   2.601   4.216   0.909 -1.4244 -0.7977 -2.0983
 5125TIP3    H237011   2.619   4.127   1.030 -2.0302  1.3128 -0.3802
 5126TIP3   OH237012   5.992   1.349   0.593  0.2750  0.2393 -0.8724
 5126TIP3    H137013   5.993   1.392   0.678  0.8976  1.3213 -1.4081
 5126TIP3    H237014   6.078   1.368   0.555  0.3907 -1.0782 -1.3347
 5127TIP3   OH237015   1.893   2.674   2.008  0.0163  0.1407 -0.4311
 5127TIP3    H137016   1.826   2.700   2.070  0.8939 -0.3748  0.7739
 5127TIP3    H237017   1.868   2.585   1.981 -0.0085  0.1028 -0.2842
 5128TIP3   OH237018   6.454   0.031   0.557  0.4843 -0.3991  0.1031
 5128TIP3    H137019   6.459   0.029   0.653  3.0336 -0.8624  0.0477
 5128TIP3    H237020   6.544   0.017   0.528 -0.0402  0.6784 -2.3753
 5129TIP3   OH237021   5.975   4.220   0.275  0.4136 -0.2863 -0.0983
 5129TIP3    H137022   5.955   4.221   0.369  0.0597 -0.5129 -0.1688
 5129TIP3    H237023   5.915   4.155   0.238  0.6785 -0.3319 -0.4548
 5130TIP3   OH237024   4.885   4.312   0.112 -0.2485  0.3096  0.0563
 5130TIP3    H137025   4.888   4.276   0.024 -1.0452  0.3482  0.0096
 5130TIP3    H237026   4.913   4.403   0.101 -1.8078  0.7590 -0.4105
 5131TIP3   OH237027   2.043   3.876   1.948 -0.4099 -0.4016  0.2631
 5131TIP3    H137028   2.102   3.937   1.902 -1.2431  1.6432  1.7726
 5131TIP3    H237029   1.963   3.877   1.896  0.0057 -1.2459 -0.4174
 5132TIP3   OH237030   3.365   2.893   7.307  0.3221 -0.0597 -0.0359
 5132TIP3    H137031   3.322   2.881   7.392 -0.6787  0.5804 -0.4395
 5132TIP3    H237032   3.421   2.816   7.298 -0.4515 -0.7289  0.6681
 5133TIP3   OH237033   1.721   2.973   7.516  0.1348 -1.0629  0.2793
 5133TIP3    H137034   1.807   3.004   7.544  0.1329 -0.9378  0.1508
 5133TIP3    H237035   1.688   3.043   7.458  0.0601 -1.2299  0.1199
 5134TIP3   OH237036   4.337   5.061   1.004  0.1095  0.3841  0.3096
 5134TIP3    H137037   4.417   5.089   0.962 -0.2895  0.9806 -0.0545
 5134TIP3    H237038   4.274   5.132   0.989 -0.1951  0.3870  1.4513
 5135TIP3   OH237039   1.870   2.346   7.269 -0.1568 -0.3619 -0.3203
 5135TIP3    H137040   1.842   2.349   7.177 -0.2348 -1.5411 -0.3511
 5135TIP3    H237041   1.912   2.431   7.284  0.2590 -0.3185 -1.5787
 5136TIP3   OH237042   0.105   3.371   2.009  0.4152  0.1653  0.2441
 5136TIP3    H137043   0.102   3.301   2.074 -0.4250  2.2758  2.6624
 5136TIP3    H237044   0.175   3.430   2.040  1.2432  0.3308 -1.8220
 5137TIP3   OH237045   3.375   4.681   7.896 -0.3021  0.8258 -0.4821
 5137TIP3    H137046   3.413   4.721   7.974 -0.4575  0.1326 -0.0466
 5137TIP3    H237047   3.423   4.721   7.823 -1.0714  2.4760 -0.1152
 5138TIP3   OH237048   4.116   1.899   7.472  0.0500  0.4778  0.5231
 5138TIP3    H137049   4.133   1.946   7.391 -0.0576 -2.1473 -1.1204
 5138TIP3    H237050   4.196   1.850   7.490 -0.8034 -0.9541  0.5566
 5139TIP3   OH237051   2.644   3.346   7.396 -0.1277  0.5437 -0.1590
 5139TIP3    H137052   2.681   3.351   7.308  0.9127  1.1825  0.2865
 5139TIP3    H237053   2.549   3.342   7.383 -0.0678  1.9303 -1.2842
 5140TIP3   OH237054   1.853   5.005   1.869 -0.0778 -0.5182  0.0009
 5140TIP3    H137055   1.832   5.042   1.783 -1.4900 -0.2883  0.4300
 5140TIP3    H237056   1.878   5.081   1.922  0.6112 -0.6397 -0.1326
 5141TIP3   OH237057   5.726   2.701   0.380 -0.2352  0.3104 -0.2848
 5141TIP3    H137058   5.793   2.660   0.325 -0.8007 -0.0356 -0.7129
 5141TIP3    H237059   5.678   2.759   0.321 -0.2110  0.6870  0.0602
 5142TIP3   OH237060   3.046   4.668   0.588  0.0881  0.6110  0.3022
 5142TIP3    H137061   2.961   4.627   0.602  0.4238  0.3134  1.6741
 5142TIP3    H237062   3.078   4.685   0.677  0.6431  2.4224 -0.2147
 5143TIP3   OH237063   3.684   2.261   6.557 -0.2053  0.2597  0.1255
 5143TIP3    H137064   3.590   2.243   6.561  0.1011 -1.2512  1.4794
 5143TIP3    H237065   3.712   2.223   6.474 -0.6772  0.0997  0.0350
 5144TIP3   OH237066   4.992   6.596   1.135 -0.0860 -0.3313  0.2807
 5144TIP3    H137067   5.065   6.566   1.190  2.2121 -0.5522 -2.6289
 5144TIP3    H237068   4.923   6.618   1.197  2.3726 -0.2498  3.2341
 5145TIP3   OH237069   4.831   6.022   8.660 -0.0372 -0.6216 -0.4470
 5145TIP3    H137070   4.911   6.071   8.642 -0.1791 -0.1878  0.1122
 5145TIP3    H237071   4.821   5.965   8.583  1.0085 -0.9549 -0.3543
 5146TIP3   OH237072   1.784   1.377   7.565 -0.0160  0.0047 -0.6924
 5146TIP3    H137073   1.765   1.415   7.479 -1.0183  0.9596 -0.0720
 5146TIP3    H237074   1.880   1.373   7.569  0.0541 -1.2116 -2.3211
 5147TIP3   OH237075   5.601   5.298   7.155 -0.5695 -0.1661  0.2317
 5147TIP3    H137076   5.622   5.373   7.101  0.3283 -0.6767 -0.1478
 5147TIP3    H237077   5.655   5.309   7.234  0.1495 -0.7912 -0.1599
 5148TIP3   OH237078   1.896   1.350   0.885 -0.2133  0.1421 -0.1267
 5148TIP3    H137079   1.853   1.416   0.830  2.2861  1.8278 -0.2245
 5148TIP3    H237080   1.868   1.372   0.974 -1.3420 -0.2537 -0.3699
 5149TIP3   OH237081   1.673   3.454   8.105 -0.0778  0.1845  0.2598
 5149TIP3    H137082   1.709   3.498   8.182 -0.0329  0.8460 -0.1385
 5149TIP3    H237083   1.586   3.425   8.133 -0.0497  0.3974  0.5688
 5150TIP3   OH237084   0.158   1.219   1.504 -0.4124 -0.4909 -0.4494
 5150TIP3    H137085   0.236   1.186   1.548 -0.2993  0.3105 -0.0279
 5150TIP3    H237086   0.111   1.140   1.476 -0.4373 -1.0283  1.0132
 5151TIP3   OH237087   3.996   2.280   1.351  0.1093 -0.1870 -0.0901
 5151TIP3    H137088   3.924   2.249   1.295  0.3724 -3.8900  1.3247
 5151TIP3    H237089   3.953   2.318   1.427 -0.2277  1.8212 -1.1946
 5152TIP3   OH237090   2.305   1.101   0.882 -0.0948 -0.7095  0.5532
 5152TIP3    H137091   2.330   1.034   0.945  0.7541 -0.0802  0.8953
 5152TIP3    H237092   2.371   1.096   0.813 -1.6406 -2.1771 -0.9332
 5153TIP3   OH237093   6.077   2.154   2.112  0.1244 -0.2647  0.1076
 5153TIP3    H137094   6.030   2.178   2.192  0.8848  0.4539  0.3510
 5153TIP3    H237095   6.149   2.216   2.107  1.0144 -1.3008 -0.3000
 5154TIP3   OH237096   3.410   5.765   1.675 -0.0364  0.1510 -0.1657
 5154TIP3    H137097   3.500   5.750   1.704 -0.6943 -2.6976  0.6739
 5154TIP3    H237098   3.361   5.779   1.757 -0.6386 -0.0914 -0.4806
 5155TIP3   OH237099   0.871   0.600   1.289 -0.7429  0.5680 -0.0640
 5155TIP3    H137100   0.858   0.609   1.383  0.2234 -1.2360  0.2979
 5155TIP3    H237101   0.847   0.685   1.253 -4.1377  0.4399  1.4373
 5156TIP3   OH237102   2.957   0.031   0.087 -0.0031  0.6969  0.5054
 5156TIP3    H137103   2.997   0.110   0.122  1.7708  0.9839 -1.9059
 5156TIP3    H237104   2.950   0.047  -0.007 -0.3213 -1.6955  0.0616
 5157TIP3   OH237105   4.217   4.880   7.424  0.8663  0.6063 -0.0276
 5157TIP3    H137106   4.169   4.953   7.464 -0.4661 -0.4185  0.3036
 5157TIP3    H237107   4.232   4.909   7.334 -1.3331  0.5620 -0.4646
 5158TIP3   OH237108   4.030   1.148   7.558 -0.1207  0.5212 -0.3336
 5158TIP3    H137109   4.120   1.114   7.558 -1.0570 -2.1656 -0.1593
 5158TIP3    H237110   3.988   1.105   7.633 -2.7073 -1.8570 -2.8877
 5159TIP3   OH237111   2.970   2.481   0.455  0.3514  0.1219  0.1257
 5159TIP3    H137112   2.898   2.467   0.393  0.4146 -2.5268  0.5286
 5159TIP3    H237113   2.983   2.576   0.456 -1.0765  0.4248 -2.2690
 5160TIP3   OH237114   1.097   1.281   7.755  0.0832 -0.4688  0.1470
 5160TIP3    H137115   1.070   1.290   7.664  1.0593 -1.6235 -0.2957
 5160TIP3    H237116   1.193   1.287   7.752  0.0539  1.3185  1.3548
 5161TIP3   OH237117   4.621   1.815   7.160  0.1156  0.0997 -0.2506
 5161TIP3    H137118   4.544   1.867   7.136  0.2994  0.4598 -0.0779
 5161TIP3    H237119   4.685   1.836   7.092  0.5160  0.8449  0.3327
 5162TIP3   OH237120   4.882   5.126   2.124  0.1322  0.3011 -0.2093
 5162TIP3    H137121   4.891   5.213   2.164 -0.4827  0.5788 -0.6579
 5162TIP3    H237122   4.963   5.080   2.149  0.0681  0.6914  0.7764
 5163TIP3   OH237123   2.420   0.031   7.132  0.2246  0.0305  0.0007
 5163TIP3    H137124   2.399  -0.046   7.079  1.6384  0.4015 -1.1828
 5163TIP3    H237125   2.370   0.102   7.092 -0.3154 -0.0725  0.4795
 5164TIP3   OH237126   0.127   2.493   8.265 -0.0375 -0.5701  0.2330
 5164TIP3    H137127   0.185   2.568   8.279 -1.0723  0.1642  0.7052
 5164TIP3    H237128   0.050   2.530   8.222  0.3315 -1.7295 -1.5587
 5165TIP3   OH237129   0.955   1.828   6.188  0.4639  0.3145  0.6397
 5165TIP3    H137130   0.988   1.740   6.173  1.0156  0.8512 -1.6528
 5165TIP3    H237131   0.859   1.819   6.187  0.5201 -0.3779  1.3118
 5166TIP3   OH237132   2.031   4.785   0.837 -0.0559 -0.0157  0.6837
 5166TIP3    H137133   1.983   4.866   0.849 -0.9589 -0.1642 -1.4476
 5166TIP3    H237134   2.105   4.791   0.897 -0.2869  2.2327  0.8083
 5167TIP3   OH237135   3.329   3.070   0.526 -0.0706 -0.3427 -0.2469
 5167TIP3    H137136   3.327   3.097   0.434 -0.4708 -1.5453 -0.6146
 5167TIP3    H237137   3.363   2.980   0.524  0.4400 -0.1835  0.8364
 5168TIP3   OH237138   6.629   6.303   2.495 -0.0073 -0.1838  0.4157
 5168TIP3    H137139   6.708   6.333   2.540  0.2643 -2.8825  1.9498
 5168TIP3    H237140   6.660   6.238   2.431 -0.9293 -1.1810  0.9454
 5169TIP3   OH237141   5.806   3.231   7.516 -0.0777 -0.0787 -0.1392
 5169TIP3    H137142   5.844   3.218   7.603 -0.8070  1.4012  0.4342
 5169TIP3    H237143   5.876   3.270   7.464  0.2769 -0.7161 -0.1485
 5170TIP3   OH237144   6.726   6.814   0.527  0.1632  0.4392  0.2848
 5170TIP3    H137145   6.794   6.868   0.487  1.4794 -1.8084 -0.7096
 5170TIP3    H237146   6.725   6.734   0.474  0.1167 -1.5980  3.1264
 5171TIP3   OH237147   4.914   6.489   0.465 -0.8694 -0.2648 -0.1963
 5171TIP3    H137148   5.003   6.459   0.483 -0.7687 -0.9623 -1.6879
 5171TIP3    H237149   4.885   6.530   0.546  0.3906 -1.0487  0.6765
 5172TIP3   OH237150   2.024   3.049   7.386 -0.3304  0.5050 -0.0717
 5172TIP3    H137151   2.045   3.025   7.476  0.0134  2.7381  0.4829
 5172TIP3    H237152   2.001   2.965   7.344  1.2659 -0.8375  1.5772
 5173TIP3   OH237153   0.388   5.463   1.377 -0.1162  0.2245 -0.1829
 5173TIP3    H137154   0.443   5.424   1.309 -0.7431 -1.2114  0.1064
 5173TIP3    H237155   0.442   5.458   1.456  1.8306  4.5489 -0.9528
 5174TIP3   OH237156   3.424   0.341   8.215  0.1336  0.0745  0.3684
 5174TIP3    H137157   3.497   0.281   8.200  0.5446  0.1990  1.8032
 5174TIP3    H237158   3.362   0.291   8.268  0.5686  0.9616  1.7477
 5175TIP3   OH237159   4.586   0.044   2.146 -0.2702 -0.2814  0.2448
 5175TIP3    H137160   4.536  -0.022   2.194 -1.5967 -0.1977 -0.9699
 5175TIP3    H237161   4.552   0.128   2.177 -0.1579 -0.2072  0.1676
 5176TIP3   OH237162   3.882   4.589   7.800 -0.8220  0.2686  0.0687
 5176TIP3    H137163   3.919   4.633   7.876  0.4662 -1.7507  0.6813
 5176TIP3    H237164   3.808   4.540   7.835  1.0121 -2.3518  0.5504
 5177TIP3   OH237165   3.341   2.149   8.064 -0.1073  0.4939  0.0060
 5177TIP3    H137166   3.414   2.093   8.090 -0.6546 -0.6404 -0.8057
 5177TIP3    H237167   3.265   2.110   8.107 -0.8973 -0.9035 -2.4717
 5178TIP3   OH237168   4.400   2.652   8.763 -0.0925 -0.0618 -0.2692
 5178TIP3    H137169   4.398   2.595   8.686  0.2383 -1.2015  0.5301
 5178TIP3    H237170   4.339   2.723   8.743 -0.3112 -0.5503 -1.4046
 5179TIP3   OH237171   5.903   0.782   0.440  0.5870  0.2389 -0.4728
 5179TIP3    H137172   5.853   0.746   0.514 -0.3374 -0.2831 -1.3355
 5179TIP3    H237173   5.843   0.841   0.396  0.6905 -0.4462 -1.5701
 5180TIP3   OH237174   5.051   6.706   6.560  0.5921  0.3785  0.0099
 5180TIP3    H137175   5.067   6.657   6.641  2.0131 -0.0720 -0.5192
 5180TIP3    H237176   5.045   6.798   6.589 -0.9175  0.0482  0.8546
 5181TIP3   OH237177   6.752   1.063   8.714 -0.3496  0.4330 -0.3551
 5181TIP3    H137178   6.774   1.131   8.650  2.2719  0.0338  0.0215
 5181TIP3    H237179   6.799   1.088   8.793 -0.2387 -1.1998  0.1448
 5182TIP3   OH237180   6.545   6.575   8.679 -0.7289 -0.1579  0.0728
 5182TIP3    H137181   6.631   6.556   8.642 -0.5539 -0.4271  0.6006
 5182TIP3    H237182   6.493   6.606   8.605 -0.0266  0.4952 -0.1620
 5183TIP3   OH237183   2.160   2.192   1.251 -0.5314 -0.3232  0.2382
 5183TIP3    H137184   2.153   2.136   1.174 -0.7052 -2.2638  1.6041
 5183TIP3    H237185   2.213   2.142   1.313 -1.4741  0.6024  1.8714
 5184TIP3   OH237186   4.740   5.469   0.544  0.1072 -0.2654  0.6674
 5184TIP3    H137187   4.703   5.507   0.624 -0.7439 -1.9015  1.0970
 5184TIP3    H237188   4.689   5.508   0.473  0.3638  0.6306  0.9648
 5185TIP3   OH237189   1.292   3.446   8.613  0.2337  0.0755  0.4793
 5185TIP3    H137190   1.203   3.430   8.645  0.0395  2.9084  1.6700
 5185TIP3    H237191   1.348   3.403   8.677 -0.2587  0.2992  1.0729
 5186TIP3   OH237192   1.609   3.307   0.952  0.0530 -0.2417 -0.2125
 5186TIP3    H137193   1.557   3.236   0.913  0.2299 -1.3639  1.5057
 5186TIP3    H237194   1.561   3.330   1.032 -0.0786  1.7169 -0.8173
 5187TIP3   OH237195   3.527   2.406   1.303  0.0036 -0.9797 -0.4222
 5187TIP3    H137196   3.519   2.320   1.344 -0.7763 -0.4642  0.5378
 5187TIP3    H237197   3.457   2.458   1.341  0.4533  0.0893 -1.0023
 5188TIP3   OH237198   1.467   6.170   0.784 -0.3137 -0.4779 -0.2671
 5188TIP3    H137199   1.556   6.196   0.807 -0.3986 -1.2634  1.0580
 5188TIP3    H237200   1.412   6.243   0.811 -0.1812 -0.4848  0.0230
 5189TIP3   OH237201   1.881   5.048   0.773 -0.3128  0.2948 -0.3340
 5189TIP3    H137202   1.939   5.084   0.705 -1.2572  0.5492 -1.0200
 5189TIP3    H237203   1.840   4.973   0.730 -0.6905  0.2763  0.0661
 5190TIP3   OH237204   2.341   3.477   1.898  0.0365  0.1156 -0.4693
 5190TIP3    H137205   2.251   3.507   1.903  0.4287  1.0696  1.6294
 5190TIP3    H237206   2.394   3.557   1.905  1.0531 -0.5393 -0.4162
 5191TIP3   OH237207   4.757   6.156   7.300  0.2866 -0.4272  0.1028
 5191TIP3    H137208   4.768   6.179   7.392 -0.4540 -0.8365  0.3074
 5191TIP3    H237209   4.705   6.227   7.263  0.9914 -0.0190 -0.1270
 5192TIP3   OH237210   2.693   0.098   1.790 -0.3459 -0.1533  0.1156
 5192TIP3    H137211   2.752   0.036   1.746 -1.3071 -1.5061  0.6327
 5192TIP3    H237212   2.708   0.083   1.884 -1.1358 -0.1731  0.2519
 5193TIP3   OH237213   5.630   3.804   7.178 -0.4148  0.6321  0.4989
 5193TIP3    H137214   5.724   3.789   7.171 -0.4706  0.6674 -0.6088
 5193TIP3    H237215   5.609   3.786   7.269  0.3360 -1.2862  0.3263
 5194TIP3   OH237216   1.604   5.982   1.753 -0.3124  0.4252 -0.3834
 5194TIP3    H137217   1.626   5.910   1.812 -3.3410  0.7415  1.3113
 5194TIP3    H237218   1.672   6.048   1.771  1.8167 -1.4367 -1.1146
 5195TIP3   OH237219   0.608   1.716   6.994 -0.1350  0.1271  0.6047
 5195TIP3    H137220   0.615   1.802   6.952 -3.1474  0.0201 -0.3776
 5195TIP3    H237221   0.633   1.731   7.085  3.1699  1.1285 -0.3357
 5196TIP3   OH237222   5.503   0.123   1.948 -0.5190 -0.6005 -0.7893
 5196TIP3    H137223   5.589   0.097   1.981 -1.0389 -1.0096  0.3291
 5196TIP3    H237224   5.512   0.123   1.853  0.8749 -0.0324 -0.6791
 5197TIP3   OH237225   6.386   6.424   6.767 -0.5160  0.4474 -0.5580
 5197TIP3    H137226   6.294   6.422   6.791 -0.5708 -0.6150 -0.7854
 5197TIP3    H237227   6.429   6.364   6.829 -0.2795 -0.4159 -1.5143
 5198TIP3   OH237228   4.731   0.361   6.705  0.1188  0.1394 -0.5338
 5198TIP3    H137229   4.707   0.271   6.728 -0.1647  0.5510  0.9251
 5198TIP3    H237230   4.673   0.383   6.633  1.4611 -1.4407 -2.1986
 5199TIP3   OH237231   1.158   5.746   8.168 -0.3267 -0.2139 -0.0909
 5199TIP3    H137232   1.095   5.742   8.240  0.3009  0.9324  0.5571
 5199TIP3    H237233   1.162   5.839   8.145 -0.5820 -0.5632 -1.6923
 5200TIP3   OH237234   6.717   3.976   6.325  0.9350  0.3151  0.3374
 5200TIP3    H137235   6.739   3.929   6.405  0.0906 -0.3918  0.1694
 5200TIP3    H237236   6.722   3.911   6.255  1.2820  0.8331 -0.1326
 5201TIP3   OH237237   5.300   2.886   0.087  0.3024  0.5096 -0.0937
 5201TIP3    H137238   5.265   2.838   0.161 -1.2775  0.5369 -0.7801
 5201TIP3    H237239   5.249   2.856   0.012  1.0155  1.3820 -0.9645
 5202TIP3   OH237240   6.791   4.819   0.433  0.7829 -0.4322  0.2421
 5202TIP3    H137241   6.838   4.862   0.360  1.9804 -0.2026  1.1168
 5202TIP3    H237242   6.702   4.853   0.426  1.2651  0.8455 -0.1665
 5203TIP3   OH237243   3.678   6.435   8.499  0.3004  0.3672 -0.7428
 5203TIP3    H137244   3.758   6.451   8.449  1.0415  1.0996  0.6081
 5203TIP3    H237245   3.704   6.449   8.590 -1.5184  1.2074 -0.3103
 5204TIP3   OH237246   0.236   6.191   8.111 -0.2151  0.0878  0.0549
 5204TIP3    H137247   0.184   6.219   8.036  1.3346  0.6273 -0.8584
 5204TIP3    H237248   0.300   6.261   8.124 -0.6165  0.1463  2.0875
 5205TIP3   OH237249   4.486   4.073   1.400  0.2934  0.3288 -0.4247
 5205TIP3    H137250   4.477   4.167   1.385  0.2218  0.5902  1.0498
 5205TIP3    H237251   4.463   4.033   1.317 -2.5802  1.4870 -0.3106
 5206TIP3   OH237252   6.796   2.118   0.674 -0.2305  0.0244  0.0728
 5206TIP3    H137253   6.829   2.135   0.763  2.3114 -0.2232 -0.7501
 5206TIP3    H237254   6.868   2.073   0.630 -2.1788 -1.6922 -1.5550
 5207TIP3   OH237255   4.430   4.007   8.619  0.4256  0.3806 -0.2911
 5207TIP3    H137256   4.362   3.949   8.651  0.8834 -0.0136 -0.0176
 5207TIP3    H237257   4.390   4.094   8.617 -0.4496 -0.0175 -1.2383
 5208TIP3   OH237258   3.907   0.012   1.518 -0.0637  0.0165  0.5437
 5208TIP3    H137259   3.833  -0.049   1.524  0.2838 -1.0011 -2.9324
 5208TIP3    H237260   3.893   0.058   1.435  2.4958  0.7861  0.4607
 5209TIP3   OH237261   0.026   1.314   8.644 -0.2624 -0.0351  0.0419
 5209TIP3    H137262   0.010   1.401   8.680 -0.7416  0.4799 -1.3430
 5209TIP3    H237263   0.110   1.322   8.598  0.5915 -0.8166  1.4012
 5210TIP3   OH237264   3.963   4.553   7.547 -0.3667 -0.1374  0.3339
 5210TIP3    H137265   3.950   4.562   7.641 -0.3500  0.6486  0.2669
 5210TIP3    H237266   3.874   4.547   7.511 -0.3510 -1.7178  0.5043
 5211TIP3   OH237267   2.974   1.772   7.353  0.2657  0.4944 -0.2579
 5211TIP3    H137268   3.046   1.815   7.399  1.8109 -0.8098 -1.2952
 5211TIP3    H237269   2.940   1.838   7.293  1.3911  0.8263 -0.5522
 5212TIP3   OH237270   1.536   4.982   0.521 -0.4752 -0.3183  0.1161
 5212TIP3    H137271   1.621   5.026   0.518 -1.3449  1.5246  1.0134
 5212TIP3    H237272   1.510   4.974   0.430  0.3751 -0.3447 -0.1376
 5213TIP3   OH237273   6.190   6.641   8.636 -0.3159  0.0059  0.0703
 5213TIP3    H137274   6.248   6.605   8.568 -1.0413  0.9017 -1.0554
 5213TIP3    H237275   6.247   6.693   8.691  0.2298 -0.4592 -0.0432
 5214TIP3   OH237276   4.132   4.120   6.752  0.1448  0.1058 -0.0208
 5214TIP3    H137277   4.063   4.136   6.688 -1.4234 -1.6641  1.1015
 5214TIP3    H237278   4.203   4.079   6.703 -0.6531 -0.3777 -0.7843
 5215TIP3   OH237279   4.108   1.124   1.609 -0.2890  0.2844 -0.0648
 5215TIP3    H137280   4.156   1.158   1.533 -1.4195  0.9658 -0.4889
 5215TIP3    H237281   4.029   1.177   1.614 -2.4855 -2.6504 -1.1536
 5216TIP3   OH237282   1.838   4.841   7.359 -0.2229  0.3011 -0.1189
 5216TIP3    H137283   1.764   4.828   7.300  1.6530 -0.5715 -2.4770
 5216TIP3    H237284   1.852   4.755   7.400 -0.2617  0.3437 -0.0174
 5217TIP3   OH237285   6.019   0.084   8.159  0.3391  0.2274  0.4707
 5217TIP3    H137286   5.976   0.006   8.195 -0.7589  0.1439 -0.9279
 5217TIP3    H237287   6.077   0.114   8.229  1.7994 -2.5835  0.5940
 5218TIP3   OH237288   5.579   5.498   1.222 -0.0883  0.5115 -0.0500
 5218TIP3    H137289   5.546   5.461   1.303 -0.8974  1.5490  0.1222
 5218TIP3    H237290   5.515   5.472   1.156 -0.8403  1.7856  0.1269
 5219TIP3   OH237291   0.287   1.729   0.268 -0.1005 -0.1453 -0.2519
 5219TIP3    H137292   0.307   1.823   0.271 -0.0401 -0.1840  2.1541
 5219TIP3    H237293   0.369   1.686   0.293 -0.6532 -0.7452  0.5536
 5220TIP3   OH237294   4.457   2.277   6.497  0.8513  0.3848 -0.0418
 5220TIP3    H137295   4.540   2.307   6.460  2.2757  1.1437  3.3988
 5220TIP3    H237296   4.482   2.205   6.556 -1.0720  0.0381  0.4242
 5221TIP3   OH237297   3.265   3.283   1.723 -0.4920 -0.6198 -0.0683
 5221TIP3    H137298   3.220   3.366   1.742 -1.1257 -0.3270 -2.4277
 5221TIP3    H237299   3.194   3.222   1.703 -0.0044 -0.2470 -3.5307
 5222TIP3   OH237300   2.171   5.457   1.213 -0.0723 -0.2366  0.2711
 5222TIP3    H137301   2.173   5.504   1.296  0.5787 -1.3583  0.9157
 5222TIP3    H237302   2.079   5.434   1.200 -0.2535  0.3865  0.4085
 5223TIP3   OH237303   2.452   5.246   8.559  0.2856  0.6048 -0.2082
 5223TIP3    H137304   2.438   5.274   8.469 -0.8764  0.6598 -0.0175
 5223TIP3    H237305   2.458   5.150   8.554 -0.9114  0.5231 -0.2068
 5224TIP3   OH237306   2.663   2.354   7.036 -0.2947 -0.2492  0.0607
 5224TIP3    H137307   2.713   2.376   6.958 -0.3850 -1.8673 -0.4876
 5224TIP3    H237308   2.727   2.354   7.107  0.1252 -0.4639 -0.3155
 5225TIP3   OH237309   5.187   5.957   8.592  0.3912 -0.5336  0.9068
 5225TIP3    H137310   5.151   5.988   8.675 -1.9731  0.2569 -0.3190
 5225TIP3    H237311   5.152   5.868   8.583 -2.6369  0.6888 -0.8986
 5226TIP3   OH237312   1.339   0.736   0.503  0.3955  0.3351 -0.1568
 5226TIP3    H137313   1.339   0.653   0.551  0.1777  0.0995 -0.5664
 5226TIP3    H237314   1.311   0.714   0.415  0.4114  0.8336 -0.2928
 5227TIP3   OH237315   4.023   1.775   0.089 -0.3138 -0.0956  0.4177
 5227TIP3    H137316   4.007   1.835   0.017 -0.9272 -0.5377  0.1729
 5227TIP3    H237317   3.936   1.740   0.110  0.0874 -1.2041  0.2763
 5228TIP3   OH237318   0.543   3.683   7.258  0.0145 -0.3254  0.4410
 5228TIP3    H137319   0.556   3.778   7.264  1.2973 -0.2444 -2.0410
 5228TIP3    H237320   0.467   3.673   7.201 -2.0853 -0.8892  3.1238
 5229TIP3   OH237321   2.391   3.631   7.400 -0.1013 -0.5555 -0.3644
 5229TIP3    H137322   2.462   3.608   7.460  0.2979 -1.1022 -1.0299
 5229TIP3    H237323   2.409   3.721   7.374  0.0039 -0.4866 -0.0470
 5230TIP3   OH237324   1.082   2.565   6.686  0.0744 -0.8882 -0.0024
 5230TIP3    H137325   1.113   2.624   6.616 -0.8837 -0.0082  0.2976
 5230TIP3    H237326   1.100   2.477   6.652  0.7964 -0.4514 -0.8082
 5231TIP3   OH237327   0.548   2.711   7.103 -0.5049  1.0728  0.2094
 5231TIP3    H137328   0.605   2.704   7.026  0.7808 -0.5379  1.2430
 5231TIP3    H237329   0.608   2.719   7.177 -1.5760 -0.9352  1.3698
 5232TIP3   OH237330   2.389   4.521   1.482 -0.0742  0.0925  0.1019
 5232TIP3    H137331   2.412   4.455   1.547  1.6323  1.0333  0.5245
 5232TIP3    H237332   2.422   4.486   1.399 -0.2082 -0.0908  0.1259
 5233TIP3   OH237333   4.406   1.043   1.495 -0.1817 -0.0248  0.6899
 5233TIP3    H137334   4.423   1.088   1.578 -1.8376  0.6833  0.6941
 5233TIP3    H237335   4.346   1.101   1.448 -1.5593 -1.7420  0.2263
 5234TIP3   OH237336   2.794   0.123   1.113  0.8676  0.4375 -0.0313
 5234TIP3    H137337   2.860   0.071   1.159  0.2660  0.0944  0.4481
 5234TIP3    H237338   2.715   0.068   1.113 -0.6923  2.3954  3.0165
 5235TIP3   OH237339   2.506   4.011   6.956 -0.8680 -0.3307  0.3968
 5235TIP3    H137340   2.555   4.042   6.880 -0.3108 -0.8885  0.5227
 5235TIP3    H237341   2.447   4.084   6.977  1.6469  1.4567  1.7915
 5236TIP3   OH237342   5.914   1.550   7.204 -0.0694  0.2083  0.1102
 5236TIP3    H137343   5.905   1.612   7.277  2.8910  0.2053  0.6063
 5236TIP3    H237344   5.909   1.464   7.246 -1.1159  0.1311 -0.1403
 5237TIP3   OH237345   1.763   1.497   0.455  0.1847 -0.4564  1.1796
 5237TIP3    H137346   1.684   1.535   0.494  1.1454  1.9100  0.9254
 5237TIP3    H237347   1.737   1.476   0.365  0.3391  2.2134  0.4497
 5238TIP3   OH237348   4.602   2.260   8.633  0.8724  0.1302 -0.4893
 5238TIP3    H137349   4.611   2.317   8.557  0.5032 -0.3111 -0.8748
 5238TIP3    H237350   4.579   2.319   8.705  0.1590  0.4328 -0.9546
 5239TIP3   OH237351   1.354   3.755   6.370  0.4275 -0.0981 -0.3396
 5239TIP3    H137352   1.279   3.710   6.410  1.0424 -0.8375  0.0274
 5239TIP3    H237353   1.423   3.688   6.369  1.6747  1.0923  1.0810
 5240TIP3   OH237354   6.318   3.781   0.108 -0.6757 -0.2151  0.0745
 5240TIP3    H137355   6.305   3.725   0.032  1.0798  1.9972 -2.0055
 5240TIP3    H237356   6.273   3.863   0.086 -1.1587  0.0852  1.9734
 5241TIP3   OH237357   3.789   1.619   0.139  0.3619  0.0070 -0.4018
 5241TIP3    H137358   3.830   1.538   0.170  1.4974  1.0747  1.0491
 5241TIP3    H237359   3.726   1.641   0.208  0.9655  0.9962 -0.1558
 5242TIP3   OH237360   2.097   4.931   8.358  0.5727 -0.1404 -1.3485
 5242TIP3    H137361   2.160   4.976   8.414  0.4504 -0.0260 -1.3026
 5242TIP3    H237362   2.026   4.994   8.347 -0.0834 -0.6980 -0.4464
 5243TIP3   OH237363   4.011   0.174   1.041 -0.1531 -0.2437 -0.3458
 5243TIP3    H137364   4.072   0.139   1.107 -0.2939  1.2475  0.6219
 5243TIP3    H237365   4.033   0.267   1.035 -2.6973  0.4864  0.4793
 5244TIP3   OH237366   0.625   6.832   6.597  0.4905  0.2334  0.3645
 5244TIP3    H137367   0.622   6.844   6.692  0.2188  1.5043  0.2097
 5244TIP3    H237368   0.572   6.903   6.562  0.2860 -0.4364 -0.7335
 5245TIP3   OH237369   5.858   2.690   1.702 -0.4287 -0.7606  0.1077
 5245TIP3    H137370   5.784   2.634   1.726 -1.6050  0.1092 -1.3452
 5245TIP3    H237371   5.876   2.668   1.610  0.2365  0.0076  0.0410
 5246TIP3   OH237372   4.956   2.970   7.154 -0.1107 -0.2336  0.5999
 5246TIP3    H137373   4.911   2.917   7.220 -1.2477 -1.6212 -1.1658
 5246TIP3    H237374   5.047   2.939   7.156 -0.0218  0.0728  1.7963
 5247TIP3   OH237375   0.600   4.280   1.407 -0.0920 -0.2225 -0.2112
 5247TIP3    H137376   0.637   4.252   1.491  0.7297 -0.1767 -0.5486
 5247TIP3    H237377   0.525   4.222   1.393 -0.7433  0.3029  0.9417
 5248TIP3   OH237378   4.008   5.345   6.608 -0.1328  0.3927  0.3000
 5248TIP3    H137379   3.931   5.298   6.641  0.8668 -2.4191 -1.0863
 5248TIP3    H237380   3.973   5.428   6.577 -2.9899 -1.3362 -1.6623
 5249TIP3   OH237381   6.200   1.349   1.568  0.9873  0.0170 -0.6984
 5249TIP3    H137382   6.277   1.348   1.510  0.6163  0.2520 -1.2050
 5249TIP3    H237383   6.236   1.368   1.655  1.3981  1.0796 -1.0903
 5250TIP3   OH237384   3.580   4.244   0.130  0.0641  0.0797  0.3171
 5250TIP3    H137385   3.554   4.317   0.074  0.0995 -0.3013 -0.2026
 5250TIP3    H237386   3.543   4.265   0.215  0.6975  1.0781  0.3738
 5251TIP3   OH237387   6.218   3.675   7.258  1.4784 -0.7556  0.3440
 5251TIP3    H137388   6.161   3.633   7.322 -0.6385 -0.6978 -1.3773
 5251TIP3    H237389   6.196   3.768   7.263 -1.7323 -1.0816 -2.9751
 5252TIP3   OH237390   2.009   3.755   1.318 -0.6148  0.2404  0.1897
 5252TIP3    H137391   1.961   3.826   1.361 -1.1379  0.0973 -0.1427
 5252TIP3    H237392   1.969   3.749   1.231  0.3634  0.4627 -0.2853
 5253TIP3   OH237393   4.926   1.738   8.145  0.1520 -0.1774 -0.1666
 5253TIP3    H137394   4.923   1.681   8.222 -0.9557 -0.2893 -0.2703
 5253TIP3    H237395   5.013   1.777   8.147 -0.6516  1.8330  2.6057
 5254TIP3   OH237396   0.001   3.167   1.152 -0.5085  0.4670  0.4832
 5254TIP3    H137397   0.084   3.138   1.191 -0.9242  0.1977  1.1815
 5254TIP3    H237398   0.028   3.222   1.078  0.2883 -0.7804 -0.1986
 5255TIP3   OH237399   2.650   5.692   2.392  0.3633  0.4947 -0.8389
 5255TIP3    H137400   2.702   5.674   2.471  2.7008 -0.7079 -2.5230
 5255TIP3    H237401   2.572   5.637   2.401 -0.1895  1.5158  1.2696
 5256TIP3   OH237402   0.664   5.834   7.386 -0.3869  0.7640 -0.1574
 5256TIP3    H137403   0.745   5.862   7.343  0.3174  1.5475  1.6112
 5256TIP3    H237404   0.649   5.745   7.352  0.5591  1.0431 -1.3773
 5257TIP3   OH237405   6.259   0.111   6.707 -0.5506  0.5067  0.1307
 5257TIP3    H137406   6.235   0.195   6.667 -1.4567 -0.5588 -1.7103
 5257TIP3    H237407   6.345   0.091   6.672 -0.7242  0.2457 -0.1485
 5258TIP3   OH237408   0.640   3.809   8.676  0.0860 -0.8824  0.2712
 5258TIP3    H137409   0.614   3.759   8.598  0.7169  0.0714 -0.5831
 5258TIP3    H237410   0.568   3.870   8.690 -0.6064 -1.8734  1.2144
 5259TIP3   OH237411   1.526   5.365   7.514 -0.6721  0.6170  0.2157
 5259TIP3    H137412   1.609   5.318   7.516 -1.1716 -0.4289 -1.6269
 5259TIP3    H237413   1.499   5.369   7.606  0.2722 -1.1102  0.6134
 5260TIP3   OH237414   2.501   2.219   6.732  0.2716 -0.2534 -0.2641
 5260TIP3    H137415   2.428   2.281   6.734 -0.2319 -0.8303 -0.6163
 5260TIP3    H237416   2.460   2.133   6.725  0.9845 -0.4485 -3.6123
 5261TIP3   OH237417   4.250   4.736   1.012  0.0620 -0.6805  0.5553
 5261TIP3    H137418   4.327   4.766   1.060 -0.6573 -0.6383  1.7093
 5261TIP3    H237419   4.178   4.789   1.045 -0.7394 -1.7644  0.6209
 5262TIP3   OH237420   6.296   5.113   2.404  0.9023 -0.4492 -0.1211
 5262TIP3    H137421   6.292   5.101   2.499  0.2236 -1.9603 -0.3122
 5262TIP3    H237422   6.226   5.175   2.384  1.2873  0.1601  0.3950
 5263TIP3   OH237423   5.954   6.626   0.241  0.5650  0.4878  0.5678
 5263TIP3    H137424   5.935   6.674   0.160  2.4040 -0.8484 -0.7647
 5263TIP3    H237425   5.985   6.693   0.302  2.8941  1.1398 -1.1752
 5264TIP3   OH237426   3.841   0.705   6.911  0.1988 -0.4037 -0.5314
 5264TIP3    H137427   3.828   0.778   6.850 -0.7751 -1.6628 -1.9049
 5264TIP3    H237428   3.759   0.700   6.960  0.5770 -0.0689  0.1377
 5265TIP3   OH237429   1.072   0.816   0.599 -0.1960 -0.0943 -0.7421
 5265TIP3    H137430   1.152   0.832   0.550  0.4124 -0.1626  0.2247
 5265TIP3    H237431   1.074   0.877   0.672 -0.0570 -1.4092  0.3998
 5266TIP3   OH237432   2.690   1.858   0.371  0.1678  0.1208 -0.2216
 5266TIP3    H137433   2.726   1.772   0.391 -0.6676  0.0747  1.2036
 5266TIP3    H237434   2.596   1.849   0.385  0.1383  1.4217  0.6254
 5267TIP3   OH237435   3.999   1.989   0.359  0.6852  0.4074  0.0168
 5267TIP3    H137436   3.977   2.056   0.294  1.5566  0.8098  0.1254
 5267TIP3    H237437   3.989   2.033   0.443  0.6077  0.2065  0.1120
 5268TIP3   OH237438   3.309   6.182   6.864  0.0047 -0.4104 -0.1400
 5268TIP3    H137439   3.297   6.247   6.794 -0.7090 -1.4380 -1.0112
 5268TIP3    H237440   3.314   6.098   6.818 -0.4697 -1.1096  1.0431
 5269TIP3   OH237441   1.539   5.111   7.288  0.5341  0.1840 -0.1972
 5269TIP3    H137442   1.536   5.015   7.285  0.1853  0.0272  2.5479
 5269TIP3    H237443   1.450   5.137   7.313  0.9271  1.1308  0.2703
 5270TIP3   OH237444   5.473   2.535   7.950  0.9728  0.4080 -0.3201
 5270TIP3    H137445   5.494   2.627   7.962 -0.1589  0.4004  2.5773
 5270TIP3    H237446   5.544   2.488   7.993  0.7809 -0.0045 -0.4408
 5271TIP3   OH237447   2.588   0.196   1.416  0.1447  0.1687 -0.1152
 5271TIP3    H137448   2.606   0.165   1.328  2.6629 -0.7167  0.6141
 5271TIP3    H237449   2.664   0.167   1.468 -0.7817  1.4663  2.1335
 5272TIP3   OH237450   6.054   4.774   8.094 -0.3303  0.4401 -0.7667
 5272TIP3    H137451   6.025   4.770   8.003 -1.4661  2.0788 -0.5275
 5272TIP3    H237452   6.025   4.691   8.132 -2.0105  0.7285 -1.3351
 5273TIP3   OH237453   3.406   3.330   1.469 -0.5628  0.3944  0.2699
 5273TIP3    H137454   3.381   3.271   1.540  0.0307 -0.5605 -0.2878
 5273TIP3    H237455   3.491   3.297   1.439  0.3080  2.1873  0.6345
 5274TIP3   OH237456   4.048   3.194   1.786  0.4180  0.3073  0.7783
 5274TIP3    H137457   4.086   3.236   1.864 -0.6762 -1.3767  2.2969
 5274TIP3    H237458   4.117   3.138   1.753  1.1831  1.6726 -0.0314
 5275TIP3   OH237459   2.848   2.652   0.809 -0.1544  0.2255  0.2649
 5275TIP3    H137460   2.822   2.600   0.884 -0.0395  1.5396  1.2463
 5275TIP3    H237461   2.941   2.632   0.796  0.5993  2.0405  2.2685
 5276TIP3   OH237462   0.213   5.037   8.520  0.1457  0.3860  0.1860
 5276TIP3    H137463   0.241   5.020   8.610 -3.8622  0.7086  1.7305
 5276TIP3    H237464   0.246   4.963   8.470  1.3684 -0.5224  2.2045
 5277TIP3   OH237465   6.510   3.856   0.295 -0.3180 -1.3675 -0.2558
 5277TIP3    H137466   6.440   3.809   0.249 -1.2022 -0.5106  0.1674
 5277TIP3    H237467   6.591   3.827   0.253 -0.9962 -1.6953 -1.3661
 5278TIP3   OH237468   1.391   3.889   7.994  0.1869  0.2847  0.4869
 5278TIP3    H137469   1.403   3.962   8.055 -1.6996 -0.2227  1.5399
 5278TIP3    H237470   1.325   3.834   8.035  2.9448 -3.1945  0.7441
 5279TIP3   OH237471   5.569   0.794   1.301  0.2015  0.5240  0.0842
 5279TIP3    H137472   5.537   0.722   1.245 -0.7033 -0.1647  1.4368
 5279TIP3    H237473   5.663   0.799   1.282  0.5475 -1.8657  0.8603
 5280TIP3   OH237474   3.113   2.469   6.892  0.1692 -0.1980 -0.2361
 5280TIP3    H137475   3.063   2.499   6.969 -0.3143 -0.4238 -0.4595
 5280TIP3    H237476   3.135   2.550   6.846 -0.8591 -0.1435 -0.6683
 5281TIP3   OH237477   5.157   1.784   1.200 -0.6668  0.2493 -0.4616
 5281TIP3    H137478   5.168   1.842   1.124 -0.5394 -0.5086 -1.0362
 5281TIP3    H237479   5.091   1.721   1.172 -2.2991  1.2830  0.8736
 5282TIP3   OH237480   4.258   4.833   2.479 -0.0086  0.2137 -0.2908
 5282TIP3    H137481   4.299   4.898   2.422 -0.8288  1.1025  0.1085
 5282TIP3    H237482   4.304   4.841   2.562  0.5187 -0.3951 -0.5081
 5283TIP3   OH237483   6.356   5.690   0.896  0.0654 -0.4893 -0.5401
 5283TIP3    H137484   6.380   5.780   0.874 -0.7733 -0.2835 -0.6365
 5283TIP3    H237485   6.438   5.641   0.889  0.0025 -0.3461 -3.5935
 5284TIP3   OH237486   3.307   5.342   0.857 -0.0569 -0.0336 -0.1089
 5284TIP3    H137487   3.371   5.394   0.809  0.7158  0.2607  1.2005
 5284TIP3    H237488   3.237   5.404   0.879  1.0056  0.5679  1.7134
 5285TIP3   OH237489   3.313   1.746   8.664  0.1674 -0.1594  0.1217
 5285TIP3    H137490   3.270   1.701   8.591  2.8567 -0.5323 -1.3792
 5285TIP3    H237491   3.364   1.816   8.622 -0.3253  1.3878  1.9575
 5286TIP3   OH237492   5.330   6.244   1.888  0.0821  0.2643  0.0991
 5286TIP3    H137493   5.304   6.187   1.816  0.8897 -0.1366  0.1206
 5286TIP3    H237494   5.268   6.225   1.958 -0.5465  0.4686 -0.3869
 5287TIP3   OH237495   6.773   3.754   0.441  0.0395  0.0320 -0.1793
 5287TIP3    H137496   6.761   3.826   0.379  1.2408  1.0213  0.7052
 5287TIP3    H237497   6.818   3.687   0.391 -1.3136 -0.2473 -1.0846
 5288TIP3   OH237498   5.922   5.869   0.735  0.5029  0.0077  0.3843
 5288TIP3    H137499   5.864   5.883   0.660  1.6158  0.6095 -0.3999
 5288TIP3    H237500   5.963   5.785   0.719 -2.9193 -2.4177  2.8967
 5289TIP3   OH237501   5.599   6.691   1.628 -0.4183  0.0606  0.9389
 5289TIP3    H137502   5.597   6.648   1.543  1.1330  0.5180  0.6368
 5289TIP3    H237503   5.584   6.621   1.691  0.0916 -0.5798  0.3651
 5290TIP3   OH237504   2.823   2.966   7.844 -0.4692 -0.0078  0.0061
 5290TIP3    H137505   2.821   3.061   7.841 -1.4906  0.0224  0.9443
 5290TIP3    H237506   2.752   2.938   7.787 -0.7574 -0.1741  0.4379
 5291TIP3   OH237507   3.774   6.213   7.070 -0.4260  0.7790 -0.3276
 5291TIP3    H137508   3.734   6.187   7.153 -2.0489  1.4386 -0.8802
 5291TIP3    H237509   3.748   6.145   7.008 -1.5677  1.7275 -0.9183
 5292TIP3   OH237510   0.013   2.686   7.850 -0.2459  0.0654 -0.4020
 5292TIP3    H137511  -0.002   2.631   7.927 -0.0717 -0.2407 -0.5830
 5292TIP3    H237512  -0.057   2.751   7.853  0.3453  0.6796  0.5549
 5293TIP3   OH237513   6.263   6.826   7.102  0.4620  0.1234  0.0769
 5293TIP3    H137514   6.244   6.832   7.195  2.6079 -1.7434  0.7228
 5293TIP3    H237515   6.316   6.747   7.093  1.1161  0.7611 -2.5978
 5294TIP3   OH237516   5.317   5.902   0.448  0.2481 -0.2568  0.3555
 5294TIP3    H137517   5.332   5.951   0.367 -0.0645 -0.4311  0.1935
 5294TIP3    H237518   5.401   5.859   0.466 -0.4868 -2.6314 -1.4777
 5295TIP3   OH237519   2.175   6.838   8.303  0.8344 -0.3637  0.1695
 5295TIP3    H137520   2.212   6.861   8.218  0.3286  0.3779  0.1383
 5295TIP3    H237521   2.090   6.799   8.283  0.4956  0.2697  0.3502
 5296TIP3   OH237522   4.313   6.651   7.541 -0.5735  0.8764 -0.3370
 5296TIP3    H137523   4.320   6.741   7.572  0.6585  0.6286  0.1667
 5296TIP3    H237524   4.356   6.651   7.455  0.0888  0.6405 -0.0182
 5297TIP3   OH237525   0.672   0.894   6.991  0.3773  0.0532  0.2656
 5297TIP3    H137526   0.752   0.883   7.043  0.5538  1.6069  0.3644
 5297TIP3    H237527   0.683   0.978   6.947 -0.5501 -0.4152 -0.9356
 5298TIP3   OH237528   5.727   6.028   2.265  0.6576 -0.5426 -0.0331
 5298TIP3    H137529   5.678   5.946   2.254 -1.1537  0.2823  1.3345
 5298TIP3    H237530   5.789   6.010   2.335 -0.9415 -0.3053  1.5118
 5299TIP3   OH237531   5.473   5.181   6.705 -0.0469 -0.7491  0.5444
 5299TIP3    H137532   5.503   5.195   6.795 -3.2226  0.3379  1.5775
 5299TIP3    H237533   5.379   5.167   6.713 -0.7282  0.9756 -2.7187
 5300TIP3   OH237534   0.997   6.848   0.186  0.4706 -0.5501 -0.1298
 5300TIP3    H137535   0.947   6.909   0.240 -0.5744  0.9536 -2.6189
 5300TIP3    H237536   1.081   6.891   0.171  1.1418 -1.4033  1.0211
 5301TIP3   OH237537   6.215   6.308   0.191 -0.0859  1.0428 -0.0588
 5301TIP3    H137538   6.278   6.334   0.124  1.9209 -2.5469  0.1549
 5301TIP3    H237539   6.268   6.287   0.267 -1.5586 -1.2028  0.4656
 5302TIP3   OH237540   3.413   0.941   8.432  0.0770 -0.2445 -0.6306
 5302TIP3    H137541   3.325   0.904   8.441  0.0857 -0.7710 -2.3619
 5302TIP3    H237542   3.468   0.887   8.488 -0.1620 -1.9886 -2.0228
 5303TIP3   OH237543   6.704   2.206   1.331 -0.5878 -0.5115  0.3083
 5303TIP3    H137544   6.700   2.196   1.426 -1.1187 -1.3174  0.2152
 5303TIP3    H237545   6.787   2.164   1.306 -0.3742 -0.1621  0.4293
 5304TIP3   OH237546   1.028   5.006   0.084  0.2563  0.3107  0.6659
 5304TIP3    H137547   1.018   5.066   0.010 -0.7527 -1.4370 -0.7180
 5304TIP3    H237548   0.961   5.033   0.146 -0.1954  0.6375  0.0500
 5305TIP3   OH237549   6.141   0.578   6.648 -0.2581  0.4551  0.0892
 5305TIP3    H137550   6.106   0.631   6.577  1.7545  1.2915 -0.3534
 5305TIP3    H237551   6.135   0.635   6.725  0.2462  0.6785 -0.0280
 5306TIP3   OH237552   6.443   2.044   1.363 -0.3277  0.3406  0.0445
 5306TIP3    H137553   6.525   2.088   1.384 -0.2524  0.5899 -0.7552
 5306TIP3    H237554   6.377   2.113   1.366 -0.4790  0.1822  0.4685
 5307TIP3   OH237555   0.769   4.174   0.553  0.0885 -0.4681  0.3360
 5307TIP3    H137556   0.841   4.235   0.537 -1.7899  1.5509 -0.9459
 5307TIP3    H237557   0.776   4.154   0.647  2.7855 -1.0997  0.1014
 5308TIP3   OH237558   4.303   0.982   0.433  0.0364  0.3144 -0.6540
 5308TIP3    H137559   4.345   0.909   0.387  0.0791  0.9804 -1.7071
 5308TIP3    H237560   4.282   1.045   0.364 -0.1899  1.2115  0.2081
 5309TIP3   OH237561   3.166   6.849   1.911 -0.1354  0.9159 -0.8803
 5309TIP3    H137562   3.094   6.812   1.961 -0.1405  0.3798 -1.2796
 5309TIP3    H237563   3.244   6.806   1.945  0.2851  2.9857  1.0185
 5310TIP3   OH237564   3.759   6.747   0.770  0.1104 -0.3679  0.2769
 5310TIP3    H137565   3.706   6.774   0.844  0.0248  0.7518 -0.1697
 5310TIP3    H237566   3.695   6.721   0.703  0.1244  0.4899 -0.0800
 5311TIP3   OH237567   3.255   5.571   6.927  0.5829  0.0172  0.2280
 5311TIP3    H137568   3.203   5.638   6.884 -0.4119  0.4618  1.9938
 5311TIP3    H237569   3.192   5.503   6.952  0.9820  0.0757  1.4993
 5312TIP3   OH237570   3.342   4.144   6.716 -0.0150 -0.2433  0.3262
 5312TIP3    H137571   3.417   4.137   6.658  0.0028 -0.1926  0.3429
 5312TIP3    H237572   3.295   4.222   6.685  0.3824  0.2046  0.8264
 5313TIP3   OH237573   0.819   3.562   1.500 -0.4361  0.2783  0.3998
 5313TIP3    H137574   0.743   3.611   1.532 -1.0589  2.1391 -3.4185
 5313TIP3    H237575   0.789   3.519   1.420  1.9468 -0.8693  0.0261
 5314TIP3   OH237576   2.984   3.905   8.390 -0.6477 -0.1346 -0.2472
 5314TIP3    H137577   2.974   3.845   8.316 -2.0135 -0.4926  0.1970
 5314TIP3    H237578   3.073   3.888   8.423 -0.9169 -1.7511 -0.2895
 5315TIP3   OH237579   1.771   0.978   7.685 -0.8037 -0.3105  0.6306
 5315TIP3    H137580   1.859   1.014   7.681 -0.6860 -0.6952 -2.5179
 5315TIP3    H237581   1.754   0.968   7.779  1.9842  0.9222  1.3817
 5316TIP3   OH237582   6.366   2.978   0.066 -0.1722  0.2863  0.1241
 5316TIP3    H137583   6.375   2.988  -0.029 -1.5437  0.8962  0.0397
 5316TIP3    H237584   6.285   2.927   0.077 -0.1779  0.4656  0.9738
 5317TIP3   OH237585   3.342   0.466   7.961 -0.7049  0.7646 -0.0900
 5317TIP3    H137586   3.378   0.411   8.031  2.1181 -0.1103 -2.0436
 5317TIP3    H237587   3.390   0.548   7.968  0.8576  0.0738 -1.9207
 5318TIP3   OH237588   6.238   0.628   0.264 -0.1596  0.3483 -0.3730
 5318TIP3    H137589   6.304   0.694   0.288  1.2209 -0.7774 -0.9019
 5318TIP3    H237590   6.208   0.593   0.348 -0.2608  1.0308 -0.1149
 5319TIP3   OH237591   3.723   4.443   7.470  0.1927 -0.0831  0.0195
 5319TIP3    H137592   3.639   4.475   7.502  0.8591 -0.0824  1.8991
 5319TIP3    H237593   3.722   4.349   7.491  1.0071  0.0932  0.9162
 5320TIP3   OH237594   0.953   1.628   7.047  0.1703  0.2209  0.0199
 5320TIP3    H137595   1.004   1.709   7.046  0.4917  0.0111 -1.0217
 5320TIP3    H237596   0.941   1.605   6.955 -1.4976  0.0685  0.2377
 5321TIP3   OH237597   4.172   3.902   0.597 -0.3824 -0.4893 -0.0145
 5321TIP3    H137598   4.191   3.973   0.535 -0.9077 -0.2234  0.1241
 5321TIP3    H237599   4.098   3.934   0.648  1.1326  0.0400  1.9552
 5322TIP3   OH237600   2.780   1.553   8.543  0.4791 -0.1392  0.0762
 5322TIP3    H137601   2.726   1.551   8.464 -1.1940 -0.3615  1.1620
 5322TIP3    H237602   2.792   1.461   8.566  0.1867 -0.0689  0.5426
 5323TIP3   OH237603   6.390   5.997   0.120  0.5255  0.2948 -0.3566
 5323TIP3    H137604   6.461   6.036   0.171  1.5646 -1.6098 -0.2445
 5323TIP3    H237605   6.424   5.995   0.030  0.8719 -1.0907 -0.2200
 5324TIP3   OH237606   6.288   2.333   0.081 -0.2220  0.0337 -0.1517
 5324TIP3    H137607   6.258   2.254   0.037 -0.0453  0.5435 -1.2222
 5324TIP3    H237608   6.365   2.306   0.130  2.1916  0.1842 -3.4670
 5325TIP3   OH237609   1.698   5.601   7.144  0.0251  0.0726  0.4607
 5325TIP3    H137610   1.613   5.598   7.101 -0.2685 -1.4413  1.0843
 5325TIP3    H237611   1.685   5.556   7.227  1.1438  0.8959  1.1168
 5326TIP3   OH237612   6.483   4.858   7.887 -0.5932 -0.2645 -0.1371
 5326TIP3    H137613   6.393   4.863   7.918 -0.2654  1.1458  0.6961
 5326TIP3    H237614   6.511   4.769   7.908 -1.7546 -0.6768 -0.3006
 5327TIP3   OH237615   2.081   3.412   1.227  0.4800  0.3399 -0.2162
 5327TIP3    H137616   2.005   3.366   1.191  0.1646  0.9498 -0.3302
 5327TIP3    H237617   2.066   3.504   1.207  1.5951  0.4037 -0.8733
 5328TIP3   OH237618   5.885   6.008   0.035 -0.4355  0.1880  0.7973
 5328TIP3    H137619   5.807   6.007  -0.021 -0.0916  0.6677  0.3011
 5328TIP3    H237620   5.886   6.097   0.071  0.5319  0.5609 -0.1217
 5329TIP3   OH237621   6.047   1.682   0.393 -0.3957  0.0840 -0.2716
 5329TIP3    H137622   6.025   1.605   0.445 -0.0132  0.9591  1.2576
 5329TIP3    H237623   6.143   1.685   0.393 -0.4007  1.4025  1.0431
 5330TIP3   OH237624   6.546   4.970   2.188 -0.4747 -0.0368 -0.0140
 5330TIP3    H137625   6.533   4.884   2.229 -2.3672 -0.1675 -0.7712
 5330TIP3    H237626   6.539   5.032   2.260  0.0280 -0.4622  0.4102
 5331TIP3   OH237627   1.479   0.278   8.324 -0.1473  0.1290  0.1646
 5331TIP3    H137628   1.386   0.256   8.338 -0.0987 -0.2035 -0.0274
 5331TIP3    H237629   1.497   0.249   8.235 -0.1942  1.3637 -0.2659
 5332TIP3   OH237630   1.507   0.678   6.479 -0.4717  0.5453  0.6670
 5332TIP3    H137631   1.412   0.670   6.472 -0.3435 -0.0970 -0.6771
 5332TIP3    H237632   1.533   0.722   6.398  0.4926 -0.4642  0.4053
 5333TIP3   OH237633   4.886   0.432   7.281  0.0695  0.1978 -0.1452
 5333TIP3    H137634   4.829   0.366   7.322  0.2296 -0.4044 -0.8615
 5333TIP3    H237635   4.938   0.467   7.354 -1.4175  0.9868  0.5697
 5334TIP3   OH237636   5.608   6.465   1.777  0.4095 -0.1423 -0.4691
 5334TIP3    H137637   5.632   6.505   1.861  2.1204 -1.4024 -0.3084
 5334TIP3    H237638   5.684   6.412   1.753 -0.6045 -0.9228 -2.1328
 5335TIP3   OH237639   2.240   5.473   0.013  0.0413 -0.0294  0.0322
 5335TIP3    H137640   2.328   5.461  -0.025 -0.8812 -1.8182 -1.7262
 5335TIP3    H237641   2.189   5.509  -0.060 -1.3328 -1.7192  0.1096
 5336TIP3   OH237642   5.638   2.549   1.820  0.0919 -0.4301 -0.4201
 5336TIP3    H137643   5.663   2.583   1.906  0.8674  0.5937 -1.0193
 5336TIP3    H237644   5.555   2.592   1.800  0.3259 -0.0262 -0.5329
 5337TIP3   OH237645   5.266   2.673   7.679 -0.5291  0.1555  0.2958
 5337TIP3    H137646   5.240   2.682   7.588  1.4109 -2.1908 -0.6081
 5337TIP3    H237647   5.355   2.638   7.676 -0.7207 -0.8719  3.0634
 5338TIP3   OH237648   0.908   1.019   0.212  0.3016 -0.1037 -0.0784
 5338TIP3    H137649   0.903   1.000   0.119  0.0562 -1.1746  0.1331
 5338TIP3    H237650   0.817   1.020   0.242  0.3204  1.2016 -0.0170
 5339TIP3   OH237651   3.217   5.074   1.097 -0.6475  0.1304 -0.7121
 5339TIP3    H137652   3.191   5.139   1.162  0.2487  2.0884 -2.2033
 5339TIP3    H237653   3.311   5.088   1.084 -0.3829 -1.6150 -0.9565
 5340TIP3   OH237654   1.052   1.089   8.461 -0.1137 -0.1546 -0.4093
 5340TIP3    H137655   1.075   1.178   8.432  0.8141 -0.7553 -1.5940
 5340TIP3    H237656   1.064   1.092   8.556  0.7896  0.7512 -0.5251
 5341TIP3   OH237657   5.305   6.275   8.322  0.0438  0.0101 -0.4437
 5341TIP3    H137658   5.321   6.368   8.341  1.6820 -0.3811  0.2953
 5341TIP3    H237659   5.213   6.261   8.343 -0.6318  1.7688 -1.9202
 5342TIP3   OH237660   5.855   1.075   1.790  0.0989  0.0088 -0.3331
 5342TIP3    H137661   5.869   1.059   1.884  2.8638 -1.1589 -0.8313
 5342TIP3    H237662   5.780   1.135   1.786 -0.9653 -0.9794  2.5263
 5343TIP3   OH237663   3.708   0.138   1.694 -0.1350 -0.1043  0.1746
 5343TIP3    H137664   3.757   0.057   1.684 -0.8898 -0.4005 -1.4993
 5343TIP3    H237665   3.623   0.111   1.729  0.1364  0.1693  1.0833
 5344TIP3   OH237666   2.634   3.871   8.693  0.2659 -0.0706  0.1476
 5344TIP3    H137667   2.652   3.806   8.625 -0.9148 -0.8522  0.5711
 5344TIP3    H237668   2.587   3.941   8.647 -2.5711 -1.6071  0.5025
 5345TIP3   OH237669   4.019   0.458   7.433 -0.4859  0.0992 -0.3618
 5345TIP3    H137670   4.101   0.408   7.435 -0.7693 -0.3881 -0.6008
 5345TIP3    H237671   3.997   0.465   7.340 -1.8969 -1.7908 -0.2424
 5346TIP3   OH237672   5.583   4.726   7.633 -0.9115 -0.1747  0.0500
 5346TIP3    H137673   5.643   4.784   7.679 -2.1360  0.9233  0.3148
 5346TIP3    H237674   5.621   4.717   7.545  0.1728 -0.3524  0.5214
 5347TIP3   OH237675   1.799   6.785   6.822 -0.4468 -0.4834  0.0360
 5347TIP3    H137676   1.727   6.804   6.762  0.4326  2.2679 -0.2796
 5347TIP3    H237677   1.793   6.852   6.889  0.9033 -1.1582  0.8876
 5348TIP3   OH237678   3.223   2.157   2.048 -0.0096  0.0662 -0.9515
 5348TIP3    H137679   3.256   2.246   2.035 -2.1073  0.7690 -2.0237
 5348TIP3    H237680   3.250   2.134   2.137 -0.0408  2.0872 -0.3616
 5349TIP3   OH237681   0.616   6.854   0.711  0.0367 -0.2534 -0.7735
 5349TIP3    H137682   0.600   6.801   0.789 -0.8610 -1.1766 -1.5598
 5349TIP3    H237683   0.614   6.944   0.742 -2.8871 -0.4620 -0.0970
 5350TIP3   OH237684   1.407   4.938   7.077  0.4612  0.6461 -0.3095
 5350TIP3    H137685   1.355   4.911   7.152  0.8847 -0.5091 -0.4140
 5350TIP3    H237686   1.458   4.860   7.053  1.3176  1.3790 -0.9716
 5351TIP3   OH237687   0.044   1.217   7.411  0.5899  0.3052 -0.2443
 5351TIP3    H137688   0.126   1.265   7.415 -0.3393  2.1006 -1.5223
 5351TIP3    H237689   0.033   1.197   7.318 -0.4414  0.1295 -0.0935
 5352TIP3   OH237690   5.440   1.329   8.197  0.0701 -0.1788 -0.0588
 5352TIP3    H137691   5.467   1.364   8.282 -0.1316  0.0489 -0.0858
 5352TIP3    H237692   5.522   1.317   8.149  0.1140  0.8389 -0.2688
 5353TIP3   OH237693   1.976   1.354   0.562 -0.6122 -0.0227  0.3796
 5353TIP3    H137694   1.902   1.415   0.570 -0.0251  0.5971  1.2992
 5353TIP3    H237695   2.027   1.368   0.642  1.4471  0.8257 -1.0014
 5354TIP3   OH237696   3.993   5.538   8.741 -0.1801  0.4562  0.1826
 5354TIP3    H137697   3.900   5.521   8.726 -0.0257 -0.4476  0.2398
 5354TIP3    H237698   3.995   5.626   8.778 -1.0799  0.1579  0.9609
 5355TIP3   OH237699   6.835   5.955   6.750  0.8600 -0.5472 -0.4023
 5355TIP3    H137700   6.762   5.994   6.798  0.8732 -0.3850 -0.5134
 5355TIP3    H237701   6.836   6.000   6.666  1.4383 -0.1523 -0.1926
 5356TIP3   OH237702   6.110   3.301   7.596  0.0091  0.2084  0.2651
 5356TIP3    H137703   6.200   3.318   7.566  0.0375  1.1994  0.8594
 5356TIP3    H237704   6.120   3.247   7.674  0.2041  1.7997  1.3795
 5357TIP3   OH237705   4.542   2.161   0.948  0.1226 -0.3869  0.5020
 5357TIP3    H137706   4.470   2.146   0.887  0.9275  0.6727 -0.7895
 5357TIP3    H237707   4.575   2.248   0.924  0.9877 -0.2944  1.9307
 5358TIP3   OH237708   0.065   6.065   0.994  0.1995 -0.5997 -0.3067
 5358TIP3    H137709   0.049   6.118   1.073 -0.5146  0.2161 -0.9768
 5358TIP3    H237710  -0.020   6.026   0.973  0.4817 -1.1528 -0.4408
 5359TIP3   OH237711   3.054   3.167   7.113  0.1819 -0.2868  0.1802
 5359TIP3    H137712   3.112   3.230   7.157 -1.5300  0.8208  0.9627
 5359TIP3    H237713   2.999   3.132   7.183 -1.0510 -0.2200 -0.7212
 5360TIP3   OH237714   4.790   2.402   1.314  0.3475 -0.2625 -0.0088
 5360TIP3    H137715   4.855   2.387   1.382 -0.2286  3.0900  1.5207
 5360TIP3    H237716   4.706   2.394   1.359 -0.1493 -0.6999 -0.9967
 5361TIP3   OH237717   3.485   0.697   8.001  0.1499 -0.0773  0.0863
 5361TIP3    H137718   3.575   0.677   8.025  0.8259  1.6591 -0.7960
 5361TIP3    H237719   3.485   0.792   7.988 -1.9362  0.0345  0.5727
 5362TIP3   OH237720   5.811   3.381   7.919  0.0142  0.2460 -0.0237
 5362TIP3    H137721   5.726   3.417   7.940  0.2316  1.3414 -0.9376
 5362TIP3    H237722   5.852   3.446   7.863  1.6208 -0.0695  0.7194
 5363TIP3   OH237723   3.344   0.851   8.793  0.1489  0.2669 -0.2677
 5363TIP3    H137724   3.255   0.859   8.827  0.8293 -0.0186  1.6913
 5363TIP3    H237725   3.341   0.773   8.737 -0.6468 -0.2343  0.4482
 5364TIP3   OH237726   0.543   4.977   7.908  0.1108 -0.4829  0.0583
 5364TIP3    H137727   0.535   4.882   7.920  0.2376 -0.8774 -2.4767
 5364TIP3    H237728   0.475   4.999   7.844  0.9282  0.9122 -0.3685
 5365TIP3   OH237729   1.112   4.132   8.791  0.5117 -0.4305 -0.2620
 5365TIP3    H137730   1.169   4.059   8.814  1.5964  0.2824 -0.5570
 5365TIP3    H237731   1.121   4.140   8.696  0.2225 -0.0638 -0.2605
 5366TIP3   OH237732   4.341   2.150   7.803  0.3502  0.1516  0.6680
 5366TIP3    H137733   4.257   2.111   7.827 -0.4498  0.9439 -0.7005
 5366TIP3    H237734   4.366   2.203   7.879 -1.0870  0.9772  0.6063
 5367TIP3   OH237735   5.060   4.031   7.702 -0.4032 -0.2198 -0.4756
 5367TIP3    H137736   5.096   4.116   7.727 -0.9368 -0.2718  0.5226
 5367TIP3    H237737   5.031   3.992   7.784  0.1570 -1.5317 -0.8748
 5368TIP3   OH237738   2.023   6.440   1.353 -0.2344  1.0425  0.9966
 5368TIP3    H137739   2.086   6.428   1.424  0.7236  0.5765  0.0937
 5368TIP3    H237740   1.939   6.414   1.391  0.3520  0.2206  1.7921
 5369TIP3   OH237741   0.879   2.030   7.961 -0.5295  0.6521 -0.2548
 5369TIP3    H137742   0.930   1.969   7.908 -0.5052 -0.3127  0.8251
 5369TIP3    H237743   0.900   2.116   7.926  0.8835  0.1803 -0.6290
 5370TIP3   OH237744   5.148   0.934   1.671 -0.6240  0.2544 -0.0493
 5370TIP3    H137745   5.063   0.891   1.665 -0.2144 -0.4977 -0.5307
 5370TIP3    H237746   5.205   0.869   1.713 -0.6242  1.2687  1.6087
 5371TIP3   OH237747   4.079   4.862   7.795  0.4755  0.5061 -0.0470
 5371TIP3    H137748   3.993   4.902   7.812  1.2214  1.9319  0.5588
 5371TIP3    H237749   4.088   4.796   7.862 -0.7312 -0.6663 -0.9804
 5372TIP3   OH237750   6.641   5.637   8.402  0.5355 -0.1043  0.3941
 5372TIP3    H137751   6.680   5.552   8.421 -0.7357 -1.0390 -0.9482
 5372TIP3    H237752   6.666   5.655   8.312 -3.4896 -1.6751 -1.2579
 5373TIP3   OH237753   2.115   1.066   7.311 -0.1835 -0.3041 -0.8150
 5373TIP3    H137754   2.086   1.108   7.393 -1.1940 -0.7751 -0.9214
 5373TIP3    H237755   2.042   1.077   7.251  0.8881  0.8410 -1.9904
 5374TIP3   OH237756   2.541   1.747   1.454  0.3722 -0.1823 -0.3233
 5374TIP3    H137757   2.553   1.697   1.535  0.2969  2.4868  1.5081
 5374TIP3    H237758   2.462   1.711   1.414 -0.0628 -1.0605  1.2534
 5375TIP3   OH237759   6.256   3.060   0.437  0.3498  0.7497 -0.1409
 5375TIP3    H137760   6.232   2.990   0.497 -1.5714  1.6215  0.1722
 5375TIP3    H237761   6.348   3.078   0.456  0.2654 -0.2033  1.2840
 5376TIP3   OH237762   4.350   3.499   0.241 -0.1522  0.1549 -0.2645
 5376TIP3    H137763   4.344   3.410   0.276 -0.6331  0.4106  0.3143
 5376TIP3    H237764   4.358   3.486   0.147 -0.5506 -0.5018 -0.2225
 5377TIP3   OH237765   6.808   4.738   6.682  0.3035  0.0940 -0.5934
 5377TIP3    H137766   6.752   4.788   6.742 -1.3695 -0.8006 -1.3537
 5377TIP3    H237767   6.861   4.805   6.638 -0.1804  0.9746  0.1146
 5378TIP3   OH237768   2.034   1.599   1.180 -0.1174 -0.2631 -0.1259
 5378TIP3    H137769   2.056   1.689   1.205 -0.2681 -0.5703  1.1752
 5378TIP3    H237770   2.095   1.579   1.109  0.6204  0.5210  0.2622
 5379TIP3   OH237771   2.030   1.833   1.819 -0.4451  0.7946 -0.0913
 5379TIP3    H137772   2.104   1.829   1.880 -0.4809  0.0795 -0.0910
 5379TIP3    H237773   2.062   1.794   1.739 -0.6666  0.9556 -0.2616
 5380TIP3   OH237774   0.439   2.661   8.021 -0.1304  0.9145 -0.1807
 5380TIP3    H137775   0.394   2.615   7.950  0.2643  1.2382 -0.6461
 5380TIP3    H237776   0.480   2.736   7.978  1.0278  0.5093  0.1971
 5381TIP3   OH237777   5.055   5.370   0.033 -0.2329 -0.0446  0.1788
 5381TIP3    H137778   5.141   5.361  -0.009  0.0492 -0.4918  0.8426
 5381TIP3    H237779   5.075   5.396   0.123 -0.7207 -1.6258  0.7767
 5382TIP3   OH237780   2.204   1.017   7.891 -0.5297 -0.3174  0.2323
 5382TIP3    H137781   2.290   1.031   7.930 -1.0046  1.1685  0.8379
 5382TIP3    H237782   2.212   0.935   7.844  1.1858 -0.2696  0.3707
 5383TIP3   OH237783   1.844   4.005   8.491  0.1319  0.5372  0.1536
 5383TIP3    H137784   1.904   3.933   8.475 -1.6749 -1.3169  1.1650
 5383TIP3    H237785   1.898   4.073   8.533  1.8402 -0.2821 -0.6301
 5384TIP3   OH237786   1.894   3.152   0.049  0.5937 -0.2770 -0.2830
 5384TIP3    H137787   1.952   3.195   0.112 -0.6006  1.1090 -0.0602
 5384TIP3    H237788   1.934   3.171  -0.037  0.2855  1.0310 -0.1629
 5385TIP3   OH237789   3.898   1.653   8.209  0.0802 -0.3786 -0.2988
 5385TIP3    H137790   3.897   1.638   8.304 -0.6107 -1.2143 -0.4268
 5385TIP3    H237791   3.926   1.570   8.171 -0.3921 -0.2914 -0.8574
 5386TIP3   OH237792   1.524   0.568   7.302  0.2453 -0.3697  0.1245
 5386TIP3    H137793   1.528   0.508   7.227 -0.8088  0.6205 -0.7494
 5386TIP3    H237794   1.591   0.535   7.362  0.6033 -1.6259 -0.9188
 5387TIP3   OH237795   1.430   5.892   0.781 -0.4405  0.2116 -0.1979
 5387TIP3    H137796   1.447   5.987   0.783 -0.8900  0.2899  0.3001
 5387TIP3    H237797   1.515   5.852   0.795  0.2668  0.4688 -3.0706
 5388TIP3   OH237798   0.955   0.159   1.663  0.0591  0.0984  0.1116
 5388TIP3    H137799   1.033   0.207   1.633  0.1626 -0.9790 -1.4658
 5388TIP3    H237800   0.895   0.164   1.590 -1.2817  0.6496  1.2059
 5389TIP3   OH237801   0.886   2.545   6.902  0.2728 -0.4978 -0.1235
 5389TIP3    H137802   0.816   2.499   6.856  1.2126 -0.9221 -1.1927
 5389TIP3    H237803   0.932   2.594   6.833  0.8937 -0.0701  0.5814
 5390TIP3   OH237804   1.085   0.540   1.684  0.3166  0.0720  0.2097
 5390TIP3    H137805   1.177   0.562   1.669  0.5262 -0.3130  0.8796
 5390TIP3    H237806   1.040   0.572   1.606  0.8274  1.4190  0.4509
 5391TIP3   OH237807   5.854   5.824   8.029 -0.5287  0.2326 -0.2277
 5391TIP3    H137808   5.782   5.872   7.988 -0.5583  0.1833 -0.2339
 5391TIP3    H237809   5.933   5.870   8.001 -0.4935 -0.2899 -1.0151
 5392TIP3   OH237810   5.221   4.750   6.970  0.8374  0.4166  0.7798
 5392TIP3    H137811   5.224   4.844   6.983  1.3850  0.2960  1.6551
 5392TIP3    H237812   5.251   4.713   7.053  0.4646 -0.5338  0.5142
 5393TIP3   OH237813   2.665   4.882   6.875 -0.1429  0.0442  0.3256
 5393TIP3    H137814   2.579   4.851   6.903 -1.4220  1.2719 -1.9642
 5393TIP3    H237815   2.646   4.949   6.809  2.5740 -0.4947 -1.1530
 5394TIP3   OH237816   5.092   1.205   1.694 -0.8565  0.1815  0.5138
 5394TIP3    H137817   5.106   1.115   1.664 -3.4870  0.2607 -1.3342
 5394TIP3    H237818   5.142   1.259   1.632  0.6260  0.0564  1.5521
 5395TIP3   OH237819   6.535   3.573   7.879  0.9247 -0.1050  0.1557
 5395TIP3    H137820   6.511   3.634   7.810  2.2313 -1.0987 -1.2495
 5395TIP3    H237821   6.626   3.595   7.900  1.1138 -0.9697  0.2715
 5396TIP3   OH237822   2.978   5.118   1.942 -0.9319 -0.5647 -0.0895
 5396TIP3    H137823   3.022   5.043   1.902 -0.0824 -0.8700  1.3149
 5396TIP3    H237824   2.906   5.139   1.883  2.2858  1.3756 -3.7439
 5397TIP3   OH237825   0.062   6.632   7.290  0.4404 -0.5593 -1.1288
 5397TIP3    H137826   0.080   6.542   7.320  0.1131 -0.0067  0.8480
 5397TIP3    H237827   0.099   6.688   7.358 -0.9546  0.7755 -1.4128
 5398TIP3   OH237828   6.459   4.840   1.070 -0.6477 -0.0399  0.1021
 5398TIP3    H137829   6.501   4.768   1.117  2.8206  1.4794 -0.3792
 5398TIP3    H237830   6.366   4.831   1.091  0.1879 -1.7760  3.9645
 5399TIP3   OH237831   4.907   3.819   0.075 -0.3092 -0.6633 -0.1064
 5399TIP3    H137832   4.991   3.843   0.114 -0.5270  0.0849 -0.0677
 5399TIP3    H237833   4.912   3.852  -0.015 -0.9232  0.2742  0.1870
 5400TIP3   OH237834   5.932   1.223   8.406  0.0136  0.2026  0.3982
 5400TIP3    H137835   5.963   1.172   8.481  0.6943  1.0353  0.6995
 5400TIP3    H237836   5.849   1.181   8.381  1.0480 -1.7100 -0.0366
 5401TIP3   OH237837   4.444   1.306   7.266 -0.2394 -0.3074 -0.3900
 5401TIP3    H137838   4.505   1.365   7.311  0.2997 -1.0370 -0.1422
 5401TIP3    H237839   4.430   1.235   7.328 -2.4479  0.4914  0.1439
 5402TIP3   OH237840   3.608   6.480   1.716  0.8142  0.4067 -0.0541
 5402TIP3    H137841   3.544   6.492   1.786 -0.7042 -1.2288 -1.0771
 5402TIP3    H237842   3.575   6.533   1.644  0.3125 -0.7858 -0.7351
 5403TIP3   OH237843   5.747   1.435   8.665 -0.9084  0.2451 -0.2841
 5403TIP3    H137844   5.696   1.356   8.645 -2.0640  0.7796  0.4659
 5403TIP3    H237845   5.777   1.421   8.755  1.8985 -0.8856 -1.2589
 5404TIP3   OH237846   0.180   5.829   0.847  0.2797 -0.3584 -0.0315
 5404TIP3    H137847   0.136   5.908   0.881  0.3689 -0.8249  1.2232
 5404TIP3    H237848   0.109   5.770   0.823  0.1404 -1.2175  2.2426
 5405TIP3   OH237849   4.685   1.745   1.553 -0.2588  0.2791  0.4761
 5405TIP3    H137850   4.749   1.739   1.624 -0.8213 -0.0863  0.9616
 5405TIP3    H237851   4.710   1.823   1.504  0.9825 -0.2508  0.2357
 5406TIP3   OH237852   1.787   2.828   6.217  0.4086 -0.0564 -0.1126
 5406TIP3    H137853   1.872   2.871   6.210  0.5581 -0.1976  0.7474
 5406TIP3    H237854   1.724   2.900   6.223  0.2298  0.1018 -2.7992
 5407TIP3   OH237855   3.001   0.847   7.746  0.0544 -0.1159 -0.2752
 5407TIP3    H137856   3.042   0.877   7.828 -0.1478  2.5650 -1.0632
 5407TIP3    H237857   2.913   0.885   7.749 -0.1242 -0.4145 -1.5087
 5408TIP3   OH237858   5.456   5.716   8.518  0.2606  0.3203  0.0640
 5408TIP3    H137859   5.377   5.755   8.554  1.1268  1.4802  0.7777
 5408TIP3    H237860   5.426   5.664   8.444 -0.9968  2.0376 -0.6893
 5409TIP3   OH237861   5.512   1.958   0.361 -0.3423 -0.6143 -0.0263
 5409TIP3    H137862   5.559   1.961   0.278  0.3349 -1.4039  0.3069
 5409TIP3    H237863   5.490   2.049   0.380 -0.1681 -0.3872 -0.8795
 5410TIP3   OH237864   1.398   0.520   1.682 -0.1756  0.0689  0.2088
 5410TIP3    H137865   1.411   0.426   1.678  1.9963  0.3276 -0.4245
 5410TIP3    H237866   1.459   0.550   1.749 -0.2420  1.1092 -0.1750
 5411TIP3   OH237867   1.043   0.379   2.282 -0.0657 -0.3024  0.0998
 5411TIP3    H137868   1.000   0.416   2.359  0.0797 -1.0565  0.5630
 5411TIP3    H237869   1.054   0.286   2.304  1.7553 -0.1522 -0.0096
 5412TIP3   OH237870   3.782   6.025   8.775  0.3403 -0.0811  0.0062
 5412TIP3    H137871   3.795   6.093   8.841  0.5989 -0.8048  0.7171
 5412TIP3    H237872   3.724   5.961   8.817  2.0550 -1.5334  0.3000
 5413TIP3   OH237873   4.440   6.543   6.526 -0.0132 -0.5688  0.2581
 5413TIP3    H137874   4.498   6.610   6.564  1.0103 -0.3129 -1.6161
 5413TIP3    H237875   4.489   6.462   6.534  0.7667 -0.3148 -1.5436
 5414TIP3   OH237876   1.147   5.908   7.440  0.0798  0.8950 -0.1977
 5414TIP3    H137877   1.101   5.967   7.499  1.3102  1.8457 -0.1388
 5414TIP3    H237878   1.209   5.861   7.495  0.6274  1.1503 -0.5846
 5415TIP3   OH237879   5.204   3.487   2.362  0.2866  0.0596 -0.1116
 5415TIP3    H137880   5.156   3.569   2.349  0.0844  0.2282  1.5189
 5415TIP3    H237881   5.140   3.429   2.403  0.6716 -0.6464 -0.5076
 5416TIP3   OH237882   1.150   5.908   6.537 -0.6522 -0.1667 -0.9275
 5416TIP3    H137883   1.241   5.934   6.525 -0.3108  0.8467  2.8098
 5416TIP3    H237884   1.145   5.820   6.500  2.1957 -0.7531 -0.1291
 5417TIP3   OH237885   5.131   4.255   8.583 -0.1572  0.2178 -0.4706
 5417TIP3    H137886   5.042   4.263   8.549 -0.9402 -0.5663  1.2622
 5417TIP3    H237887   5.156   4.343   8.608  0.3133  0.7597 -2.6640
 5418TIP3   OH237888   5.096   6.325   8.727 -0.2392  0.3361 -0.0117
 5418TIP3    H137889   5.104   6.242   8.776 -0.6670  0.3019  0.0002
 5418TIP3    H237890   5.186   6.358   8.723 -0.2008  0.3689  0.8533
 5419TIP3   OH237891   0.528   0.559   0.174  0.3267 -0.3163  0.0041
 5419TIP3    H137892   0.620   0.532   0.172  0.6899  0.7939  0.9638
 5419TIP3    H237893   0.526   0.643   0.129 -0.2499 -0.3869 -0.1117
 5420TIP3   OH237894   0.108   3.575   0.340  0.0722 -0.2472  0.8485
 5420TIP3    H137895   0.171   3.591   0.270  0.0105 -0.1633  0.8114
 5420TIP3    H237896   0.041   3.520   0.299 -0.3849  0.4732  0.6107
 5421TIP3   OH237897   1.115   4.348   0.882  0.1548  1.1700  0.2628
 5421TIP3    H137898   1.151   4.270   0.924 -1.1199  0.6069  0.3596
 5421TIP3    H237899   1.167   4.359   0.803  0.2746  0.1493  0.1891
 5422TIP3   OH237900   3.207   4.056   8.185 -0.4013 -0.5123  0.3976
 5422TIP3    H137901   3.261   4.032   8.110 -1.5099 -0.4109 -0.4704
 5422TIP3    H237902   3.240   4.003   8.258  0.3886 -0.9599 -0.2764
 5423TIP3   OH237903   0.765   3.337   0.439  0.0402  0.0295 -0.2792
 5423TIP3    H137904   0.830   3.407   0.431 -0.7278  0.8579  0.4913
 5423TIP3    H237905   0.815   3.257   0.426  1.3599  0.6093  0.9077
 5424TIP3   OH237906   5.735   6.343   0.431  0.3067 -0.6082 -0.0313
 5424TIP3    H137907   5.814   6.311   0.387 -0.3990  0.7820 -2.4791
 5424TIP3    H237908   5.721   6.431   0.395 -0.5064  0.5485  2.8646
 5425TIP3   OH237909   3.900   2.230   7.511 -0.3476 -0.1215 -0.0602
 5425TIP3    H137910   3.866   2.226   7.600 -0.1749 -1.2031 -0.0258
 5425TIP3    H237911   3.903   2.138   7.482 -0.4760  0.2131 -1.2032
 5426TIP3   OH237912   4.586   5.515   2.098  0.0625 -0.0364  0.0642
 5426TIP3    H137913   4.623   5.521   2.186  0.0287 -1.3162  0.1809
 5426TIP3    H237914   4.492   5.529   2.110  0.0572 -0.2195  0.2288
 5427TIP3   OH237915   6.443   4.365   1.429  0.0524  0.1488 -0.2884
 5427TIP3    H137916   6.367   4.366   1.488 -1.4652  1.3402 -2.1641
 5427TIP3    H237917   6.506   4.423   1.471  0.1213 -1.0693  1.4457
 5428TIP3   OH237918   6.526   3.747   6.615 -0.8384  0.4119  0.8453
 5428TIP3    H137919   6.494   3.669   6.568 -0.7431  0.6257  0.4199
 5428TIP3    H237920   6.611   3.766   6.575 -1.1378  1.0985  0.5193
 5429TIP3   OH237921   6.827   6.442   8.752  0.1461 -0.2437 -0.2801
 5429TIP3    H137922   6.919   6.416   8.751 -0.0157 -0.9298  1.0575
 5429TIP3    H237923   6.821   6.510   8.685  1.5871 -0.3062 -0.5047
 5430TIP3   OH237924   5.979   3.649   8.668  0.4580  0.5552  0.0091
 5430TIP3    H137925   5.921   3.572   8.662 -0.5425  0.9756  2.9475
 5430TIP3    H237926   6.059   3.616   8.709 -0.5035  1.2258  2.5995
 5431TIP3   OH237927   4.160   6.409   0.040  0.3381  0.0454 -0.5214
 5431TIP3    H137928   4.133   6.479   0.099 -0.8022 -2.7635  2.6183
 5431TIP3    H237929   4.253   6.396   0.059  0.4291  0.3723 -0.7400
 5432TIP3   OH237930   5.120   1.271   7.268  0.0109 -0.0737 -0.7284
 5432TIP3    H137931   5.117   1.186   7.225 -0.4649  0.5824 -2.0713
 5432TIP3    H237932   5.057   1.265   7.339 -0.6906 -0.5577 -1.3801
 5433TIP3   OH237933   3.832   6.545   6.849 -0.2277 -0.5228  0.4664
 5433TIP3    H137934   3.792   6.631   6.862 -0.5132 -0.8634  1.9961
 5433TIP3    H237935   3.868   6.549   6.760 -0.4599  1.0715  0.4118
 5434TIP3   OH237936   3.487   1.697   0.183 -0.0147  0.0477  0.0577
 5434TIP3    H137937   3.488   1.635   0.110 -1.7954  1.0590 -0.9010
 5434TIP3    H237938   3.446   1.649   0.255 -1.6540  0.1174 -0.7654
 5435TIP3   OH237939   5.226   4.175   6.487 -0.4780  0.7439 -0.2468
 5435TIP3    H137940   5.172   4.151   6.411  1.0488 -2.7665 -0.4197
 5435TIP3    H237941   5.299   4.224   6.449  0.3874 -1.1602 -1.2043
 5436TIP3   OH237942   3.106   3.007   7.846 -0.1467 -0.0079  0.5854
 5436TIP3    H137943   3.022   2.961   7.844 -1.3246  1.8211  3.1517
 5436TIP3    H237944   3.091   3.088   7.797  0.8525 -0.6322 -0.8396
 5437TIP3   OH237945   1.632   6.433   2.240  0.7453 -0.5601 -0.6406
 5437TIP3    H137946   1.668   6.517   2.213  0.3670 -0.0662  0.3381
 5437TIP3    H237947   1.553   6.456   2.290 -0.5138 -1.5655 -2.0691
 5438TIP3   OH237948   4.118   5.622   1.776 -0.8966 -0.4619  0.0055
 5438TIP3    H137949   4.141   5.629   1.869  1.4932  1.0712 -0.5996
 5438TIP3    H237950   4.135   5.530   1.754  1.3434 -0.2165  0.4808
 5439TIP3   OH237951   4.819   2.793   0.203 -1.2373 -0.0996  0.3007
 5439TIP3    H137952   4.774   2.763   0.283 -2.0919  0.3269 -0.0026
 5439TIP3    H237953   4.757   2.773   0.133  0.2318 -2.1308 -0.5029
 5440TIP3   OH237954   5.304   2.940   8.246 -0.3469  0.3063  0.1524
 5440TIP3    H137955   5.297   2.961   8.153  0.8265  2.1215  0.4311
 5440TIP3    H237956   5.388   2.894   8.253 -0.4335  0.1729  0.3157
 5441TIP3   OH237957   0.487   0.218   7.857  0.6505 -0.1839 -0.3462
 5441TIP3    H137958   0.446   0.303   7.841  0.8410  0.2834  1.3935
 5441TIP3    H237959   0.581   0.234   7.844  0.5602 -0.5151 -1.4648
 5442TIP3   OH237960   3.231   1.556   6.430  0.2892  0.2016  0.5006
 5442TIP3    H137961   3.252   1.600   6.347  0.1250 -1.1088 -0.2664
 5442TIP3    H237962   3.222   1.463   6.406 -0.0095 -0.1637  1.9494
 5443TIP3   OH237963   1.898   6.481   1.092  0.0031 -0.3589 -0.0801
 5443TIP3    H137964   1.912   6.460   1.184  2.1098 -0.4671 -0.3813
 5443TIP3    H237965   1.969   6.437   1.045 -1.5721 -1.1003 -1.8919
 5444TIP3   OH237966   0.032   6.124   1.323 -0.1678  0.0787  0.1719
 5444TIP3    H137967   0.064   6.213   1.339  0.1858 -0.5040  3.1335
 5444TIP3    H237968   0.089   6.067   1.375 -1.6749 -1.6831  0.0005
 5445TIP3   OH237969   0.759   2.687   0.025  0.3496  0.0551 -0.4241
 5445TIP3    H137970   0.731   2.693  -0.066 -2.4945 -1.1567  0.2694
 5445TIP3    H237971   0.773   2.593   0.040  3.1789  0.4383 -0.1880
 5446TIP3   OH237972   5.250   1.108   7.061 -0.1436 -0.0385 -0.3028
 5446TIP3    H137973   5.250   1.199   7.029  1.9271 -0.0815 -0.5484
 5446TIP3    H237974   5.261   1.055   6.982 -0.0857 -0.4224 -0.0387
 5447TIP3   OH237975   1.468   3.414   7.372  0.1145  0.1525 -0.2726
 5447TIP3    H137976   1.398   3.428   7.436  0.1409 -0.4001 -0.1196
 5447TIP3    H237977   1.428   3.435   7.288  0.1909  1.2726 -0.0460
 5448TIP3   OH237978   3.095   3.925   0.204  0.0095 -0.2014  0.1520
 5448TIP3    H137979   3.056   3.866   0.140  1.0137 -0.3470 -0.3459
 5448TIP3    H237980   3.038   4.002   0.203 -1.1303 -1.0030  0.5772
 5449TIP3   OH237981   5.293   3.037   8.012 -0.4585 -0.6162 -0.2804
 5449TIP3    H137982   5.320   3.006   7.926 -1.9317 -0.1318 -0.9630
 5449TIP3    H237983   5.333   3.124   8.020 -0.5384 -0.5525 -0.5899
 5450TIP3   OH237984   0.812   6.142   1.404 -0.4438 -0.2314  0.2050
 5450TIP3    H137985   0.761   6.174   1.329 -0.7059 -0.8383  0.1245
 5450TIP3    H237986   0.878   6.211   1.418 -1.0476  0.3847  0.0866
 5451TIP3   OH237987   4.566   5.165   0.826  0.2445 -0.1369 -0.0523
 5451TIP3    H137988   4.629   5.132   0.762 -0.4514 -1.4364 -0.0982
 5451TIP3    H237989   4.604   5.248   0.856  1.3096 -0.2354 -1.0461
 5452TIP3   OH237990   4.359   5.928   8.797 -0.3250  0.2199  0.0166
 5452TIP3    H137991   4.439   5.980   8.805 -0.2343  0.2563 -1.0226
 5452TIP3    H237992   4.373   5.853   8.854 -0.1162  0.9017  0.8860
 5453TIP3   OH237993   2.606   3.711   6.968  0.4727 -0.0549  0.6645
 5453TIP3    H137994   2.565   3.795   6.947 -1.9118 -1.3355 -0.1630
 5453TIP3    H237995   2.690   3.713   6.923  0.0650  1.5336 -0.0719
 5454TIP3   OH237996   6.764   5.856   0.539  0.0425  0.0820  0.3043
 5454TIP3    H137997   6.676   5.891   0.525  0.0259  0.5974  1.5470
 5454TIP3    H237998   6.817   5.933   0.561  1.0202 -0.1020 -1.2475
 5455TIP3   OH237999   2.895   0.253   7.166  0.0434  0.4474  0.0304
 5455TIP3    H138000   2.948   0.207   7.231 -0.0894 -1.0897 -0.8883
 5455TIP3    H238001   2.805   0.242   7.196 -0.0609 -0.6965 -0.6142
 5456TIP3   OH238002   3.699   2.535   8.006  0.4066  0.3023  0.3084
 5456TIP3    H138003   3.641   2.511   8.078 -2.9442  1.4932 -1.7623
 5456TIP3    H238004   3.784   2.549   8.047 -1.0463 -0.1426  3.8059
 5457TIP3   OH238005   1.771   0.189   6.958  0.2272 -0.8533 -0.5477
 5457TIP3    H138006   1.734   0.267   6.916 -1.7775 -0.7651  1.2092
 5457TIP3    H238007   1.830   0.224   7.024  0.1966 -0.8504 -0.5216
 5458TIP3   OH238008   0.938   3.811   8.433  0.2563  0.4919  0.6316
 5458TIP3    H138009   0.844   3.810   8.415  0.3340 -1.0078  0.1868
 5458TIP3    H238010   0.978   3.828   8.348  0.3810  2.6926  1.0752
 5459TIP3   OH238011   3.275   1.684   1.302 -0.2549 -0.2646  0.3809
 5459TIP3    H138012   3.262   1.637   1.384  1.0845 -0.9034  0.2589
 5459TIP3    H238013   3.286   1.615   1.236  0.5430  0.2086 -0.0006
 5460TIP3   OH238014   5.108   2.514   0.509  0.5378 -0.7797  0.3749
 5460TIP3    H138015   5.130   2.422   0.498  0.0842 -0.9469  0.8554
 5460TIP3    H238016   5.150   2.558   0.434 -0.1372 -1.5147 -0.4499
 5461TIP3   OH238017   5.543   3.265   0.678 -0.4327  0.6394 -0.4810
 5461TIP3    H138018   5.635   3.266   0.706 -0.3688 -1.9309 -0.3243
 5461TIP3    H238019   5.531   3.347   0.631  2.4947  0.2495 -2.1382
 5462TIP3   OH238020   6.262   6.609   0.169  0.2797  0.0321 -0.0123
 5462TIP3    H138021   6.304   6.525   0.148  1.6588  0.6008  0.3654
 5462TIP3    H238022   6.175   6.585   0.199  0.5817 -1.2578 -0.0928
 5463TIP3   OH238023   0.884   4.667   7.344 -0.1239 -0.5806  0.3239
 5463TIP3    H138024   0.899   4.761   7.333  1.2210 -0.9641 -1.6030
 5463TIP3    H238025   0.881   4.633   7.255 -0.6311 -2.3779  0.9933
 5464TIP3   OH238026   5.542   3.187   7.623  0.1121  0.1090 -0.1932
 5464TIP3    H138027   5.636   3.205   7.611 -0.0112  0.2270 -1.0770
 5464TIP3    H238028   5.537   3.093   7.640  0.3875  0.0863 -0.2334
 5465TIP3   OH238029   0.178   6.035   7.275  0.3934 -0.6860 -0.1557
 5465TIP3    H138030   0.107   6.052   7.213 -0.5408 -0.2448  0.9970
 5465TIP3    H238031   0.250   6.091   7.245 -0.0190 -0.5080 -0.8527
 5466TIP3   OH238032   6.754   4.274   2.041 -0.3506 -0.0478  0.1564
 5466TIP3    H138033   6.786   4.351   1.993 -0.1119  0.5534  1.2409
 5466TIP3    H238034   6.671   4.253   1.998  0.3871 -0.2418 -1.2392
 5467TIP3   OH238035   0.407   6.380   8.159  0.0094  0.2196  0.8529
 5467TIP3    H138036   0.433   6.471   8.140 -0.1496 -0.0595 -0.8466
 5467TIP3    H238037   0.490   6.331   8.160  0.0868  0.3483  1.6849
 5468TIP3   OH238038   1.707   5.815   2.214 -0.6872 -0.0815  0.2763
 5468TIP3    H138039   1.797   5.846   2.202 -0.2470 -1.6059 -0.6615
 5468TIP3    H238040   1.705   5.779   2.302  0.1374 -1.5851 -0.2897
 5469TIP3   OH238041   3.879   1.338   0.552 -0.2618 -0.4956  0.2676
 5469TIP3    H138042   3.817   1.341   0.479 -0.1516  1.0828  0.2080
 5469TIP3    H238043   3.903   1.429   0.567  0.3150 -0.8675  1.7796
 5470TIP3   OH238044   2.619   2.738   2.127  0.1572 -0.0250  0.2984
 5470TIP3    H138045   2.608   2.710   2.036  0.8798  0.4478  0.0547
 5470TIP3    H238046   2.530   2.758   2.157 -0.2249 -1.2955  0.0770
 5471TIP3   OH238047   4.569   2.655   6.366 -0.3629  0.0939  0.0031
 5471TIP3    H138048   4.626   2.695   6.432 -0.5696 -0.8902  0.7984
 5471TIP3    H238049   4.559   2.723   6.299  2.1199  0.1405 -0.4055
 5472TIP3   OH238050   3.138   3.432   8.206  0.3627  0.6180  0.0106
 5472TIP3    H138051   3.218   3.385   8.182  0.4690  1.4615 -1.3900
 5472TIP3    H238052   3.131   3.420   8.300  0.1650 -2.5597 -0.2810
 5473TIP3   OH238053   1.676   6.736   1.698 -0.0427  0.0331  0.1837
 5473TIP3    H138054   1.666   6.708   1.789 -0.7721 -0.1043  0.0716
 5473TIP3    H238055   1.600   6.698   1.654 -0.1843  0.8555 -0.2936
 5474TIP3   OH238056   4.352   2.977   7.518  0.3409 -0.4234 -0.5877
 5474TIP3    H138057   4.274   2.962   7.466  1.2095 -0.5295 -1.8944
 5474TIP3    H238058   4.361   2.899   7.573 -0.6713 -0.2348 -0.1377
 5475TIP3   OH238059   6.840   4.033   1.522  0.2316  0.3179  0.1425
 5475TIP3    H138060   6.896   4.092   1.571 -0.5459  0.6687  0.6339
 5475TIP3    H238061   6.753   4.072   1.527  0.1462  0.4512 -1.6639
 5476TIP3   OH238062   6.664   4.025   0.583 -0.3364 -0.3526 -0.9278
 5476TIP3    H138063   6.686   4.049   0.673 -3.9775  0.2579 -0.0311
 5476TIP3    H238064   6.687   3.933   0.576 -3.1426 -1.4531  1.9640
 5477TIP3   OH238065   2.620   3.592   7.561  0.3970 -0.2608  0.5556
 5477TIP3    H138066   2.639   3.677   7.599 -1.5744  0.3971  0.1771
 5477TIP3    H238067   2.691   3.577   7.499 -0.3711  2.2023 -1.0583
 5478TIP3   OH238068   6.458   2.328   7.594 -0.1058  0.1612 -0.0151
 5478TIP3    H138069   6.441   2.234   7.590  2.1040 -0.2918 -0.0616
 5478TIP3    H238070   6.417   2.364   7.515 -2.8149 -0.3628  1.0452
 5479TIP3   OH238071   4.590   3.162   8.529 -0.2857 -0.1203 -0.2189
 5479TIP3    H138072   4.597   3.249   8.568  0.9116 -0.2111 -0.1935
 5479TIP3    H238073   4.624   3.173   8.440  0.9178 -0.7655  0.1336
 5480TIP3   OH238074   2.249   4.712   8.388  0.2023 -0.2028 -0.1031
 5480TIP3    H138075   2.225   4.803   8.375 -2.0947 -0.8297 -0.6912
 5480TIP3    H238076   2.300   4.688   8.311 -0.1390  0.2866 -0.4799
 5481TIP3   OH238077   4.745   0.340   2.220  0.1429  0.0401  0.4076
 5481TIP3    H138078   4.692   0.363   2.296  0.0007 -0.9483  0.6243
 5481TIP3    H238079   4.682   0.320   2.151  0.2713  1.8961 -0.3067
 5482TIP3   OH238080   5.908   4.126   7.603  0.1392  0.0301 -0.2632
 5482TIP3    H138081   5.855   4.048   7.590 -0.3580  0.2202  0.5429
 5482TIP3    H238082   5.970   4.102   7.672  1.3827 -0.3111 -1.4489
 5483TIP3   OH238083   4.400   0.473   1.064  0.2431  0.0210  0.8035
 5483TIP3    H138084   4.445   0.394   1.033 -0.6281 -0.9577  1.9337
 5483TIP3    H238085   4.450   0.500   1.141 -0.3624 -0.3462  1.3331
 5484TIP3   OH238086   1.825   1.438   7.849 -0.2448  0.5300  1.0097
 5484TIP3    H138087   1.749   1.486   7.816 -1.1761 -1.9509 -0.7388
 5484TIP3    H238088   1.871   1.407   7.771 -0.3093 -2.2602  1.9372
 5485TIP3   OH238089   0.699   1.682   8.045  0.0862  0.1534 -0.3970
 5485TIP3    H138090   0.745   1.685   8.129  0.3476 -1.5861 -0.4467
 5485TIP3    H238091   0.646   1.762   8.045  0.0692  0.2007  1.4314
 5486TIP3   OH238092   1.584   1.827   1.631  0.2906  0.1538  0.1797
 5486TIP3    H138093   1.581   1.915   1.669  1.0379  0.4495 -0.4232
 5486TIP3    H238094   1.549   1.838   1.543  0.0020 -0.2349  0.2434
 5487TIP3   OH238095   5.940   1.184   2.273  0.0520  0.8347 -0.6957
 5487TIP3    H138096   5.951   1.242   2.349 -1.3076  0.8431 -0.4832
 5487TIP3    H238097   5.986   1.103   2.298 -0.9580  0.5875  0.4390
 5488TIP3   OH238098   3.892   0.043   0.330  0.0370 -0.1329  0.1155
 5488TIP3    H138099   3.926  -0.012   0.400 -1.1202  0.6575  1.3537
 5488TIP3    H238100   3.830  -0.013   0.283  1.6163 -1.0045 -1.0114
 5489TIP3   OH238101   2.233   6.185   1.779 -0.2756 -0.4276  0.2669
 5489TIP3    H138102   2.292   6.119   1.815  0.1784  0.3491  0.9978
 5489TIP3    H238103   2.155   6.179   1.834 -0.5308 -0.8554 -0.1386
 5490TIP3   OH238104   0.145   4.190   2.896  0.0627 -0.2224 -0.1462
 5490TIP3    H138105   0.220   4.143   2.934  0.5856 -0.2244 -1.1288
 5490TIP3    H238106   0.149   4.168   2.803 -0.2164  1.0558 -0.4805
 5491TIP3   OH238107   0.732   1.763   8.567 -0.1985 -0.5301 -0.7881
 5491TIP3    H138108   0.679   1.687   8.591 -2.0414  0.9766  0.2371
 5491TIP3    H238109   0.679   1.809   8.502  0.5410  0.2713 -0.8385
 5492TIP3   OH238110   5.856   5.742   0.470  0.4838 -0.6953 -0.2717
 5492TIP3    H138111   5.855   5.653   0.505 -0.8141 -0.7349 -0.3867
 5492TIP3    H238112   5.862   5.730   0.375  3.6748 -0.5902 -0.1975
 5493TIP3   OH238113   6.279   1.829   0.499  1.0212 -0.4501 -0.0150
 5493TIP3    H138114   6.214   1.874   0.553  0.1421 -1.0394 -0.5519
 5493TIP3    H238115   6.333   1.899   0.462  1.1241  0.0033  0.9852
 5494TIP3   OH238116   1.190   5.911   0.089 -0.2057  0.5426  0.1584
 5494TIP3    H138117   1.143   5.893   0.171 -0.3469 -2.4531 -0.4501
 5494TIP3    H238118   1.120   5.925   0.024 -0.1316  1.1425  0.2047
 5495TIP3   OH238119   1.366   4.918   0.959 -0.0350  0.7674 -0.4627
 5495TIP3    H138120   1.401   4.901   0.871  2.8689  0.5785  0.6160
 5495TIP3    H238121   1.337   4.832   0.990  0.7703  0.4585 -0.5380
 5496TIP3   OH238122   0.165   0.568   6.744 -0.6947  0.3587 -0.3534
 5496TIP3    H138123   0.088   0.605   6.788 -1.4743 -1.1618 -0.3742
 5496TIP3    H238124   0.190   0.493   6.797  2.0461  1.9189  0.7616
 5497TIP3   OH238125   3.326   5.869   7.023  0.1643  0.5128  0.1005
 5497TIP3    H138126   3.249   5.855   6.967  0.7540  0.1234 -0.6270
 5497TIP3    H238127   3.332   5.789   7.074  1.1495 -0.2594 -1.1620
 5498TIP3   OH238128   6.676   2.619   0.722 -0.1074  0.1070  0.0450
 5498TIP3    H138129   6.765   2.638   0.694  0.2535 -0.4938  0.7583
 5498TIP3    H238130   6.621   2.655   0.652  0.5958  2.1191  0.4766
 5499TIP3   OH238131   4.404   4.227   0.217  0.2130 -0.0573  0.6858
 5499TIP3    H138132   4.393   4.321   0.206 -0.5177 -0.0677  1.2878
 5499TIP3    H238133   4.492   4.209   0.181 -1.1752  0.1820 -3.4031
 5500TIP3   OH238134   4.533   3.676   8.677 -0.7288 -0.8524 -0.2206
 5500TIP3    H138135   4.446   3.695   8.713 -0.3434 -0.0450  0.3302
 5500TIP3    H238136   4.526   3.696   8.584 -1.6055 -2.4864 -0.5321
 5501TIP3   OH238137   2.426   3.983   7.674 -0.4994 -0.1989  0.3755
 5501TIP3    H138138   2.399   4.066   7.634  0.4727 -0.1067 -0.1110
 5501TIP3    H238139   2.448   3.927   7.600  1.1757 -0.0769  0.7464
 5502TIP3   OH238140   3.468   6.102   2.019  0.1587  0.2210  0.2656
 5502TIP3    H138141   3.548   6.153   2.005  0.7204 -0.4585  0.8550
 5502TIP3    H238142   3.469   6.083   2.113 -0.6829  0.1759  0.2698
 5503TIP3   OH238143   5.830   6.824   1.149  0.4414 -0.5379  0.6941
 5503TIP3    H138144   5.899   6.890   1.152  0.2750 -0.2466 -1.0664
 5503TIP3    H238145   5.752   6.870   1.180  0.5225 -0.1783  0.3646
 5504TIP3   OH238146   0.165   0.679   1.983  0.2668  0.2183  0.2816
 5504TIP3    H138147   0.151   0.768   1.952  1.6023 -0.2077 -1.7375
 5504TIP3    H238148   0.094   0.628   1.943 -0.7863  0.3841  1.8209
 5505TIP3   OH238149   5.916   1.241   0.837 -0.1173  0.3777  0.3850
 5505TIP3    H138150   5.953   1.204   0.917 -0.1352  0.9272  0.6518
 5505TIP3    H238151   5.956   1.191   0.767 -0.4301 -0.4052  0.7546
 5506TIP3   OH238152   6.353   0.546   7.309 -0.4117  0.0032  0.3173
 5506TIP3    H138153   6.328   0.505   7.391 -1.3191  1.0971  0.6118
 5506TIP3    H238154   6.272   0.584   7.274  0.1823  0.6124 -0.4585
 5507TIP3   OH238155   5.737   4.244   2.067 -0.0127  0.4482  0.0233
 5507TIP3    H138156   5.754   4.268   2.158 -1.2794  1.7539 -0.0466
 5507TIP3    H238157   5.654   4.196   2.069 -0.1646  0.6768 -0.4643
 5508TIP3   OH238158   4.483   3.599   0.490 -0.2804  0.2734 -0.7722
 5508TIP3    H138159   4.567   3.578   0.449  0.4857 -0.0385  0.8524
 5508TIP3    H238160   4.436   3.516   0.494  0.0598  0.1082 -0.1382
 5509TIP3   OH238161   1.032   6.241   0.066  0.6287 -0.7743  0.7128
 5509TIP3    H138162   0.940   6.265   0.060  1.1435  1.1399 -0.4543
 5509TIP3    H238163   1.067   6.254  -0.022  2.1025 -1.0401  1.2204
 5510TIP3   OH238164   1.940   6.758   8.211 -0.1354 -0.2575  0.3241
 5510TIP3    H138165   1.879   6.817   8.256 -0.1469  0.2455 -0.3330
 5510TIP3    H238166   1.884   6.704   8.155  0.0257  0.3365 -0.4268
 5511TIP3   OH238167   3.637   1.917   1.125  0.4791  0.4198  0.4517
 5511TIP3    H138168   3.627   1.852   1.056  0.7685 -0.6255  1.3667
 5511TIP3    H238169   3.597   1.877   1.202  1.3049  1.0257  1.2167
 5512TIP3   OH238170   2.483   2.291   0.289 -0.2369 -0.0491 -0.0462
 5512TIP3    H138171   2.484   2.223   0.221 -0.4596 -0.7475  0.6329
 5512TIP3    H238172   2.428   2.360   0.253  2.5515  1.2770 -2.1484
 5513TIP3   OH238173   1.554   0.648   0.290 -0.6204 -0.8782 -0.0374
 5513TIP3    H138174   1.515   0.652   0.377  1.5584  0.4154  0.9791
 5513TIP3    H238175   1.557   0.740   0.261  0.2425 -1.1117 -0.7177
 5514TIP3   OH238176   2.424   4.747   0.437 -0.0217 -0.4368 -0.2270
 5514TIP3    H138177   2.464   4.662   0.455 -2.0916 -1.4966 -0.3020
 5514TIP3    H238178   2.342   4.746   0.486 -1.7249  0.1044 -2.8481
 5515TIP3   OH238179   2.744   5.080   7.455  0.0645  0.0918 -0.0800
 5515TIP3    H138180   2.752   5.131   7.375 -0.8153 -0.4134 -0.4933
 5515TIP3    H238181   2.772   5.141   7.524  1.2517  0.3988 -0.7860
 5516TIP3   OH238182   4.074   5.159   1.887  0.4429  0.1280 -0.3877
 5516TIP3    H138183   4.122   5.142   1.968  0.0567  2.2606  0.3488
 5516TIP3    H238184   4.011   5.087   1.881  1.6350 -1.0156  0.2499
 5517TIP3   OH238185   5.390   3.130   8.788 -0.8569 -0.4314 -0.3921
 5517TIP3    H138186   5.478   3.144   8.823  0.3197  1.2030 -3.5889
 5517TIP3    H238187   5.357   3.055   8.837  2.0679 -0.7594  1.3418
 5518TIP3   OH238188   5.535   6.040   0.274 -1.1328  0.2152  0.0177
 5518TIP3    H138189   5.586   6.108   0.229  0.6064 -0.4092  0.9730
 5518TIP3    H238190   5.506   6.082   0.355 -0.5976  0.0341  0.3091
 5519TIP3   OH238191   3.092   6.840   2.422  0.2654  0.4170 -0.6271
 5519TIP3    H138192   3.023   6.775   2.409 -0.1220  1.1588 -2.6437
 5519TIP3    H238193   3.045   6.923   2.431  0.8236  0.6516  0.3191
 5520TIP3   OH238194   1.614   6.409   0.317  0.9930 -0.7046  0.5163
 5520TIP3    H138195   1.549   6.413   0.388 -0.2235 -0.6707 -0.5686
 5520TIP3    H238196   1.563   6.386   0.239  2.1914 -0.0050 -0.5024
 5521TIP3   OH238197   5.166   5.788   1.446  0.2203  0.5843  0.2658
 5521TIP3    H138198   5.123   5.792   1.531  0.1656 -3.0518  0.5774
 5521TIP3    H238199   5.116   5.846   1.390 -0.0072  2.7374  2.5614
 5522TIP3   OH238200   3.157   0.271   7.861  0.1199 -0.3082  0.2750
 5522TIP3    H138201   3.221   0.332   7.899 -0.5711  1.3627 -1.1103
 5522TIP3    H238202   3.074   0.318   7.863 -1.0157 -2.2378  1.5373
 5523TIP3   OH238203   0.333   1.245   6.173  0.1443 -0.2173  1.2787
 5523TIP3    H138204   0.259   1.265   6.230  0.0576  3.1143  0.2508
 5523TIP3    H238205   0.294   1.225   6.089  0.3238  0.6695  0.9648
 5524TIP3   OH238206   5.751   4.989   8.251  0.1006 -0.1751  0.3003
 5524TIP3    H138207   5.717   5.002   8.163 -0.7584  0.2346  0.6807
 5524TIP3    H238208   5.788   4.900   8.250  0.5240 -0.0012 -0.5920
 5525TIP3   OH238209   0.068   2.577   6.865  0.4924 -0.4237  0.0826
 5525TIP3    H138210   0.114   2.660   6.851  0.8909 -0.4204  1.3181
 5525TIP3    H238211  -0.022   2.603   6.884  0.6037 -0.2748  0.4114
 5526TIP3   OH238212   2.363   5.576   8.477 -0.4595  0.0618 -0.4313
 5526TIP3    H138213   2.355   5.537   8.390  0.0735  0.6273 -0.7413
 5526TIP3    H238214   2.453   5.558   8.503 -0.7847 -0.6364  0.2796
 5527TIP3   OH238215   6.335   5.230   0.268  0.0820  0.5547  0.1615
 5527TIP3    H138216   6.387   5.305   0.297 -1.2711  2.2094 -1.4805
 5527TIP3    H238217   6.381   5.198   0.190  0.2731  0.0706  0.4637
 5528TIP3   OH238218   1.089   3.593   1.473  0.6295 -0.1065 -0.0773
 5528TIP3    H138219   1.120   3.654   1.407  1.6780 -2.0962 -1.5121
 5528TIP3    H238220   0.994   3.588   1.458  0.6436  0.5810 -0.4243
 5529TIP3   OH238221   3.524   0.388   1.214  0.2585 -0.1243  0.2865
 5529TIP3    H138222   3.436   0.416   1.240  0.1028 -2.6663  2.9473
 5529TIP3    H238223   3.515   0.295   1.196  1.8343  0.1851 -2.8466
 5530TIP3   OH238224   0.390   2.824   0.442 -0.0590  0.2714 -0.1580
 5530TIP3    H138225   0.313   2.768   0.436  0.5672 -1.1014  2.7812
 5530TIP3    H238226   0.454   2.783   0.384 -0.8246  0.1461 -0.9242
 5531TIP3   OH238227   1.266   0.203   0.495 -0.4589  0.0272  0.2952
 5531TIP3    H138228   1.359   0.197   0.519 -0.1626  1.1251 -0.5169
 5531TIP3    H238229   1.222   0.144   0.556  0.7686 -0.4840  0.7181
 5532TIP3   OH238230   1.608   6.536   1.092  0.2498  0.2836 -0.0421
 5532TIP3    H138231   1.593   6.613   1.147 -0.0036  1.1279 -1.2594
 5532TIP3    H238232   1.692   6.552   1.050  0.4229 -0.3379  0.0562
 5533TIP3   OH238233   3.695   4.648   0.600  0.0365  0.0850  0.0799
 5533TIP3    H138234   3.728   4.560   0.618  3.2787  1.2704  0.5809
 5533TIP3    H238235   3.742   4.705   0.660 -3.4629  2.0831  1.2512
 5534TIP3   OH238236   0.956   2.810   6.928 -0.3459 -0.3081  0.2411
 5534TIP3    H138237   1.037   2.771   6.962  0.7705  0.6650 -1.1837
 5534TIP3    H238238   0.896   2.735   6.917  1.1940 -1.4258 -0.9757
 5535TIP3   OH238239   5.876   6.170   8.178 -0.2942 -0.5143 -0.1654
 5535TIP3    H138240   5.809   6.115   8.220 -0.9484 -1.0362 -1.8119
 5535TIP3    H238241   5.957   6.149   8.224 -0.8993 -1.3930  0.5279
 5536TIP3   OH238242   3.405   0.379   8.655  0.1124 -0.3625  0.0825
 5536TIP3    H138243   3.475   0.406   8.716 -0.3810  0.1030  0.4479
 5536TIP3    H238244   3.431   0.416   8.571  0.3779 -0.3050  0.1888
 5537TIP3   OH238245   4.435   3.905   1.615 -0.0269 -0.2159  0.2917
 5537TIP3    H138246   4.523   3.891   1.650 -0.1542  0.3940  0.8766
 5537TIP3    H238247   4.447   3.968   1.544 -0.2091  1.2733  1.5521
 5538TIP3   OH238248   2.727   4.601   8.231  0.5557  0.0331 -0.1940
 5538TIP3    H138249   2.780   4.673   8.266 -1.8096  0.9986  1.6613
 5538TIP3    H238250   2.770   4.522   8.263  1.0433  0.7650  1.0136
 5539TIP3   OH238251   6.735   3.040   0.427 -0.4316  0.2304  0.3628
 5539TIP3    H138252   6.662   3.005   0.377  0.7757 -0.6992 -0.7909
 5539TIP3    H238253   6.811   2.986   0.402  0.3667  0.1427  2.6786
 5540TIP3   OH238254   1.630   4.376   8.387  0.2314  0.2664 -0.5234
 5540TIP3    H138255   1.537   4.394   8.398  0.1004 -0.4365 -0.3855
 5540TIP3    H238256   1.664   4.369   8.476  0.2448 -0.2646 -0.5656
 5541TIP3   OH238257   0.263   1.753   8.766 -0.2662 -0.4068  0.7344
 5541TIP3    H138258   0.223   1.839   8.751  1.5100  0.8824  2.7331
 5541TIP3    H238259   0.252   1.739   8.860  1.1246 -1.4964  0.7458
 5542TIP3   OH238260   3.793   5.836   8.535  0.1954  0.4285  0.3627
 5542TIP3    H138261   3.795   5.917   8.586 -0.2152  2.3459 -2.4272
 5542TIP3    H238262   3.701   5.815   8.526  0.2775 -0.0510  0.6338
 5543TIP3   OH238263   1.819   4.597   7.456  0.6061  0.0176  0.2620
 5543TIP3    H138264   1.839   4.543   7.379 -0.4476  0.3926 -0.2924
 5543TIP3    H238265   1.792   4.534   7.523 -0.9236 -0.1461 -0.4811
 5544TIP3   OH238266   0.181   6.848   0.425 -0.0885 -0.0401 -0.0084
 5544TIP3    H138267   0.234   6.927   0.429 -0.5401  0.2205  1.4331
 5544TIP3    H238268   0.239   6.778   0.456  0.3454 -0.3143 -1.3887
 5545TIP3   OH238269   1.737   3.186   1.328  0.2108 -0.0722 -0.8114
 5545TIP3    H138270   1.652   3.230   1.338 -1.6389 -3.6803  1.3501
 5545TIP3    H238271   1.790   3.220   1.400 -0.6433 -0.2250 -0.0867
 5546TIP3   OH238272   5.338   6.235   0.048  0.1866 -0.2568 -0.1829
 5546TIP3    H138273   5.402   6.249  -0.022 -1.5001 -2.0819 -2.2219
 5546TIP3    H238274   5.345   6.142   0.069 -0.5775 -0.1002  0.8629
 5547TIP3   OH238275   4.729   5.957   1.091  0.3241  0.1122  0.2164
 5547TIP3    H138276   4.663   5.937   1.158 -0.6920  0.9258 -0.4951
 5547TIP3    H238277   4.776   6.033   1.126 -0.0622  0.4027  0.1202
 5548TIP3   OH238278   3.904   1.104   8.225 -0.1759 -0.1282  0.1058
 5548TIP3    H138279   3.989   1.113   8.183  0.5594 -0.2415  1.4908
 5548TIP3    H238280   3.910   1.020   8.272 -0.2000  0.8776  2.0015
 5549TIP3   OH238281   6.737   6.541   7.710 -0.5266  0.4702  0.1304
 5549TIP3    H138282   6.730   6.606   7.640  1.3981  0.0837 -0.4637
 5549TIP3    H238283   6.747   6.593   7.790  2.1318  0.9926 -0.4576
 5550TIP3   OH238284   2.504   3.065   8.230  0.2901 -0.4225 -0.6344
 5550TIP3    H138285   2.545   3.151   8.224  0.9718 -0.5408  1.5895
 5550TIP3    H238286   2.574   3.007   8.259 -1.1286 -0.7603  2.5895
 5551TIP3   OH238287   1.279   2.869   2.255  0.6132 -0.2899 -0.2739
 5551TIP3    H138288   1.349   2.885   2.191 -0.7487  0.3252 -1.6902
 5551TIP3    H238289   1.278   2.775   2.267  0.5329 -0.4865 -1.6450
 5552TIP3   OH238290   4.813   2.105   0.556  0.4274  0.7709 -0.1198
 5552TIP3    H138291   4.826   2.193   0.521  0.5425  1.2415  1.0428
 5552TIP3    H238292   4.728   2.077   0.523  0.2827  1.4188 -0.2976
 5553TIP3   OH238293   4.886   1.980   0.866  0.8395 -0.2216  0.1354
 5553TIP3    H138294   4.888   2.075   0.863 -0.3735 -0.1092  1.7879
 5553TIP3    H238295   4.918   1.953   0.780  1.1361  1.6543 -0.3931
 5554TIP3   OH238296   2.298   5.576   7.350  0.2385 -0.7810  0.1161
 5554TIP3    H138297   2.265   5.553   7.263  2.2936 -1.2752 -0.5713
 5554TIP3    H238298   2.353   5.653   7.335  0.5689 -0.8386  0.9875
 5555TIP3   OH238299   5.685   3.413   1.199  0.6411 -0.2343 -0.1288
 5555TIP3    H138300   5.754   3.359   1.236  0.2088 -0.3170  0.5732
 5555TIP3    H238301   5.708   3.421   1.106  0.8151 -1.4730 -0.2129
 5556TIP3   OH238302   2.927   0.983   6.585  0.0578  0.3316 -0.1088
 5556TIP3    H138303   3.019   0.993   6.558  0.3736 -1.0895  0.3514
 5556TIP3    H238304   2.912   1.056   6.645  0.9384  0.4967 -0.0654
 5557TIP3   OH238305   1.534   3.104   8.685  0.2660  0.8693  0.0060
 5557TIP3    H138306   1.446   3.141   8.684  0.4477  1.3679  0.9296
 5557TIP3    H238307   1.532   3.037   8.753 -0.3627 -1.7275 -2.3574
 5558TIP3   OH238308   6.222   3.453   8.082 -0.4935  0.2169 -0.3048
 5558TIP3    H138309   6.295   3.493   8.130  0.6689 -1.1231 -0.8852
 5558TIP3    H238310   6.245   3.360   8.078 -0.1204  0.3367 -4.1256
 5559TIP3   OH238311   1.320   4.486   7.807  0.2074 -0.7450  0.2095
 5559TIP3    H138312   1.327   4.502   7.713  0.7413 -0.0972  0.3438
 5559TIP3    H238313   1.347   4.569   7.847 -1.6077 -0.4515  0.9213
 5560TIP3   OH238314   2.694   6.176   8.578  0.3747 -0.6200  0.4362
 5560TIP3    H138315   2.718   6.135   8.495 -2.6961 -1.4859 -0.1464
 5560TIP3    H238316   2.694   6.270   8.559  2.7256 -0.5489  0.4303
 5561TIP3   OH238317   0.782   0.472   0.185  0.1960 -0.1671 -0.1267
 5561TIP3    H138318   0.828   0.409   0.241  0.9515 -0.8360 -1.4540
 5561TIP3    H238319   0.847   0.500   0.121 -0.5319  0.9050 -0.4257
 5562TIP3   OH238320   1.112   1.570   2.024 -0.1756 -0.8099 -0.3105
 5562TIP3    H138321   1.147   1.653   2.054 -2.9461  0.3934 -0.1613
 5562TIP3    H238322   1.103   1.581   1.929  0.1129 -1.2412 -0.3942
 5563TIP3   OH238323   2.159   5.827   2.620 -0.4883 -0.0104  0.0897
 5563TIP3    H138324   2.186   5.884   2.548  0.8987  0.1152  0.6758
 5563TIP3    H238325   2.209   5.859   2.696 -1.0194 -0.8917  0.8291
 5564TIP3   OH238326   1.330   4.137   0.983 -0.2966  0.1392 -0.0941
 5564TIP3    H138327   1.377   4.185   1.050 -0.6358  3.3154 -1.9263
 5564TIP3    H238328   1.300   4.057   1.026  3.1602 -0.0828  2.2424
 5565TIP3   OH238329   2.555   2.318   8.464  0.5286 -0.2300  0.6243
 5565TIP3    H138330   2.584   2.346   8.551 -0.4313 -1.2098  1.2901
 5565TIP3    H238331   2.519   2.231   8.478 -1.0815  0.2121 -0.4600
 5566TIP3   OH238332   5.977   1.672   1.522  0.0621 -0.1174  0.2592
 5566TIP3    H138333   6.047   1.657   1.458 -0.4833 -0.5832 -0.2375
 5566TIP3    H238334   5.952   1.763   1.509  1.0210  0.2623  0.9039
 5567TIP3   OH238335   2.603   0.658   6.678  0.1095  0.3737 -0.1800
 5567TIP3    H138336   2.682   0.677   6.627  0.5037  0.3747  0.4165
 5567TIP3    H238337   2.606   0.722   6.750 -0.0257 -0.1288  0.2775
 5568TIP3   OH238338   1.356   3.401   8.055  0.8434  0.0070 -0.0168
 5568TIP3    H138339   1.354   3.436   8.144  1.6966 -0.5443  0.2281
 5568TIP3    H238340   1.268   3.364   8.043  0.3944  0.9706  0.2250
 5569TIP3   OH238341   1.728   2.036   0.208 -0.0952  0.2189 -0.3892
 5569TIP3    H138342   1.689   1.949   0.204  0.6677 -0.2236  1.0194
 5569TIP3    H238343   1.778   2.044   0.127 -1.0431 -0.1945 -1.0408
 5570TIP3   OH238344   3.610   1.538   1.121 -0.0688 -0.0019 -0.0763
 5570TIP3    H138345   3.642   1.451   1.100  1.4340  0.0667  1.6986
 5570TIP3    H238346   3.651   1.596   1.056 -0.2030 -0.4658 -0.5787
 5571TIP3   OH238347   6.237   0.705   8.621  0.0468 -0.1507 -0.0397
 5571TIP3    H138348   6.255   0.616   8.653 -0.3254 -0.1437  0.1932
 5571TIP3    H238349   6.169   0.738   8.679 -0.1607  0.1140 -0.4319
 5572TIP3   OH238350   2.467   4.963   8.515 -0.3550  0.0277  0.3161
 5572TIP3    H138351   2.464   4.931   8.425 -2.5573 -1.6340  0.9078
 5572TIP3    H238352   2.532   4.907   8.558 -2.8870 -2.7508  0.8886
 5573TIP3   OH238353   5.063   4.516   8.000  0.6411  0.0553 -0.4306
 5573TIP3    H138354   5.018   4.552   8.076  3.2215  0.7797  0.8737
 5573TIP3    H238355   5.102   4.434   8.033  0.7238 -0.2907 -1.3627
 5574TIP3   OH238356   5.549   2.890   7.648 -0.9512  0.0543 -0.3184
 5574TIP3    H138357   5.531   2.796   7.644  0.2914 -0.1984 -0.6018
 5574TIP3    H238358   5.603   2.907   7.571 -1.3797  1.0592 -0.4105
 5575TIP3   OH238359   0.005   3.884   6.918 -0.2437  0.0196 -0.6388
 5575TIP3    H138360  -0.090   3.886   6.910 -0.8387 -0.6095  3.7864
 5575TIP3    H238361   0.032   3.976   6.916 -1.1681  0.3058 -0.1346
 5576TIP3   OH238362   2.713   0.259   0.566 -0.2553 -0.2574 -0.8600
 5576TIP3    H138363   2.792   0.235   0.615 -1.3961 -0.8775  0.7733
 5576TIP3    H238364   2.744   0.316   0.496  1.6552 -0.6492 -0.3901
 5577TIP3   OH238365   0.383   5.178   7.529 -1.0754 -0.0300 -0.2507
 5577TIP3    H138366   0.469   5.138   7.520 -0.1207  2.0593 -0.9889
 5577TIP3    H238367   0.334   5.117   7.585  1.5684 -0.2315  2.0366
 5578TIP3   OH238368   1.086   3.996   2.095 -0.3305 -0.0543 -0.1117
 5578TIP3    H138369   1.160   4.055   2.102 -0.0434 -0.5275  1.2068
 5578TIP3    H238370   1.011   4.046   2.128 -0.5075  0.2562 -0.9688
 5579TIP3   OH238371   1.595   3.822   8.274 -0.0915  0.0194 -0.5874
 5579TIP3    H138372   1.547   3.807   8.193 -0.7703 -0.1260 -0.1701
 5579TIP3    H238373   1.595   3.917   8.285  1.0458  0.1246 -1.3637
 5580TIP3   OH238374   4.054   0.947   1.782  0.4699  0.1650 -0.2759
 5580TIP3    H138375   3.983   0.988   1.831  1.8868  0.5772  1.5512
 5580TIP3    H238376   4.074   1.010   1.712  0.0790  0.7757  0.1524
 5581TIP3   OH238377   2.644   4.738   1.347 -0.2892  0.1627  0.5920
 5581TIP3    H138378   2.627   4.648   1.319 -0.4538  0.5582 -0.6811
 5581TIP3    H238379   2.673   4.783   1.267  3.7095  0.3432  1.9045
 5582TIP3   OH238380   5.077   6.073   0.024 -0.0991  0.2889  0.5147
 5582TIP3    H138381   5.019   6.118   0.086  0.9432  1.0486  0.9826
 5582TIP3    H238382   5.145   6.034   0.079  0.5154  0.4767 -0.0896
 5583TIP3   OH238383   2.054   1.327   7.589  0.3250  0.3069  0.6553
 5583TIP3    H138384   2.070   1.362   7.501  1.9316  0.2015  0.8707
 5583TIP3    H238385   2.090   1.394   7.647 -0.4340  0.2228  1.2317
 5584TIP3   OH238386   6.701   6.819   1.265  0.1634  0.1538 -0.0614
 5584TIP3    H138387   6.696   6.727   1.291  2.4782  0.4208  1.6702
 5584TIP3    H238388   6.711   6.866   1.348  2.9003  1.5426 -1.0466
 5585TIP3   OH238389   6.275   0.400   0.143 -0.0866  0.1406  0.1049
 5585TIP3    H138390   6.289   0.481   0.191 -1.3735  1.0966 -1.0438
 5585TIP3    H238391   6.354   0.388   0.091 -0.0239  0.8424  0.0359
 5586TIP3   OH238392   4.314   4.618   8.730  0.2301  0.2545 -0.5671
 5586TIP3    H138393   4.337   4.674   8.656 -2.1907  3.7023  1.0115
 5586TIP3    H238394   4.218   4.623   8.735  0.1628 -1.6286  1.5489
 5587TIP3   OH238395   2.007   6.277   0.890  0.5864 -0.5930 -0.0665
 5587TIP3    H138396   2.004   6.313   0.801  0.7319  1.4713  0.7190
 5587TIP3    H238397   2.076   6.211   0.886 -0.2046 -1.3836 -1.7652
 5588TIP3   OH238398   3.108   2.397   7.205 -0.2936  0.3413 -0.3486
 5588TIP3    H138399   3.160   2.411   7.284 -0.7035 -1.0515  0.1942
 5588TIP3    H238400   3.165   2.346   7.148 -1.4274 -2.3460  0.7668
 5589TIP3   OH238401   3.522   6.019   8.308  0.2640 -0.1488  0.4498
 5589TIP3    H138402   3.599   6.074   8.290 -0.5130  0.2004 -2.3258
 5589TIP3    H238403   3.448   6.079   8.298 -0.4619 -1.0373  0.4287
 5590TIP3   OH238404   5.807   6.702   7.825  0.0743  0.1922 -0.5802
 5590TIP3    H138405   5.747   6.717   7.752 -1.4360 -1.1852  0.3161
 5590TIP3    H238406   5.865   6.633   7.794 -0.6858 -0.5273 -0.4582
 5591TIP3   OH238407   1.940   0.338   7.841 -0.5141  0.1786 -0.5339
 5591TIP3    H138408   1.865   0.301   7.794  0.2731  0.0233 -1.7036
 5591TIP3    H238409   1.975   0.405   7.783  0.1814  0.3413  0.0528
 5592TIP3   OH238410   2.329   2.206   7.880  0.1023 -0.1663  0.6230
 5592TIP3    H138411   2.372   2.122   7.861 -0.6074 -0.2010 -1.0575
 5592TIP3    H238412   2.248   2.182   7.924 -0.3012 -0.4087 -0.2345
 5593TIP3   OH238413   5.003   5.062   6.363  0.1106  0.6110  0.8375
 5593TIP3    H138414   4.971   5.131   6.421 -0.3606 -0.2427  1.6147
 5593TIP3    H238415   4.933   5.049   6.299  0.1430  0.7494  0.7727
 5594TIP3   OH238416   3.112   2.910   0.011 -0.4193  0.0741 -0.6981
 5594TIP3    H138417   3.024   2.907   0.050 -0.1585 -1.1067 -0.1315
 5594TIP3    H238418   3.103   2.968  -0.064 -1.2711  1.3240  0.3378
 5595TIP3   OH238419   1.079   4.424   6.807  0.6097  0.6395  1.0070
 5595TIP3    H138420   1.009   4.359   6.799  0.2981  1.0755  0.0193
 5595TIP3    H238421   1.041   4.505   6.772  1.8350  0.7111 -0.2286
 5596TIP3   OH238422   6.142   2.745   2.609  0.0292 -0.3438  0.7997
 5596TIP3    H138423   6.058   2.783   2.634  1.1342  1.4313  1.9599
 5596TIP3    H238424   6.152   2.767   2.516 -0.7905 -0.6505  0.6265
 5597TIP3   OH238425   2.642   5.678   6.595  0.1141 -0.6766  0.4807
 5597TIP3    H138426   2.549   5.697   6.590  0.4747  2.2685  2.5128
 5597TIP3    H238427   2.682   5.732   6.528  0.5140 -0.2734  1.0310
 5598TIP3   OH238428   4.210   3.037   8.224  0.0567  0.1336 -0.5052
 5598TIP3    H138429   4.226   3.036   8.318  2.0015  1.4468 -0.7563
 5598TIP3    H238430   4.120   3.006   8.214 -1.0686  2.2402  1.9490
 5599TIP3   OH238431   2.589   3.241   0.501 -0.1855  0.3354  0.1830
 5599TIP3    H138432   2.520   3.304   0.525 -0.2406 -0.0484  1.0492
 5599TIP3    H238433   2.605   3.191   0.581  1.0306  0.3444 -0.0339
 5600TIP3   OH238434   3.512   2.357   0.930  0.7286 -0.0412 -0.3348
 5600TIP3    H138435   3.526   2.356   1.024  1.7144  0.5012 -0.4652
 5600TIP3    H238436   3.428   2.312   0.918 -0.1227  1.1454  0.9149
 5601TIP3   OH238437   1.336   2.444   1.241  0.4692 -0.2587 -0.2973
 5601TIP3    H138438   1.248   2.441   1.278  1.0364 -0.5015  1.1024
 5601TIP3    H238439   1.379   2.517   1.287  1.5782 -1.3445  0.4584
 5602TIP3   OH238440   2.436   0.535   1.658 -0.3618  0.1742  0.8066
 5602TIP3    H138441   2.478   0.460   1.700 -0.2154 -0.8281 -1.0464
 5602TIP3    H238442   2.354   0.500   1.623 -0.8200  1.1542  0.8637
 5603TIP3   OH238443   6.345   6.785   0.009 -0.1297 -0.3786  0.1683
 5603TIP3    H138444   6.439   6.798   0.023 -0.0425 -0.0858 -0.6606
 5603TIP3    H238445   6.315   6.741   0.089  0.6491 -0.1917  0.5760
 5604TIP3   OH238446   5.769   4.485   0.037 -0.4092  0.3595  0.1018
 5604TIP3    H138447   5.820   4.561   0.063 -0.7654 -0.2763  2.9809
 5604TIP3    H238448   5.749   4.500  -0.056  1.7272  2.4407 -0.1083
 5605TIP3   OH238449   1.340   2.569   7.171 -0.3256 -0.3344  0.5198
 5605TIP3    H138450   1.293   2.491   7.139  0.0075 -1.4841  2.6483
 5605TIP3    H238451   1.425   2.535   7.199 -0.4523  0.6541  2.1866
 5606TIP3   OH238452   2.024   0.987   8.079 -0.1486 -0.2590  0.4039
 5606TIP3    H138453   2.029   0.892   8.083 -0.1518 -0.3762 -1.4981
 5606TIP3    H238454   2.089   1.012   8.014  1.0754  1.2113  2.1038
 5607TIP3   OH238455   2.607   4.229   0.445  0.3410 -0.0772 -0.0142
 5607TIP3    H138456   2.688   4.201   0.489 -0.9766 -1.9992  1.3708
 5607TIP3    H238457   2.541   4.167   0.476 -1.4268  0.6773 -2.0653
 5608TIP3   OH238458   1.956   2.343   1.175 -0.2943 -0.2191  0.4459
 5608TIP3    H138459   2.027   2.290   1.211 -1.3308 -1.5374  0.6559
 5608TIP3    H238460   1.878   2.313   1.223 -1.1320  0.5342 -0.4125
 5609TIP3   OH238461   5.994   2.578   1.114  0.6981 -0.0345  0.5491
 5609TIP3    H138462   5.966   2.495   1.074  0.1570 -0.2025  1.2484
 5609TIP3    H238463   6.089   2.571   1.120  0.5846 -1.0834  1.5731
 5610TIP3   OH238464   5.299   5.338   0.599 -0.0727  0.3684  0.1719
 5610TIP3    H138465   5.306   5.259   0.545  1.4540  2.1452 -2.4475
 5610TIP3    H238466   5.205   5.354   0.606 -0.3712  0.6193 -3.0131
 5611TIP3   OH238467   5.368   6.117   6.848 -0.4047 -0.4953 -0.0550
 5611TIP3    H138468   5.434   6.048   6.848  0.2711  0.0788  2.0600
 5611TIP3    H238469   5.377   6.158   6.762  1.1456 -1.2234 -0.2790
 5612TIP3   OH238470   1.273   1.018   7.246 -0.2140 -1.0126 -0.5449
 5612TIP3    H138471   1.265   0.923   7.251  0.3356 -1.0433 -0.2583
 5612TIP3    H238472   1.198   1.051   7.296  0.1671 -1.2957  0.2268
 5613TIP3   OH238473   5.340   1.989   0.783 -0.6098 -0.3429  0.5904
 5613TIP3    H138474   5.432   1.973   0.763 -0.7109 -0.7951  0.4653
 5613TIP3    H238475   5.323   2.077   0.750 -0.1747 -0.1858  0.7809
 5614TIP3   OH238476   5.628   3.180   8.181 -0.5387 -0.1231 -0.1155
 5614TIP3    H138477   5.661   3.091   8.172 -2.3601 -0.9825  1.0735
 5614TIP3    H238478   5.597   3.204   8.093 -1.3065 -1.2252 -0.1604
 5615TIP3   OH238479   4.211   2.973   7.228  0.4678 -0.5102  0.1161
 5615TIP3    H138480   4.208   3.065   7.252 -1.3470 -0.5615  0.2740
 5615TIP3    H238481   4.175   2.971   7.139  0.6083 -1.0487  0.0690
 5616TIP3   OH238482   6.804   4.257   8.184  0.2900 -0.0783  0.3136
 5616TIP3    H138483   6.798   4.184   8.121 -1.5855  1.2410 -1.1680
 5616TIP3    H238484   6.892   4.249   8.221  0.4073 -2.6705 -0.2793
 5617TIP3   OH238485   4.287   4.983   7.185  0.0118 -0.1005 -0.0506
 5617TIP3    H138486   4.337   5.047   7.236 -0.6076 -0.8521  1.5740
 5617TIP3    H238487   4.340   4.966   7.108  0.6888  1.5598  0.0241
 5618TIP3   OH238488   0.103   4.173   0.952 -0.0096  0.1815 -0.5523
 5618TIP3    H138489   0.102   4.137   1.040 -3.0249 -0.2251 -0.6297
 5618TIP3    H238490   0.040   4.120   0.903 -2.1628  3.3752 -1.5582
 5619TIP3   OH238491   2.937   3.271   0.561  0.5547  0.1635  0.2855
 5619TIP3    H138492   2.882   3.349   0.566  0.1324  0.0613 -1.9273
 5619TIP3    H238493   3.026   3.305   0.572  0.3542  0.9266 -0.3537
 5620TIP3   OH238494   2.392   5.486   7.083  0.1361 -0.2700 -0.1956
 5620TIP3    H138495   2.400   5.399   7.122 -3.1158 -0.5234  0.2032
 5620TIP3    H238496   2.469   5.495   7.027  0.8004 -3.2099  0.1032
 5621TIP3   OH238497   5.968   6.538   8.756 -0.0238 -0.5960 -0.3043
 5621TIP3    H138498   5.931   6.525   8.668 -1.2181  1.5498 -0.1968
 5621TIP3    H238499   6.062   6.536   8.743 -0.1577 -2.2146 -1.2940
 5622TIP3   OH238500   4.812   1.900   7.950 -0.0782 -0.1797  0.0163
 5622TIP3    H138501   4.724   1.936   7.967  0.4422  1.0416  0.2563
 5622TIP3    H238502   4.832   1.849   8.028 -0.6510 -0.6123 -0.1181
 5623TIP3   OH238503   6.839   0.592   8.044 -0.4830 -0.3266  0.1675
 5623TIP3    H138504   6.820   0.538   7.968  0.1028 -0.9315  0.4371
 5623TIP3    H238505   6.770   0.570   8.107 -0.4092 -0.5639  0.1691
 5624TIP3   OH238506   6.105   5.675   7.230  0.8210 -0.4906  0.2606
 5624TIP3    H138507   6.074   5.586   7.219 -1.1092  0.1456  0.1178
 5624TIP3    H238508   6.101   5.714   7.143  1.3352 -0.1647  0.3747
 5625TIP3   OH238509   2.622   6.061   1.176  0.6009 -0.0303 -0.2717
 5625TIP3    H138510   2.612   5.991   1.240 -1.5621 -0.3973 -0.9412
 5625TIP3    H238511   2.568   6.035   1.102 -0.0010  2.1593 -0.6879
 5626TIP3   OH238512   3.872   1.541   6.382  0.5445  0.0718  0.4908
 5626TIP3    H138513   3.884   1.451   6.353 -0.8024  0.4142 -1.2935
 5626TIP3    H238514   3.809   1.534   6.455 -3.4997 -0.2366 -2.6440
 5627TIP3   OH238515   5.376   5.936   0.047  0.4186 -0.4598 -0.0722
 5627TIP3    H138516   5.288   5.900   0.061 -0.9620  1.8868 -1.9491
 5627TIP3    H238517   5.435   5.871   0.086 -2.0976 -2.2731  0.9903
 5628TIP3   OH238518   5.124   4.351   7.740  0.3482  0.0272 -0.1969
 5628TIP3    H138519   5.106   4.419   7.804  0.7762  0.0788 -0.1311
 5628TIP3    H238520   5.038   4.332   7.701  0.1358  0.1984  0.1820
 5629TIP3   OH238521   2.594   1.651   7.596  0.4877  0.0043 -0.7903
 5629TIP3    H138522   2.522   1.705   7.629  1.7591  0.4226  1.4669
 5629TIP3    H238523   2.599   1.578   7.657  2.5536  0.4864 -0.3141
 5630TIP3   OH238524   0.931   5.053   7.534  0.0107 -0.3533 -1.0986
 5630TIP3    H138525   0.873   5.002   7.590 -0.0430  0.3243 -0.5278
 5630TIP3    H238526   0.874   5.119   7.494  0.3637  0.2948 -0.5625
 5631TIP3   OH238527   3.822   2.742   7.576  0.1317 -0.5699  0.2918
 5631TIP3    H138528   3.812   2.670   7.639  1.0184 -1.0709 -0.1159
 5631TIP3    H238529   3.752   2.803   7.598 -0.1738 -1.2013  1.1370
 5632TIP3   OH238530   3.516   4.369   0.692 -0.0496 -0.0074  0.0432
 5632TIP3    H138531   3.469   4.450   0.713 -1.7355 -1.0682  0.5239
 5632TIP3    H238532   3.454   4.299   0.712 -0.0346 -1.3694 -3.7941
 5633TIP3   OH238533   5.210   1.343   2.227  0.0641  0.3534 -0.0931
 5633TIP3    H138534   5.226   1.309   2.139  1.8627 -0.6897  0.5984
 5633TIP3    H238535   5.157   1.275   2.270  1.2526 -0.3172  0.3724
 5634TIP3   OH238536   6.361   6.635   7.455  0.2118 -0.1409 -0.3498
 5634TIP3    H138537   6.420   6.566   7.484 -0.1672  0.0696  0.9690
 5634TIP3    H238538   6.298   6.645   7.526 -0.4833  0.7108 -1.0552
 5635TIP3   OH238539   5.334   2.634   1.255 -0.2530 -0.3923  0.2006
 5635TIP3    H138540   5.383   2.636   1.172 -1.4544 -2.2870 -0.6153
 5635TIP3    H238541   5.336   2.542   1.281 -2.8608 -0.4581  0.4198
 5636TIP3   OH238542   5.008   2.044   6.968  0.1496  0.6901  0.4218
 5636TIP3    H138543   4.993   2.137   6.951  0.3685  1.1602  2.5366
 5636TIP3    H238544   5.071   2.017   6.900 -0.8029  1.7508 -0.9420
 5637TIP3   OH238545   1.986   5.329   8.692  0.0413  0.4800 -0.4143
 5637TIP3    H138546   1.919   5.263   8.713 -1.4258  2.1915  0.5055
 5637TIP3    H238547   2.001   5.319   8.598 -1.2947 -0.1339 -0.5803
 5638TIP3   OH238548   5.141   4.904   1.516  0.3841  0.5497 -0.1482
 5638TIP3    H138549   5.189   4.981   1.486 -0.9504  1.9251  1.1258
 5638TIP3    H238550   5.197   4.865   1.583  0.8756  0.6577 -0.4929
 5639TIP3   OH238551   1.996   0.363   1.655 -0.1006  0.3083  0.5770
 5639TIP3    H138552   2.088   0.340   1.670 -0.1971 -0.3154  0.2463
 5639TIP3    H238553   1.963   0.385   1.742 -0.5228 -2.7849  1.3255
 5640TIP3   OH238554   0.700   4.022   1.212 -0.0968 -0.4518  0.4283
 5640TIP3    H138555   0.667   4.009   1.301 -1.9380 -1.6387 -0.3539
 5640TIP3    H238556   0.727   4.114   1.209 -0.9477 -0.1172  1.9289
 5641TIP3   OH238557   0.403   3.698   7.495 -0.2554 -0.3782  0.2773
 5641TIP3    H138558   0.397   3.604   7.513  0.9979 -0.4753  0.2465
 5641TIP3    H238559   0.453   3.704   7.414 -0.0943  0.3329  0.4222
 5642TIP3   OH238560   1.785   4.057   6.877 -0.0137  0.2689  0.2430
 5642TIP3    H138561   1.826   4.028   6.796  1.3436 -1.8354  1.6043
 5642TIP3    H238562   1.847   4.120   6.914  0.6038 -0.7020  0.8763
 5643TIP3   OH238563   6.133   5.813   8.782  0.3414 -0.1338 -0.3149
 5643TIP3    H138564   6.067   5.881   8.798 -0.8106 -0.8288 -1.8742
 5643TIP3    H238565   6.165   5.830   8.694  2.1460  0.0639  0.3405
 5644TIP3   OH238566   0.161   4.511   7.954  0.0702 -0.1551 -0.4484
 5644TIP3    H138567   0.246   4.467   7.948 -0.0588 -0.4272 -0.3005
 5644TIP3    H238568   0.149   4.528   8.048  0.3696  0.6968 -0.5584
 5645TIP3   OH238569   0.187   5.757   7.068  0.2427  0.2867  0.3518
 5645TIP3    H138570   0.108   5.810   7.076  1.5455  2.3887 -0.0946
 5645TIP3    H238571   0.243   5.784   7.141  1.8663  1.2837 -1.1830
 5646TIP3   OH238572   3.733   0.680   8.104  0.0719 -0.3568  0.0349
 5646TIP3    H138573   3.700   0.736   8.174 -0.5981  0.6253 -1.0087
 5646TIP3    H238574   3.827   0.694   8.104 -0.0074  0.2368  0.2612
 5647TIP3   OH238575   5.245   5.846   1.950  0.2402 -0.0719 -0.2076
 5647TIP3    H138576   5.285   5.897   2.019  0.8673  0.1001 -0.6870
 5647TIP3    H238577   5.257   5.755   1.977  1.4509 -0.0457 -0.5944
 5648TIP3   OH238578   6.544   5.520   1.342  0.5769 -0.1926 -0.1821
 5648TIP3    H138579   6.561   5.595   1.285  1.1546 -0.3587 -0.2252
 5648TIP3    H238580   6.455   5.535   1.375  0.4602  0.1981 -0.6707
 5649TIP3   OH238581   4.223   4.208   2.430  0.3168 -0.0479 -0.2377
 5649TIP3    H138582   4.175   4.291   2.423  0.5779  0.1011 -0.2729
 5649TIP3    H238583   4.159   4.142   2.404 -0.0183  0.1024  0.1765
 5650TIP3   OH238584   1.793   2.402   6.999  0.2314  0.5534  0.1518
 5650TIP3    H138585   1.768   2.417   6.908  0.4395 -0.4557 -0.0778
 5650TIP3    H238586   1.710   2.388   7.045  0.2613 -1.6864 -0.4035
 5651TIP3   OH238587   0.327   3.515   1.190  0.5497  0.2110  0.3170
 5651TIP3    H138588   0.340   3.435   1.139  1.1385  1.0109 -0.8305
 5651TIP3    H238589   0.412   3.531   1.231  0.9135  1.0753 -0.7229
 5652TIP3   OH238590   6.200   3.937   7.339  0.0949 -0.1638  0.6895
 5652TIP3    H138591   6.158   4.022   7.323  1.1976  0.3926  0.6205
 5652TIP3    H238592   6.248   3.950   7.421  0.2258 -0.7388  0.7066
 5653TIP3   OH238593   5.045   3.217   0.878  0.1339 -0.6045  0.2747
 5653TIP3    H138594   5.043   3.247   0.787 -1.4903  1.0160  0.8007
 5653TIP3    H238595   5.013   3.127   0.873 -1.0252 -0.1724 -0.6632
 5654TIP3   OH238596   1.071   0.513   7.738  0.6689  0.5681 -0.5052
 5654TIP3    H138597   1.133   0.523   7.666  1.3216 -0.2789 -0.0654
 5654TIP3    H238598   1.084   0.424   7.770 -1.1120  0.1915 -0.7212
 5655TIP3   OH238599   5.150   1.444   1.042  0.4157  0.0934 -0.4674
 5655TIP3    H138600   5.082   1.501   1.077  0.3903 -1.3129  1.9910
 5655TIP3    H238601   5.104   1.365   1.016  0.9618 -0.5526  0.4616
 5656TIP3   OH238602   1.090   5.102   1.142  0.0679  0.8078 -0.7672
 5656TIP3    H138603   1.185   5.112   1.130 -0.0610  0.8985 -1.7972
 5656TIP3    H238604   1.061   5.055   1.064 -0.5949 -0.1449  0.0214
 5657TIP3   OH238605   6.565   4.104   1.414  0.0562  0.2851 -0.9742
 5657TIP3    H138606   6.535   4.193   1.396 -4.8804 -1.1684 -1.3066
 5657TIP3    H238607   6.586   4.067   1.329  1.7919  0.9229 -0.8652
 5658TIP3   OH238608   5.556   4.957   8.456 -0.1631 -1.1066 -0.3115
 5658TIP3    H138609   5.476   4.981   8.410 -0.1091 -0.2981  0.0025
 5658TIP3    H238610   5.622   4.949   8.388  0.1600  1.0755 -0.3276
 5659TIP3   OH238611   2.825   1.339   8.240  0.2945 -0.2892  0.4877
 5659TIP3    H138612   2.797   1.248   8.248 -0.8060 -0.0148  0.0063
 5659TIP3    H238613   2.890   1.337   8.170 -1.0227 -0.4813 -0.7963
 5660TIP3   OH238614   5.994   2.816   8.153 -0.0445 -0.1098  0.3015
 5660TIP3    H138615   6.085   2.808   8.127 -0.3249 -1.2995 -0.4187
 5660TIP3    H238616   5.956   2.730   8.132 -1.1205  0.0831  1.3845
 5661TIP3   OH238617   3.777   0.139   1.157  0.5244 -0.1872  0.0169
 5661TIP3    H138618   3.788   0.189   1.239  0.5296  2.3427 -1.4166
 5661TIP3    H238619   3.864   0.138   1.118  0.1493  0.4076 -0.8721
 5662TIP3   OH238620   3.231   2.927   1.236 -0.1269  0.0474 -0.5519
 5662TIP3    H138621   3.222   2.832   1.242  4.4040 -0.5398  0.1408
 5662TIP3    H238622   3.211   2.958   1.325  1.4371 -0.6827  0.0792
 5663TIP3   OH238623   2.265   3.197   6.492  0.0038  0.2148  0.0536
 5663TIP3    H138624   2.351   3.235   6.506  0.6102 -0.7275 -0.9680
 5663TIP3    H238625   2.249   3.144   6.570  0.9511 -0.6522 -0.3090
 5664TIP3   OH238626   0.831   5.273   1.920  0.3656  0.1238  0.4799
 5664TIP3    H138627   0.786   5.197   1.884  1.5365 -1.3591  1.9856
 5664TIP3    H238628   0.890   5.302   1.850  0.0044 -0.4327 -0.0553
 5665TIP3   OH238629   3.265   0.994   7.723 -0.1500  0.2034 -0.3698
 5665TIP3    H138630   3.267   0.916   7.779  1.0803 -0.1019 -0.8091
 5665TIP3    H238631   3.309   0.967   7.642  0.6515  1.4487 -0.3861
 5666TIP3   OH238632   2.287   0.001   8.063 -0.2582  0.5641 -0.5229
 5666TIP3    H138633   2.197   0.009   8.032 -1.6084 -2.3230  2.1335
 5666TIP3    H238634   2.328  -0.062   8.003 -1.5496 -1.6890  0.8103
 5667TIP3   OH238635   0.787   5.942   0.185  0.2427  0.3657  0.2469
 5667TIP3    H138636   0.704   5.895   0.177  0.9855 -0.7864 -1.1968
 5667TIP3    H238637   0.769   6.011   0.248 -1.6543 -0.1993  0.3963
 5668TIP3   OH238638   3.673   3.892   0.216  0.1910 -0.4368  0.0728
 5668TIP3    H138639   3.703   3.951   0.285  0.6075 -0.7104  0.1259
 5668TIP3    H238640   3.740   3.825   0.211  0.9665  0.4220 -1.6711
 5669TIP3   OH238641   1.818   3.326   7.206  0.6145 -0.3019 -0.0013
 5669TIP3    H138642   1.820   3.419   7.183 -1.1042 -0.3484 -0.4360
 5669TIP3    H238643   1.911   3.300   7.208  1.0816  1.1939 -0.7793
 5670TIP3   OH238644   6.589   4.571   1.552 -0.3633  0.2746 -0.1694
 5670TIP3    H138645   6.683   4.587   1.547 -0.1952  0.2482  1.9593
 5670TIP3    H238646   6.572   4.557   1.645 -2.3352 -0.6370 -0.6132
 5671TIP3   OH238647   1.127   6.340   8.640  0.9189 -0.5486  0.3856
 5671TIP3    H138648   1.207   6.294   8.614  1.2280  0.6202 -0.8821
 5671TIP3    H238649   1.151   6.433   8.638 -0.6560 -0.1267 -0.7740
 5672TIP3   OH238650   0.786   4.936   7.721  0.3273  0.2795 -0.1231
 5672TIP3    H138651   0.739   4.965   7.799  1.6073  0.9906  0.4076
 5672TIP3    H238652   0.869   4.901   7.754  0.7292  0.2325 -1.1370
 5673TIP3   OH238653   0.402   1.209   0.972 -0.2246  0.9636  0.2694
 5673TIP3    H138654   0.436   1.121   0.954  1.3651  1.7158 -0.6203
 5673TIP3    H238655   0.307   1.198   0.973 -0.1648 -0.4316 -1.8087
 5674TIP3   OH238656   4.635   4.634   7.004 -0.1752 -0.0364  0.2292
 5674TIP3    H138657   4.642   4.620   7.099 -0.2671 -1.0313  0.1042
 5674TIP3    H238658   4.541   4.634   6.987 -0.1850  0.9389  0.2362
 5675TIP3   OH238659   0.614   4.587   2.075 -0.2734 -0.1537 -0.2326
 5675TIP3    H138660   0.670   4.664   2.061 -0.4246 -0.0639 -0.3388
 5675TIP3    H238661   0.644   4.551   2.159  1.9045 -1.7553 -1.5562
 5676TIP3   OH238662   2.760   0.889   0.421  0.4112 -0.2699  0.0799
 5676TIP3    H138663   2.688   0.936   0.381  0.4730 -0.9527 -0.8623
 5676TIP3    H238664   2.743   0.797   0.400 -0.1219 -0.8162  2.4923
 5677TIP3   OH238665   3.841   3.814   0.551 -0.1995 -0.0306  0.0393
 5677TIP3    H138666   3.832   3.902   0.515 -0.6878 -0.0178  0.1883
 5677TIP3    H238667   3.912   3.822   0.616 -2.6821  1.1893  2.8570
 5678TIP3   OH238668   3.266   0.739   1.553 -0.0723 -0.2628  0.1008
 5678TIP3    H138669   3.305   0.820   1.586  0.4939 -0.3734 -0.2878
 5678TIP3    H238670   3.217   0.705   1.628  1.0764 -0.4375  0.8117
 5679TIP3   OH238671   5.644   0.453   7.858 -0.6558 -0.2008  0.7204
 5679TIP3    H138672   5.660   0.440   7.952  0.9790 -0.5346  0.4293
 5679TIP3    H238673   5.732   0.465   7.821 -1.2715 -0.2667 -0.7943
 5680TIP3   OH238674   4.313   6.252   0.791 -0.0048  0.5262  0.3925
 5680TIP3    H138675   4.340   6.167   0.825  1.1657  0.9881  0.6627
 5680TIP3    H238676   4.393   6.305   0.793 -0.8320  1.7860  0.7112
 5681TIP3   OH238677   2.026   6.118   7.954  0.8229  0.0339 -0.2148
 5681TIP3    H138678   2.081   6.157   8.021  0.8970 -0.2570 -0.1017
 5681TIP3    H238679   2.020   6.025   7.979 -0.7483  0.2970  0.4938
 5682TIP3   OH238680   6.475   3.560   2.258 -0.3327  0.1172  0.0595
 5682TIP3    H138681   6.447   3.621   2.327 -0.4699  1.6975 -1.3159
 5682TIP3    H238682   6.566   3.585   2.240  0.0473 -0.9889  0.3710
 5683TIP3   OH238683   4.849   4.687   8.713  0.6898 -0.6594  0.1234
 5683TIP3    H138684   4.798   4.655   8.639  0.4332 -0.0626  0.0361
 5683TIP3    H238685   4.805   4.652   8.790  0.9817 -1.3165  0.0041
 5684TIP3   OH238686   2.037   3.740   0.445 -0.1153  0.4312 -0.3869
 5684TIP3    H138687   1.967   3.682   0.475  0.7753 -0.7536 -0.5510
 5684TIP3    H238688   2.024   3.747   0.351  0.0072  0.1792 -0.4228
 5685TIP3   OH238689   4.499   6.314   1.732  0.0270 -0.1433 -0.3175
 5685TIP3    H138690   4.404   6.320   1.724  0.0275 -1.1613 -1.3489
 5685TIP3    H238691   4.533   6.371   1.663  0.1490 -0.4196 -0.4888
 5686TIP3   OH238692   5.391   3.786   1.006  0.6306  0.4129 -0.2390
 5686TIP3    H138693   5.452   3.765   1.076  1.3777  0.8619 -0.7452
 5686TIP3    H238694   5.307   3.751   1.036  1.5870 -2.5621 -0.6600
 5687TIP3   OH238695   1.891   0.322   1.413  0.4283  0.2384 -0.6368
 5687TIP3    H138696   1.867   0.230   1.415  1.0750  0.0661 -0.3455
 5687TIP3    H238697   1.925   0.340   1.501 -3.6491  1.8863  0.8565
 5688TIP3   OH238698   4.806   1.964   1.772 -0.0648 -0.0102  0.4382
 5688TIP3    H138699   4.777   2.034   1.830  1.8583  0.7488  0.5440
 5688TIP3    H238700   4.901   1.970   1.771  0.0956 -1.7451 -0.6684
 5689TIP3   OH238701   3.752   1.271   1.037 -0.1001  0.1015 -0.6829
 5689TIP3    H138702   3.743   1.210   1.110 -2.0128  2.7329  1.5055
 5689TIP3    H238703   3.679   1.250   0.978 -1.0001  0.4616  0.2688
 5690TIP3   OH238704   5.951   6.314   0.091  0.3447 -0.2925  0.3021
 5690TIP3    H138705   5.945   6.387   0.030 -1.0154 -0.2668  0.4398
 5690TIP3    H238706   6.033   6.329   0.138  0.0526  1.1858  0.3910
 5691TIP3   OH238707   2.337   6.689   7.521 -0.8921 -0.4634 -0.4108
 5691TIP3    H138708   2.321   6.652   7.434 -1.1373  0.3361 -0.7208
 5691TIP3    H238709   2.385   6.770   7.504 -0.5499 -0.5267  0.2335
 5692TIP3   OH238710   1.360   3.145   6.596 -0.2388 -0.9501 -0.1488
 5692TIP3    H138711   1.408   3.165   6.516  1.3505 -1.1516  0.7176
 5692TIP3    H238712   1.279   3.104   6.566 -1.2175  1.8604 -1.7907
 5693TIP3   OH238713   2.046   5.736   1.010 -0.3027  0.2755  0.2192
 5693TIP3    H138714   1.973   5.699   1.060  0.6364  0.0046  1.4370
 5693TIP3    H238715   2.014   5.822   0.981 -0.7634  0.5931  1.5819
 5694TIP3   OH238716   6.456   5.687   2.134  0.2230 -0.3681  0.2249
 5694TIP3    H138717   6.453   5.751   2.062 -1.4333 -0.3974  0.2218
 5694TIP3    H238718   6.464   5.740   2.213 -0.5330 -0.1698  0.1783
 5695TIP3   OH238719   5.423   2.975   1.450 -0.1255 -0.3774 -0.5966
 5695TIP3    H138720   5.368   3.044   1.488 -0.0185  0.3671 -1.7312
 5695TIP3    H238721   5.398   2.896   1.496 -1.3245  0.1610 -0.2861
 5696TIP3   OH238722   5.662   6.343   8.457  0.2984 -0.2120 -0.2106
 5696TIP3    H138723   5.691   6.262   8.414 -0.3851 -0.8529  0.5205
 5696TIP3    H238724   5.585   6.371   8.406 -0.6349 -1.0819  0.6899
 5697TIP3   OH238725   5.323   4.054   6.751  0.0442  0.1656 -0.0050
 5697TIP3    H138726   5.279   4.138   6.745 -0.1020  0.1134  0.3211
 5697TIP3    H238727   5.331   4.037   6.845 -0.5634 -0.5201 -0.0661
 5698TIP3   OH238728   2.153   1.983   1.042 -0.3567  0.3167  0.2216
 5698TIP3    H138729   2.075   1.969   0.989  0.5893  0.9390 -1.4299
 5698TIP3    H238730   2.204   1.903   1.032  0.1832  0.7326 -0.5041
 5699TIP3   OH238731   5.363   5.941   2.157  0.5914  1.0031  0.3252
 5699TIP3    H138732   5.375   5.851   2.188 -0.4498  0.7060 -0.0903
 5699TIP3    H238733   5.282   5.970   2.200  0.0503  1.1707 -0.7789
 5700TIP3   OH238734   5.758   3.129   7.811 -0.0116 -0.0550 -0.0742
 5700TIP3    H138735   5.819   3.062   7.841 -0.1375 -0.4062 -0.5866
 5700TIP3    H238736   5.781   3.207   7.862 -0.7273 -0.8210  1.4769
 5701TIP3   OH238737   6.165   6.176   2.435  0.0017  0.5542 -0.7143
 5701TIP3    H138738   6.227   6.119   2.389  1.5404  2.7784 -1.5364
 5701TIP3    H238739   6.216   6.251   2.462 -1.5812  0.8116  1.9109
 5702TIP3   OH238740   4.628   5.778   1.726  0.4674  0.0995  0.3941
 5702TIP3    H138741   4.537   5.754   1.743 -0.4305  2.4489 -0.6934
 5702TIP3    H238742   4.677   5.738   1.797 -1.5983 -0.0113  1.8400
 5703TIP3   OH238743   5.517   5.865   1.840 -0.1776 -0.5882 -0.5146
 5703TIP3    H138744   5.505   5.886   1.747 -0.9106  2.6370  0.1896
 5703TIP3    H238745   5.429   5.843   1.871 -0.2272 -0.0605 -0.2691
 5704TIP3   OH238746   5.730   1.706   6.474 -0.1186 -0.0654  0.1020
 5704TIP3    H138747   5.662   1.643   6.449 -0.6727 -0.3099  2.0812
 5704TIP3    H238748   5.812   1.659   6.459 -0.4762 -0.7102  0.1014
 5705TIP3   OH238749   5.060   3.008   1.509  0.0808  0.1548 -0.0816
 5705TIP3    H138750   5.108   2.928   1.488  2.7793  1.6763 -0.2909
 5705TIP3    H238751   5.033   3.042   1.423 -2.1153 -1.0509  0.0785
 5706TIP3   OH238752   1.764   3.744   8.729 -0.3110  0.5156  0.5264
 5706TIP3    H138753   1.769   3.677   8.797 -0.3981  0.1385  0.1672
 5706TIP3    H238754   1.685   3.721   8.679  1.9879 -1.8179 -2.3812
 5707TIP3   OH238755   2.867   3.297   0.087  0.5405 -0.5465  0.2748
 5707TIP3    H138756   2.872   3.366   0.154 -0.5360  0.3412 -0.5132
 5707TIP3    H238757   2.787   3.249   0.109  0.2887 -0.3720 -0.2348
 5708TIP3   OH238758   2.723   2.985   1.249 -0.0166 -0.3670  0.3081
 5708TIP3    H138759   2.804   2.987   1.197 -0.5087  2.4112 -0.5077
 5708TIP3    H238760   2.751   3.006   1.338  0.2583 -0.0709  0.1551
 5709TIP3   OH238761   6.859   1.036   1.315 -0.3683 -0.1786 -0.2455
 5709TIP3    H138762   6.930   1.007   1.258  0.2204  1.7972 -0.5820
 5709TIP3    H238763   6.805   1.092   1.259  0.3735  2.0301  1.1620
 5710TIP3   OH238764   3.314   6.779   8.432  0.0957  0.3234 -0.1179
 5710TIP3    H138765   3.398   6.755   8.392 -0.0122 -0.9192  0.3436
 5710TIP3    H238766   3.325   6.755   8.524 -0.6449  0.4904  0.0126
 5711TIP3   OH238767   0.074   1.437   7.728  0.6142  0.1565  0.5533
 5711TIP3    H138768   0.007   1.407   7.668  2.0960  0.5416 -1.3766
 5711TIP3    H238769   0.059   1.386   7.808 -0.6087 -1.3242 -0.5595
 5712TIP3   OH238770   5.648   1.816   7.217 -0.2260  0.8264  0.7010
 5712TIP3    H138771   5.717   1.764   7.256  0.6183  2.0323  0.8883
 5712TIP3    H238772   5.578   1.754   7.198  0.5142 -0.2555  1.4191
 5713TIP3   OH238773   3.952   6.302   0.420  0.1942 -0.0179  0.2439
 5713TIP3    H138774   3.877   6.264   0.467 -0.3922  1.7841  0.8397
 5713TIP3    H238775   4.015   6.323   0.489  0.3672  0.3879 -0.0392
 5714TIP3   OH238776   5.846   5.387   1.249  0.0811 -0.2144 -0.0377
 5714TIP3    H138777   5.819   5.313   1.195 -0.8959 -1.5086  2.0933
 5714TIP3    H238778   5.765   5.434   1.268  0.5909  0.9902 -0.7000
 5715TIP3   OH238779   5.041   4.731   2.349  0.7285  0.0547 -0.0419
 5715TIP3    H138780   4.998   4.688   2.423 -0.8335 -0.2611 -1.0868
 5715TIP3    H238781   5.125   4.685   2.340  0.1129 -1.1971  0.3418
 5716TIP3   OH238782   4.324   2.562   7.069  0.6063 -0.2230  0.5953
 5716TIP3    H138783   4.255   2.628   7.072  1.2993  0.5198  0.5054
 5716TIP3    H238784   4.382   2.584   7.141  1.0680 -0.4736  0.3066
 5717TIP3   OH238785   1.651   1.084   7.133 -0.1339  0.1073  0.2066
 5717TIP3    H138786   1.631   0.991   7.146  0.1358  0.1472  1.0032
 5717TIP3    H238787   1.747   1.089   7.138 -0.1281  0.3895 -0.1308
 5718TIP3   OH238788   0.358   1.055   1.573  0.3882 -0.0715 -0.3510
 5718TIP3    H138789   0.309   0.978   1.544 -0.3270  0.4610 -0.5709
 5718TIP3    H238790   0.446   1.040   1.539  0.2011 -0.6867 -0.5907
 5719TIP3   OH238791   2.125   3.531   7.410  0.2832  0.8208  0.8724
 5719TIP3    H138792   2.059   3.598   7.426 -0.1318 -0.0385  3.0554
 5719TIP3    H238793   2.208   3.578   7.413 -0.1132  1.5876  0.1086
 5720TIP3   OH238794   1.115   3.234   7.412 -0.3804  0.3325  0.1404
 5720TIP3    H138795   1.136   3.142   7.395 -0.3284  0.5171 -0.8845
 5720TIP3    H238796   1.132   3.246   7.505  1.6490 -0.1723 -0.1112
 5721TIP3   OH238797   0.932   3.331   1.327  0.2934  0.1063 -0.2951
 5721TIP3    H138798   0.894   3.317   1.414  2.1234 -0.8933  0.3954
 5721TIP3    H238799   0.952   3.243   1.294 -0.0695  0.4852 -1.6044
 5722TIP3   OH238800   0.567   6.033   2.247 -0.4652 -0.0996  0.0017
 5722TIP3    H138801   0.574   5.996   2.335 -0.6071 -0.3286 -0.0804
 5722TIP3    H238802   0.511   6.110   2.258 -0.9840 -0.4724  0.0147
 5723TIP3   OH238803   5.102   3.620   2.688  0.2337 -0.4368 -0.2994
 5723TIP3    H138804   5.041   3.662   2.749 -0.6513 -1.5605 -0.3852
 5723TIP3    H238805   5.059   3.539   2.663  2.2568 -1.8485  0.4982
 5724TIP3   OH238806   3.883   6.156   0.178  0.3522  0.0595 -0.3974
 5724TIP3    H138807   3.916   6.224   0.237  0.7052 -0.4754  0.0355
 5724TIP3    H238808   3.962   6.111   0.147  0.4109  1.7298 -3.0866
 5725TIP3   OH238809   4.066   4.160   6.331 -0.4960 -0.1532 -0.5142
 5725TIP3    H138810   4.149   4.132   6.292 -0.5582 -0.1701 -0.6356
 5725TIP3    H238811   4.021   4.079   6.352 -0.7103 -0.1480 -0.9381
 5726TIP3   OH238812   4.218   2.123   2.151  0.0967 -0.1599 -0.8261
 5726TIP3    H138813   4.234   2.179   2.227  0.2319  0.0642 -1.0168
 5726TIP3    H238814   4.266   2.166   2.080  0.4027 -0.6509 -0.9193
 5727TIP3   OH238815   2.817   5.068   2.526 -0.2663  0.2428 -0.1191
 5727TIP3    H138816   2.809   4.977   2.495 -1.0265  0.5551 -0.8970
 5727TIP3    H238817   2.909   5.079   2.547 -0.2137 -0.7932  0.2517
 5728TIP3   OH238818   5.512   1.737   8.767 -0.3718  1.3598  0.4135
 5728TIP3    H138819   5.552   1.691   8.841 -0.4054  0.7702  0.0744
 5728TIP3    H238820   5.587   1.765   8.714 -0.3408 -2.0637 -1.6280
 5729TIP3   OH238821   2.676   2.922   1.805  0.4757  0.8267 -0.6050
 5729TIP3    H138822   2.672   3.013   1.777 -2.1428  1.1781  0.5824
 5729TIP3    H238823   2.586   2.901   1.831  1.5446 -1.1619  1.9354
 5730TIP3   OH238824   6.434   4.496   7.731 -0.0122  0.0906  0.1008
 5730TIP3    H138825   6.395   4.531   7.651 -1.6821 -1.6941  0.0674
 5730TIP3    H238826   6.495   4.429   7.701  0.5167  0.4709  0.2986
 5731TIP3   OH238827   4.923   1.349   8.317  0.2623 -0.2278 -0.3473
 5731TIP3    H138828   4.883   1.384   8.396  0.4781  0.3202 -0.4777
 5731TIP3    H238829   5.008   1.392   8.312  0.2029 -0.1661 -0.9351
 5732TIP3   OH238830   2.265   1.545   8.103 -0.3137 -0.1738 -0.6667
 5732TIP3    H138831   2.233   1.626   8.064 -0.4514  0.0146 -0.1582
 5732TIP3    H238832   2.207   1.477   8.066  0.5671 -0.2235 -2.0607
 5733TIP3   OH238833   0.105   1.739   0.918  0.2295 -0.5970  0.6967
 5733TIP3    H138834   0.107   1.826   0.956  0.7605  0.1966 -1.0247
 5733TIP3    H238835   0.027   1.698   0.955  0.0666  0.5387  1.6559
 5734TIP3   OH238836   0.131   0.666   8.782  0.2586  0.4256 -0.0934
 5734TIP3    H138837   0.146   0.574   8.760  3.3518  0.7098  0.3491
 5734TIP3    H238838   0.060   0.693   8.725 -0.8251 -2.2416 -0.1554
 5735TIP3   OH238839   3.087   2.726   7.140  0.2125  0.2068 -0.1315
 5735TIP3    H138840   3.158   2.662   7.137  0.2916  0.2803  0.2098
 5735TIP3    H238841   3.130   2.811   7.140  0.1491  0.2460  0.7301
 5736TIP3   OH238842   3.500   6.729   6.674  0.4615  0.5909 -0.0249
 5736TIP3    H138843   3.421   6.771   6.706 -0.2987 -0.0214 -1.0588
 5736TIP3    H238844   3.482   6.636   6.679  1.6122  0.3895  0.9315
 5737TIP3   OH238845   3.435   5.099   1.354  0.1440 -0.2506  0.1626
 5737TIP3    H138846   3.458   5.154   1.279 -1.3423 -1.1744 -1.0618
 5737TIP3    H238847   3.434   5.010   1.318  0.6446 -0.8680  1.6129
 5738TIP3   OH238848   4.998   6.548   8.243 -0.4102  0.3344 -0.2401
 5738TIP3    H138849   5.012   6.575   8.152  1.5618  0.3297  0.0157
 5738TIP3    H238850   5.023   6.456   8.245 -1.3455  0.0841  0.1166
 5739TIP3   OH238851   0.370   3.362   6.281  0.2954  0.2341  0.2467
 5739TIP3    H138852   0.422   3.381   6.359  0.9218 -1.2149  0.2306
 5739TIP3    H238853   0.379   3.267   6.270 -3.1753 -0.2890  0.8097
 5740TIP3   OH238854   0.535   4.933   8.559  0.8580 -0.1266 -0.9542
 5740TIP3    H138855   0.490   4.929   8.644  0.3991  1.1450 -1.1057
 5740TIP3    H238856   0.468   4.912   8.495  0.5208  1.4418 -1.1570
 5741TIP3   OH238857   4.420   1.239   1.011 -0.1188  0.6942  0.2934
 5741TIP3    H138858   4.331   1.247   1.045 -0.7193  0.0523 -1.0500
 5741TIP3    H238859   4.412   1.253   0.917  1.2376  0.8210  0.1705
 5742TIP3   OH238860   4.280   3.791   8.730  0.3529 -0.3649 -0.0795
 5742TIP3    H138861   4.273   3.855   8.801 -1.3168  1.4468 -1.7652
 5742TIP3    H238862   4.215   3.724   8.751 -0.7232  0.5956 -0.3195
 5743TIP3   OH238863   5.332   2.725   1.542  0.1283 -0.9752  0.3880
 5743TIP3    H138864   5.244   2.698   1.513 -1.2304  1.7304  1.5679
 5743TIP3    H238865   5.390   2.695   1.472 -1.6461 -3.2444 -0.2472
 5744TIP3   OH238866   3.214   4.138   0.760 -0.2997  0.3018  0.2623
 5744TIP3    H138867   3.206   4.186   0.677 -2.1983  0.3156  0.4097
 5744TIP3    H238868   3.124   4.124   0.788  0.2674 -1.2303  1.4655
 5745TIP3   OH238869   3.704   4.154   8.014 -0.3163  0.6249  0.0803
 5745TIP3    H138870   3.688   4.096   7.940 -0.9456 -0.4508  1.0173
 5745TIP3    H238871   3.798   4.171   8.012 -0.2750  0.3271 -0.7423
 5746TIP3   OH238872   1.191   6.237   8.018 -0.4874  0.1679  0.1101
 5746TIP3    H138873   1.216   6.168   8.079  0.6100  2.4721  2.4818
 5746TIP3    H238874   1.165   6.191   7.938  0.5378 -2.9075  1.4075
 5747TIP3   OH238875   1.424   2.096   7.219  0.2364  0.3093 -0.7847
 5747TIP3    H138876   1.413   2.005   7.247 -2.3871  0.7593 -0.0976
 5747TIP3    H238877   1.447   2.143   7.299  3.9181  0.0433 -1.5003
 5748TIP3   OH238878   3.680   1.940   6.625  1.2625  0.1078 -0.0329
 5748TIP3    H138879   3.587   1.954   6.644  1.6692 -0.0473  2.4298
 5748TIP3    H238880   3.681   1.867   6.563 -0.2771  1.0305 -1.2361
 5749TIP3   OH238881   1.246   5.204   0.884  0.3149 -0.2712  0.5154
 5749TIP3    H138882   1.268   5.112   0.872  0.9115  0.1188 -1.7760
 5749TIP3    H238883   1.159   5.213   0.845  1.5348  0.6687 -2.2921
 5750TIP3   OH238884   2.592   2.049   1.989 -0.8134 -0.4061  0.2315
 5750TIP3    H138885   2.571   1.966   2.031  1.8541 -0.7741  1.0125
 5750TIP3    H238886   2.620   2.106   2.061 -1.7240  0.9144 -0.4070
 5751TIP3   OH238887   2.538   0.089   0.303  0.3794  0.8493  0.5839
 5751TIP3    H138888   2.481   0.155   0.342 -1.6134 -0.7943  0.6223
 5751TIP3    H238889   2.494   0.063   0.222  1.0164 -0.5170  0.6385
 5752TIP3   OH238890   1.381   1.479   0.216 -0.5005 -0.4962  0.6166
 5752TIP3    H138891   1.389   1.393   0.175  1.6109 -0.5668  1.0466
 5752TIP3    H238892   1.387   1.541   0.144  2.5700 -0.6373  0.6440
 5753TIP3   OH238893   2.572   4.830   8.265 -0.5298 -0.9144  0.6217
 5753TIP3    H138894   2.582   4.910   8.214 -2.0919  0.2930  2.0736
 5753TIP3    H238895   2.616   4.763   8.214 -0.0766  0.6593 -1.1635
 5754TIP3   OH238896   1.865   5.347   6.743  0.7481  0.5630  0.2863
 5754TIP3    H138897   1.948   5.308   6.715 -0.0752  0.4451 -2.1994
 5754TIP3    H238898   1.856   5.425   6.689 -1.5584 -0.3754 -0.8287
 5755TIP3   OH238899   0.373   6.066   6.739 -0.8274 -0.6828  0.1617
 5755TIP3    H138900   0.308   6.136   6.742 -0.7960 -0.5295 -1.6829
 5755TIP3    H238901   0.354   6.018   6.658  0.4656 -1.5233  0.3120
 5756TIP3   OH238902   6.167   0.664   7.991 -0.0260 -0.6312  0.5041
 5756TIP3    H138903   6.119   0.606   7.931  2.8457 -2.2899 -0.3531
 5756TIP3    H238904   6.168   0.616   8.074 -0.2984 -0.3406  0.6768
 5757TIP3   OH238905   2.843   2.208   8.249 -0.4552 -0.2732 -0.8853
 5757TIP3    H138906   2.877   2.187   8.336  1.3674 -1.8976 -1.9243
 5757TIP3    H238907   2.765   2.154   8.240 -1.4310  0.8771  0.1808
 5758TIP3   OH238908   5.284   6.749   6.799 -0.3219  0.5606  0.6734
 5758TIP3    H138909   5.279   6.837   6.761 -0.2831  0.3994  0.2861
 5758TIP3    H238910   5.377   6.728   6.796 -0.3124  0.5659  0.9099
 5759TIP3   OH238911   5.720   5.846   6.624  0.2456  0.7394 -0.4066
 5759TIP3    H138912   5.642   5.859   6.678 -0.2298 -1.3913 -0.5102
 5759TIP3    H238913   5.793   5.855   6.686 -0.0732  2.1161 -0.1909
 5760TIP3   OH238914   1.116   5.377   8.135  0.5790 -0.3354 -0.5104
 5760TIP3    H138915   1.088   5.288   8.154 -0.0545 -0.1464 -0.5338
 5760TIP3    H238916   1.055   5.433   8.184  0.3553  0.1019 -1.2662
 5761TIP3   OH238917   2.802   2.204   1.232 -0.0543  0.2538  0.1887
 5761TIP3    H138918   2.876   2.265   1.229 -1.0777  1.5201 -0.9882
 5761TIP3    H238919   2.751   2.233   1.307 -0.5256  0.8575 -0.3534
 5762TIP3   OH238920   2.526   2.549   7.725  0.5078  0.2567  0.0157
 5762TIP3    H138921   2.494   2.592   7.645 -1.3120  2.8141  1.9137
 5762TIP3    H238922   2.616   2.580   7.734  0.3445  0.9058 -0.4597
 5763TIP3   OH238923   0.258   0.788   7.385  0.4271  0.2430 -0.0816
 5763TIP3    H138924   0.183   0.830   7.343 -0.8346 -0.4110  1.4026
 5763TIP3    H238925   0.245   0.694   7.368  0.5195  0.0720  0.7703
 5764TIP3   OH238926   0.960   6.015   1.746 -0.8802  0.6867  0.3861
 5764TIP3    H138927   0.988   5.961   1.820 -0.5765  1.3239  0.7425
 5764TIP3    H238928   1.040   6.029   1.694 -1.1023  0.1929 -0.1018
 5765TIP3   OH238929   1.855   2.485   8.360  0.1745 -0.0377  0.3334
 5765TIP3    H138930   1.778   2.533   8.392  1.6096  1.5217  1.5953
 5765TIP3    H238931   1.899   2.454   8.439  1.0825 -0.5688 -0.3545
 5766TIP3   OH238932   5.421   6.677   1.277 -0.0486 -0.3492  0.2266
 5766TIP3    H138933   5.420   6.771   1.299  2.4150 -0.0965 -0.4745
 5766TIP3    H238934   5.509   6.648   1.302  0.1175 -1.8784 -1.9518
 5767TIP3   OH238935   5.566   2.724   2.592 -0.1368 -0.4793  0.0637
 5767TIP3    H138936   5.497   2.705   2.528  0.0733 -0.4882 -0.1604
 5767TIP3    H238937   5.624   2.647   2.588 -0.1017 -0.4619  0.2356
 5768TIP3   OH238938   6.052   2.638   7.748  0.3108  0.1834 -0.7029
 5768TIP3    H138939   6.112   2.565   7.739  0.1453 -0.1622  0.8516
 5768TIP3    H238940   5.966   2.598   7.755 -0.0055  0.6301 -1.7591
 5769TIP3   OH238941   6.033   5.076   1.514 -0.3212  0.1636 -0.1855
 5769TIP3    H138942   6.051   5.124   1.432  2.8221 -2.1502 -1.0497
 5769TIP3    H238943   6.089   4.999   1.508 -1.1259 -0.8573  3.5492
 5770TIP3   OH238944   0.798   1.080   8.329  0.2226 -0.3127 -0.0910
 5770TIP3    H138945   0.881   1.079   8.376  0.2207 -0.6742 -0.0937
 5770TIP3    H238946   0.799   1.000   8.276 -0.1868 -0.3899  0.0148
 5771TIP3   OH238947   4.765   4.136   0.377  0.3820 -0.3257  0.0386
 5771TIP3    H138948   4.770   4.041   0.365  1.0110 -0.4017  0.7624
 5771TIP3    H238949   4.760   4.172   0.289  3.2525 -0.8907 -0.4345
 5772TIP3   OH238950   0.110   4.394   2.588 -0.4897  0.1528  0.1098
 5772TIP3    H138951   0.118   4.300   2.604  0.6729  0.2855  0.4054
 5772TIP3    H238952   0.070   4.428   2.668 -0.3060 -0.0080  0.2729
 5773TIP3   OH238953   6.590   0.402   2.079  0.4653 -0.6067 -0.3291
 5773TIP3    H138954   6.514   0.354   2.045 -1.1023  0.3021  1.6466
 5773TIP3    H238955   6.564   0.428   2.167  2.6270  0.8271 -0.0421
 5774TIP3   OH238956   6.059   3.525   7.436  0.1811  0.6467  0.8098
 5774TIP3    H138957   6.097   3.453   7.486  0.3143  1.9427  2.6946
 5774TIP3    H238958   5.969   3.497   7.418  0.1016  0.1520  1.8858
 5775TIP3   OH238959   6.827   0.556   7.743  0.7615 -0.6396 -0.6629
 5775TIP3    H138960   6.732   0.561   7.735  0.6875 -0.7195  0.0323
 5775TIP3    H238961   6.854   0.646   7.763  0.5241 -1.0168  1.7513
 5776TIP3   OH238962   5.324   2.134   1.124 -0.4690  0.7295 -1.0378
 5776TIP3    H138963   5.265   2.091   1.063  1.1652  0.2296 -2.3220
 5776TIP3    H238964   5.372   2.063   1.166 -0.4336  1.1448 -0.3555
 5777TIP3   OH238965   4.193   0.190   0.496  0.4644 -0.1262 -0.0567
 5777TIP3    H138966   4.263   0.238   0.452 -0.7161  0.9493 -0.8321
 5777TIP3    H238967   4.178   0.237   0.577  0.0912  0.1537 -0.2819
 5778TIP3   OH238968   0.695   0.111   6.836  0.2760 -0.1759  0.2997
 5778TIP3    H138969   0.765   0.047   6.850  0.2951 -0.3989 -0.7522
 5778TIP3    H238970   0.723   0.188   6.886 -0.1740 -1.2376  2.3157
 5779TIP3   OH238971   5.355   0.834   0.893  0.7118  0.2550  0.1174
 5779TIP3    H138972   5.342   0.739   0.894  3.1925 -0.1733 -1.0219
 5779TIP3    H238973   5.308   0.863   0.814 -2.4817  0.5062  1.9459
 5780TIP3   OH238974   2.919   0.900   0.853 -0.0711 -0.0969  0.2654
 5780TIP3    H138975   2.954   0.942   0.931  3.1771 -1.0677 -0.4759
 5780TIP3    H238976   2.873   0.822   0.886 -0.0295  0.2920  1.2667
 5781TIP3   OH238977   3.814   3.338   7.617  0.1690 -1.2346  0.3079
 5781TIP3    H138978   3.848   3.343   7.707 -0.1003 -1.1408  0.4037
 5781TIP3    H238979   3.864   3.404   7.569 -0.2136 -0.7552  0.5595
 5782TIP3   OH238980   4.945   0.682   0.715  0.2438 -0.1208  0.3646
 5782TIP3    H138981   4.873   0.744   0.715 -1.2211 -1.1651  6.2938
 5782TIP3    H238982   5.022   0.734   0.696 -1.5222  2.0851 -1.2394
 5783TIP3   OH238983   4.698   1.935   8.238  0.1558  0.7900 -0.3592
 5783TIP3    H138984   4.671   1.956   8.328 -0.9974  0.6437 -0.6603
 5783TIP3    H238985   4.718   1.841   8.240 -1.4774  0.4201 -0.6242
 5784TIP3   OH238986   4.972   3.393   1.520 -0.5476 -0.0329  0.0143
 5784TIP3    H138987   4.930   3.316   1.481  1.6795 -0.1940 -2.3679
 5784TIP3    H238988   4.983   3.453   1.446  1.4760  0.8228  0.9532
 5785TIP3   OH238989   1.306   1.969   0.957  0.3858  0.2280 -0.3040
 5785TIP3    H138990   1.273   2.058   0.968  2.2854  0.9626 -0.2301
 5785TIP3    H238991   1.387   1.979   0.906 -0.3584 -1.6498 -2.0327
 5786TIP3   OH238992   4.710   1.041   6.750  0.3364 -0.1886 -0.2092
 5786TIP3    H138993   4.750   1.108   6.807  0.5516  0.5229 -1.1764
 5786TIP3    H238994   4.710   0.962   6.803 -2.0400  1.0587  1.8800
 5787TIP3   OH238995   6.343   6.264   0.419  0.9608 -0.0503 -0.1471
 5787TIP3    H138996   6.431   6.242   0.391  0.5922  0.6932 -1.9781
 5787TIP3    H238997   6.311   6.185   0.463  1.2715 -1.6159 -2.6074
 5788TIP3   OH238998   5.857   1.899   7.021 -0.0328 -0.1037 -0.4350
 5788TIP3    H138999   5.775   1.883   7.069 -0.8994 -1.3028 -2.1912
 5788TIP3    H239000   5.831   1.957   6.950  0.1705 -1.9779 -2.1246
 5789TIP3   OH239001   2.916   3.410   8.038  0.1706  0.1967  0.5196
 5789TIP3    H139002   2.912   3.466   7.960 -1.8422  0.1463  0.5340
 5789TIP3    H239003   3.003   3.427   8.075  0.6848  1.1846 -1.0218
 5790TIP3   OH239004   0.638   6.179   8.084  0.3014  0.8379  0.4927
 5790TIP3    H139005   0.623   6.158   7.992  2.1303 -1.5432  0.6294
 5790TIP3    H239006   0.726   6.216   8.087  0.4960  0.3460  1.3194
 5791TIP3   OH239007   2.448   4.326   6.540  0.5720  0.3304 -0.0539
 5791TIP3    H139008   2.420   4.388   6.608 -0.4888  0.4151 -0.5406
 5791TIP3    H239009   2.369   4.311   6.489  0.9235 -1.1018 -0.2015
 5792TIP3   OH239010   4.465   3.268   1.757 -0.2331  0.1154 -0.2149
 5792TIP3    H139011   4.371   3.286   1.754 -0.0228  1.2559 -0.6175
 5792TIP3    H239012   4.500   3.335   1.815  0.5154  0.6340 -1.2411
 5793TIP3   OH239013   0.715   5.074   7.069  0.6333  0.0503 -0.2334
 5793TIP3    H139014   0.770   5.073   6.991  1.3950 -1.1991  0.3026
 5793TIP3    H239015   0.700   5.167   7.085  3.0380  0.4917 -0.1074
 5794TIP3   OH239016   6.792   2.530   0.292 -0.3850 -0.3675 -0.0136
 5794TIP3    H139017   6.869   2.484   0.258 -0.9555 -0.1981 -1.6514
 5794TIP3    H239018   6.777   2.492   0.378  1.3363 -0.6220  0.2094
 5795TIP3   OH239019   1.116   5.610   8.605 -0.4441 -0.0201  0.0831
 5795TIP3    H139020   1.197   5.614   8.656 -0.6153 -1.5287  0.5137
 5795TIP3    H239021   1.049   5.642   8.664 -0.3018  0.3769  0.0323
 5796TIP3   OH239022   2.318   4.249   6.931  0.2130  1.1614 -0.2405
 5796TIP3    H139023   2.278   4.212   6.852 -0.6725  0.6063  0.4406
 5796TIP3    H239024   2.289   4.340   6.932  1.0431  1.4493 -1.0618
 5797TIP3   OH239025   3.483   2.337   6.342 -0.8027  0.3889  0.1093
 5797TIP3    H139026   3.488   2.265   6.280 -0.2610 -1.0935  1.8163
 5797TIP3    H239027   3.446   2.298   6.422  0.5590  1.7171  1.4475
 5798TIP3   OH239028   4.504   0.980   8.421 -0.4444 -0.4000 -0.7237
 5798TIP3    H139029   4.425   0.968   8.474 -0.6702  0.8438 -0.7266
 5798TIP3    H239030   4.556   0.902   8.436 -0.2569  0.1043  1.7553
 5799TIP3   OH239031   5.333   4.948   2.067  0.8712 -0.3861  0.3345
 5799TIP3    H139032   5.246   4.916   2.089  0.5385  0.4698  0.2681
 5799TIP3    H239033   5.392   4.885   2.108  0.2348 -0.3116  1.3965
 5800TIP3   OH239034   2.929   6.671   8.324 -0.0356  0.4090  0.3250
 5800TIP3    H139035   2.933   6.596   8.383  0.4039 -0.2013 -0.4580
 5800TIP3    H239036   2.859   6.725   8.359 -1.3516 -1.0692  0.1205
 5801TIP3   OH239037   0.142   5.967   8.582  0.1629  0.5357  0.1639
 5801TIP3    H139038   0.160   5.977   8.488  3.5673  0.0527  0.6610
 5801TIP3    H239039   0.157   5.874   8.600  1.0031  0.8907  1.4271
 5802TIP3   OH239040   6.296   2.765   8.658 -0.3317  0.6813  0.0465
 5802TIP3    H139041   6.216   2.816   8.668 -0.0806  1.2293 -0.6821
 5802TIP3    H239042   6.365   2.830   8.646  0.2296  0.2171  0.6511
 5803TIP3   OH239043   1.987   4.229   1.028 -1.1038  0.3139 -0.1761
 5803TIP3    H139044   2.036   4.162   0.981  3.3357  1.0195  2.8376
 5803TIP3    H239045   1.923   4.181   1.080  1.3398 -1.6750  1.2075
 5804TIP3   OH239046   2.570   5.780   8.160  0.6710 -0.0570 -0.9367
 5804TIP3    H139047   2.576   5.685   8.151 -0.5514 -0.5726  2.2195
 5804TIP3    H239048   2.476   5.798   8.164  0.8835  0.9514  0.6669
 5805TIP3   OH239049   6.794   5.803   1.532  0.2250  0.7997  0.2060
 5805TIP3    H139050   6.768   5.891   1.503  0.1724  0.6737 -0.1364
 5805TIP3    H239051   6.752   5.744   1.469  0.3096  0.5319  0.3999
 5806TIP3   OH239052   3.141   2.674   1.758  0.5103  0.6187 -0.2807
 5806TIP3    H139053   3.111   2.687   1.848 -0.4154  1.1874 -0.6628
 5806TIP3    H239054   3.061   2.668   1.706  0.9920 -1.2400 -0.8797
 5807TIP3   OH239055   4.213   2.089   7.266  0.8314  0.4840  0.3303
 5807TIP3    H139056   4.298   2.046   7.276  1.8595  1.8517 -1.8323
 5807TIP3    H239057   4.234   2.183   7.266 -0.4578  0.8160 -1.6675
 5808TIP3   OH239058   3.580   3.230   0.084  0.0831 -0.2941  0.2333
 5808TIP3    H139059   3.543   3.175   0.015  0.5974 -0.9502  0.4749
 5808TIP3    H239060   3.614   3.307   0.038  1.1998 -1.1118 -0.3636
 5809TIP3   OH239061   5.887   1.934   0.104 -0.4395 -0.0638  0.1949
 5809TIP3    H139062   5.978   1.962   0.107  0.0322 -1.4772 -0.0882
 5809TIP3    H239063   5.866   1.908   0.194  0.4284 -2.5711 -0.2402
 5810TIP3   OH239064   4.600   6.734   0.691 -0.1271  0.3839 -0.4805
 5810TIP3    H139065   4.507   6.752   0.676 -0.2562 -1.5804 -2.5525
 5810TIP3    H239066   4.643   6.770   0.614  0.8595  1.2042  0.4323
 5811TIP3   OH239067   0.373   6.519   1.340 -0.1319  0.1320 -0.1688
 5811TIP3    H139068   0.358   6.484   1.252  1.1019 -2.8079  0.6724
 5811TIP3    H239069   0.454   6.568   1.332 -1.1372  1.7668 -1.0613
 5812TIP3   OH239070   4.597   5.939   6.815  0.4364  0.3564  0.1426
 5812TIP3    H139071   4.549   5.860   6.791  1.2762 -0.5060  1.1959
 5812TIP3    H239072   4.574   6.002   6.747  0.4422 -1.0580 -1.2439
 5813TIP3   OH239073   1.375   2.678   7.938 -0.4063  0.1461  0.4130
 5813TIP3    H139074   1.296   2.676   7.992  0.0424 -1.6218  1.0617
 5813TIP3    H239075   1.447   2.676   8.002  0.2001  1.9685 -0.1586
 5814TIP3   OH239076   6.768   4.343   8.467 -0.0393 -0.1013 -0.1524
 5814TIP3    H139077   6.775   4.312   8.377 -1.6501 -0.1047 -0.3022
 5814TIP3    H239078   6.799   4.270   8.520 -0.3877 -0.6207 -0.6527
 5815TIP3   OH239079   2.514   4.828   1.676 -0.6661  1.1825  0.1683
 5815TIP3    H139080   2.504   4.814   1.770 -2.0963  0.7443 -0.0258
 5815TIP3    H239081   2.578   4.899   1.669 -0.3188  1.0262  1.4538
 5816TIP3   OH239082   2.387   3.777   7.883 -0.0213  0.2659 -0.6780
 5816TIP3    H139083   2.409   3.857   7.836 -0.7025  1.4539  0.9418
 5816TIP3    H239084   2.471   3.744   7.916  0.2709  0.2535 -1.4201
 5817TIP3   OH239085   5.917   3.415   0.347  0.1531  0.4080  0.1098
 5817TIP3    H139086   5.890   3.338   0.396  0.8230 -0.1442 -0.3635
 5817TIP3    H239087   5.975   3.381   0.279  0.1203  1.2812 -0.3729
 5818TIP3   OH239088   2.273   0.680   0.233 -0.0082  0.3028  0.0302
 5818TIP3    H139089   2.256   0.772   0.254  0.4171  0.8828 -1.9599
 5818TIP3    H239090   2.254   0.633   0.314 -0.2518  2.1342  1.0921
 5819TIP3   OH239091   5.129   4.147   7.963  0.3327  0.0603  0.0085
 5819TIP3    H139092   5.170   4.070   8.003 -0.0895  0.1316  0.5923
 5819TIP3    H239093   5.196   4.216   7.968  0.2827  0.0670  0.5980
 5820TIP3   OH239094   4.123   4.275   8.608  0.0404 -0.1286  0.3104
 5820TIP3    H139095   4.212   4.261   8.641  0.7349  1.0600 -0.9358
 5820TIP3    H239096   4.118   4.370   8.595 -0.5156 -0.4379 -2.0467
 5821TIP3   OH239097   1.401   4.226   8.742 -0.0050  0.4845  0.3567
 5821TIP3    H139098   1.373   4.135   8.743  1.6673 -0.1298 -1.9653
 5821TIP3    H239099   1.436   4.241   8.830 -1.3004 -0.7174  1.1251
 5822TIP3   OH239100   0.305   2.843   6.666 -0.2672 -0.8250  0.0233
 5822TIP3    H139101   0.329   2.753   6.648  0.9773 -0.4017 -0.5471
 5822TIP3    H239102   0.371   2.895   6.620 -0.1313  0.3613  1.4908
 5823TIP3   OH239103   5.985   2.499   8.596 -0.4727  0.3120  0.4550
 5823TIP3    H139104   6.066   2.452   8.576 -0.2553  0.5733  0.7076
 5823TIP3    H239105   5.984   2.572   8.535 -1.3046 -0.5621 -0.6047
 5824TIP3   OH239106   0.050   1.688   6.410 -0.1568 -0.0020 -0.1921
 5824TIP3    H139107   0.141   1.711   6.395  0.0846 -0.1621  0.9176
 5824TIP3    H239108   0.051   1.636   6.491 -1.1741 -0.3705 -0.3934
 5825TIP3   OH239109   3.131   4.726   0.012  0.1155 -0.3315  0.0421
 5825TIP3    H139110   3.096   4.713   0.100 -0.5039 -0.1154 -0.1673
 5825TIP3    H239111   3.071   4.676  -0.045  1.1899 -1.4643 -0.1429
 5826TIP3   OH239112   2.592   0.343   1.764  0.5690 -0.1599  0.0444
 5826TIP3    H139113   2.611   0.365   1.855  2.5881 -0.2196 -0.3261
 5826TIP3    H239114   2.597   0.247   1.761 -0.6816 -0.2419  0.0922
 5827TIP3   OH239115   5.263   5.425   8.257  0.0846  0.1350  0.2074
 5827TIP3    H139116   5.339   5.436   8.200 -0.0768  3.7294  0.4556
 5827TIP3    H239117   5.300   5.409   8.344  0.4364 -1.0644 -0.1491
 5828TIP3   OH239118   2.567   3.218   8.561  0.3508 -0.5495  0.3604
 5828TIP3    H139119   2.500   3.268   8.514  0.5265 -0.5927  0.0596
 5828TIP3    H239120   2.565   3.132   8.520  1.1246 -0.3239 -0.1790
 5829TIP3   OH239121   0.379   5.683   1.117  0.2498 -0.8192 -0.1680
 5829TIP3    H139122   0.415   5.738   1.048  0.1424 -1.1553 -0.4942
 5829TIP3    H239123   0.318   5.741   1.164 -0.3067 -0.8195 -0.8742
 5830TIP3   OH239124   3.599   5.123   8.710 -0.0892  0.3008 -0.2586
 5830TIP3    H139125   3.682   5.089   8.743 -1.2223 -1.6094  0.7815
 5830TIP3    H239126   3.575   5.064   8.639 -1.3975 -0.2319  0.6085
 5831TIP3   OH239127   1.860   4.024   1.247  0.4760 -0.2791 -0.1764
 5831TIP3    H139128   1.954   4.039   1.240  0.2887  0.8867 -0.3982
 5831TIP3    H239129   1.835   4.060   1.332  0.1308 -0.0028 -0.3899
 5832TIP3   OH239130   2.372   1.316   7.560 -0.2792  0.5045  0.3586
 5832TIP3    H139131   2.403   1.263   7.634  1.3351  0.0145 -0.6107
 5832TIP3    H239132   2.294   1.361   7.593 -1.5790 -2.2230  1.3448
 5833TIP3   OH239133   3.745   4.542   1.045  0.1602  0.2565 -0.3269
 5833TIP3    H139134   3.791   4.625   1.054 -0.8590  0.8688 -0.5438
 5833TIP3    H239135   3.652   4.567   1.041 -0.2241 -0.9548  0.4739
 5834TIP3   OH239136   5.023   0.473   2.448 -0.1580 -0.1581 -0.5191
 5834TIP3    H139137   5.014   0.502   2.358 -2.0891 -0.0133 -0.3197
 5834TIP3    H239138   4.965   0.530   2.498 -1.3553 -2.0456  0.3807
 5835TIP3   OH239139   4.828   2.380   1.645  0.5613 -0.4268 -0.1012
 5835TIP3    H139140   4.868   2.425   1.719 -0.1386 -1.8177  1.2002
 5835TIP3    H239141   4.899   2.329   1.607  0.4532 -1.7240  1.2824
 5836TIP3   OH239142   2.373   0.551   6.864  0.0533 -0.4476 -0.1827
 5836TIP3    H139143   2.434   0.539   6.790  1.7576  0.4345  1.0158
 5836TIP3    H239144   2.335   0.638   6.850  0.6312 -0.1388  0.1450
 5837TIP3   OH239145   4.406   6.321   0.158 -0.7328 -0.3285  0.0314
 5837TIP3    H139146   4.371   6.332   0.246 -0.6601  1.6076 -0.1405
 5837TIP3    H239147   4.440   6.231   0.157 -1.8796 -0.8207  1.5453
 5838TIP3   OH239148   3.109   2.232   0.354  0.4242  0.1954  0.6426
 5838TIP3    H139149   3.017   2.209   0.367  0.4378  0.3466  1.0079
 5838TIP3    H239150   3.118   2.318   0.396  0.5622  0.5070 -0.0030
 5839TIP3   OH239151   5.298   5.610   0.013 -0.2326  0.2697  0.5125
 5839TIP3    H139152   5.381   5.613   0.060 -1.4763  1.8834  2.8552
 5839TIP3    H239153   5.295   5.524  -0.027  3.0541  0.5982 -0.7054
 5840TIP3   OH239154   5.847   3.497   6.849 -0.2533 -0.0779 -0.5363
 5840TIP3    H139155   5.797   3.443   6.788 -1.7793  0.1109  0.4795
 5840TIP3    H239156   5.818   3.587   6.832 -1.3006 -0.0927  0.9274
 5841TIP3   OH239157   2.108   0.707   2.044 -0.1412 -0.4044 -0.4634
 5841TIP3    H139158   2.056   0.715   1.964  0.3122  1.4188 -0.6281
 5841TIP3    H239159   2.044   0.684   2.111 -1.1210  1.1941 -0.7813
 5842TIP3   OH239160   5.358   3.724   0.393 -0.0626  0.0170 -0.8423
 5842TIP3    H139161   5.428   3.786   0.414  2.9731 -3.3779 -0.0353
 5842TIP3    H239162   5.360   3.717   0.298  0.1797  0.4852 -0.8751
 5843TIP3   OH239163   2.024   1.053   0.845 -0.1208  0.6532  0.3508
 5843TIP3    H139164   1.959   1.121   0.826 -0.4009  0.7762  1.6667
 5843TIP3    H239165   2.101   1.100   0.876 -0.4109  0.3832  1.5350
 5844TIP3   OH239166   5.935   1.418   1.152  0.2145  0.0193  0.3116
 5844TIP3    H139167   6.021   1.407   1.110  0.3928 -1.9662  1.0893
 5844TIP3    H239168   5.950   1.393   1.243 -0.8874  1.1087  0.8160
 5845TIP3   OH239169   1.370   5.453   0.886 -0.7613  0.3028  0.0515
 5845TIP3    H139170   1.314   5.376   0.889 -1.5956  0.8986  0.1862
 5845TIP3    H239171   1.325   5.517   0.941 -0.0694  0.8767 -0.0400
 5846TIP3   OH239172   3.709   2.794   0.326 -0.1847  0.2971 -0.1865
 5846TIP3    H139173   3.730   2.790   0.419 -3.2422 -0.9847  0.5810
 5846TIP3    H239174   3.781   2.748   0.283  0.5159 -0.4981  1.7254
 5847TIP3   OH239175   2.919   1.436   7.003 -0.7940 -0.7318  0.2648
 5847TIP3    H139176   2.874   1.416   6.922 -0.7828  0.1777  0.0197
 5847TIP3    H239177   2.850   1.435   7.070 -0.8105 -1.4334  0.2390
 5848TIP3   OH239178   2.572   2.788   1.109  0.1066  0.2371 -0.0043
 5848TIP3    H139179   2.566   2.795   1.014 -0.1082 -0.6179 -0.0582
 5848TIP3    H239180   2.657   2.826   1.131  0.3538  0.0195 -0.5773
 5849TIP3   OH239181   5.309   3.537   7.524  0.2959 -0.1805  0.3433
 5849TIP3    H139182   5.341   3.627   7.516  0.7623 -0.4240 -0.7874
 5849TIP3    H239183   5.218   3.542   7.497  0.6183 -0.2139 -0.8049
 5850TIP3   OH239184   4.017   1.088   7.082  0.0724 -0.1559 -0.0299
 5850TIP3    H139185   4.070   1.165   7.060  1.1816 -1.2225 -1.2254
 5850TIP3    H239186   4.066   1.044   7.151 -0.8914  0.5101  1.1261
 5851TIP3   OH239187   5.075   6.049   7.210 -0.4490 -0.0075  0.3901
 5851TIP3    H139188   5.017   6.116   7.174  0.4038  0.7743  0.4229
 5851TIP3    H239189   5.163   6.085   7.198 -0.0553 -0.4550  1.7572
 5852TIP3   OH239190   1.692   2.208   0.732 -0.3006  0.0025 -0.0047
 5852TIP3    H139191   1.733   2.176   0.652  1.3630  0.9528  0.4317
 5852TIP3    H239192   1.618   2.148   0.746 -0.0251 -0.7852 -1.6861
 5853TIP3   OH239193   3.862   1.276   8.430 -0.5285  0.3399  0.1293
 5853TIP3    H139194   3.879   1.232   8.347  0.4469 -0.9606  0.9840
 5853TIP3    H239195   3.791   1.226   8.470 -1.7930  1.6558 -0.3969
 5854TIP3   OH239196   0.834   6.661   8.650 -0.1034  0.2661  0.5524
 5854TIP3    H139197   0.842   6.566   8.642  2.5270  0.4206  0.6617
 5854TIP3    H239198   0.820   6.676   8.743 -0.9033 -0.0060  0.4854
 5855TIP3   OH239199   4.806   2.605   1.101 -0.6555  0.1105  0.7849
 5855TIP3    H139200   4.800   2.542   1.173 -0.7889 -1.2481 -0.3702
 5855TIP3    H239201   4.863   2.675   1.135 -1.6608  0.1014  2.5918
 5856TIP3   OH239202   6.571   2.078   0.509  0.5429  0.2242  0.0851
 5856TIP3    H139203   6.638   2.106   0.572  1.1281 -1.4006  0.2312
 5856TIP3    H239204   6.609   2.002   0.466 -1.2417 -0.8193  0.2580
 5857TIP3   OH239205   3.974   6.476   1.092 -0.2519  0.1066 -0.3067
 5857TIP3    H139206   4.012   6.561   1.073 -2.1261  0.7750 -1.3656
 5857TIP3    H239207   3.941   6.445   1.007 -1.4481 -0.6983  0.4178
 5858TIP3   OH239208   3.319   2.298   8.662 -0.1900 -0.3047  0.1088
 5858TIP3    H139209   3.352   2.255   8.741 -0.6448  1.7740  1.5038
 5858TIP3    H239210   3.297   2.387   8.690 -1.7318  0.0721 -2.0327
 5859TIP3   OH239211   4.825   3.147   1.104  0.1131 -0.1074 -0.5148
 5859TIP3    H139212   4.826   3.064   1.151 -1.6247  1.0034  1.6446
 5859TIP3    H239213   4.916   3.160   1.076  0.7443 -1.8960  0.5759
 5860TIP3   OH239214   2.008   2.335   0.900 -0.7136  0.2660  0.3499
 5860TIP3    H139215   1.973   2.248   0.882 -0.2401 -0.0251  0.7902
 5860TIP3    H239216   1.984   2.353   0.991  0.7476 -0.1993  0.8651
 5861TIP3   OH239217   2.186   0.653   8.631  0.3347 -0.0166 -0.3743
 5861TIP3    H139218   2.178   0.562   8.603 -0.6542 -0.3656  0.9339
 5861TIP3    H239219   2.117   0.698   8.582  1.3773  0.2359 -1.6782
 5862TIP3   OH239220   3.861   5.175   1.706 -0.0109  0.3353 -0.2834
 5862TIP3    H139221   3.819   5.153   1.623 -3.4656  0.9446  1.1344
 5862TIP3    H239222   3.868   5.092   1.752 -0.1207  0.2917 -0.3438
 5863TIP3   OH239223   5.533   2.506   2.269 -0.0252  0.5940  0.3620
 5863TIP3    H139224   5.591   2.511   2.345  1.7262  0.6283 -0.9072
 5863TIP3    H239225   5.456   2.557   2.294  0.9252  1.4180  1.7511
 5864TIP3   OH239226   5.187   4.744   8.165  0.6954  0.2013 -0.4281
 5864TIP3    H139227   5.108   4.692   8.179  1.0164 -0.7110 -1.7766
 5864TIP3    H239228   5.185   4.809   8.234 -2.1913  1.3712 -1.4554
 5865TIP3   OH239229   6.620   5.664   2.810 -0.1141  0.3393 -0.5707
 5865TIP3    H139230   6.536   5.690   2.849 -1.2980 -1.6346 -1.6042
 5865TIP3    H239231   6.637   5.731   2.745 -0.4399  1.2310  0.2347
 5866TIP3   OH239232   6.076   6.153   1.346 -0.3062  0.7750 -0.2984
 5866TIP3    H139233   6.096   6.060   1.330  0.6499  0.6084  1.5268
 5866TIP3    H239234   6.052   6.188   1.260 -1.3293 -1.3019 -0.9215
 5867TIP3   OH239235   6.291   2.255   7.161  0.0481 -0.7575 -0.1650
 5867TIP3    H139236   6.364   2.312   7.187  0.4345 -1.4468  0.2812
 5867TIP3    H239237   6.259   2.293   7.079  1.5308 -1.0182 -0.8825
 5868TIP3   OH239238   5.532   2.406   7.433  0.3380 -0.0578  0.2256
 5868TIP3    H139239   5.607   2.361   7.472  0.2510 -0.0212  0.4388
 5868TIP3    H239240   5.456   2.353   7.459  0.3619 -0.5408 -0.6576
 5869TIP3   OH239241   5.286   6.011   1.074  0.2777  0.0475  0.4265
 5869TIP3    H139242   5.253   6.023   0.985 -1.3849  3.4793  1.3290
 5869TIP3    H239243   5.237   5.936   1.108  0.6268 -1.0422 -1.3479
 5870TIP3   OH239244   1.450   0.451   7.033 -0.2095 -0.9938 -0.6659
 5870TIP3    H139245   1.389   0.379   7.053 -0.1658 -0.5674  1.1427
 5870TIP3    H239246   1.394   0.529   7.028  0.0571 -0.7448  0.0931
 5871TIP3   OH239247   5.248   4.781   8.540 -0.4280 -0.9508  0.3264
 5871TIP3    H139248   5.298   4.745   8.612 -0.6545 -1.7218  0.1129
 5871TIP3    H239249   5.220   4.704   8.489 -1.7126 -0.5457  0.3718
 5872TIP3   OH239250   1.373   0.716   8.452  0.3250 -0.2516  0.2639
 5872TIP3    H139251   1.373   0.718   8.357  0.3363  1.5455  0.2594
 5872TIP3    H239252   1.286   0.685   8.476  0.8837 -2.3905 -0.2955
 5873TIP3   OH239253   3.241   4.051   5.984  1.0759  0.0511 -0.6411
 5873TIP3    H139254   3.271   4.124   5.930  0.6188  1.0503  0.4214
 5873TIP3    H239255   3.152   4.032   5.952  1.2004 -0.0608 -0.9258
 5874TIP3   OH239256   1.998   4.012   8.050  0.8080 -0.3663  0.2065
 5874TIP3    H139257   1.935   4.080   8.028  0.4451 -0.8839 -0.4025
 5874TIP3    H239258   1.949   3.952   8.107  1.2519  0.0946  1.0914
 5875TIP3   OH239259   4.244   5.264   8.457  0.4044 -0.6107  0.1953
 5875TIP3    H139260   4.221   5.182   8.412 -1.4156 -0.8440  1.4444
 5875TIP3    H239261   4.321   5.241   8.509  1.2363 -0.9006 -1.0976
 5876TIP3   OH239262   2.979   6.633   0.957 -0.2620 -0.4892 -0.7526
 5876TIP3    H139263   2.994   6.656   0.865  0.4378 -2.5948 -1.2239
 5876TIP3    H239264   2.884   6.629   0.965 -0.3351 -0.0246 -1.3206
 5877TIP3   OH239265   2.783   4.774   7.156 -0.0462 -0.1552 -0.2984
 5877TIP3    H139266   2.818   4.762   7.244  0.8652 -1.6837 -0.8257
 5877TIP3    H239267   2.688   4.767   7.166  0.1120 -2.0978  0.3710
 5878TIP3   OH239268   0.672   5.369   6.505  0.2137 -0.7517  0.1457
 5878TIP3    H139269   0.758   5.410   6.494 -0.3884  0.8879  1.2171
 5878TIP3    H239270   0.660   5.361   6.600  0.5980 -4.1872  0.0071
 5879TIP3   OH239271   1.886   0.305   7.407 -0.7060 -0.4484  0.0395
 5879TIP3    H139272   1.933   0.286   7.325  0.7755  0.0594  0.7222
 5879TIP3    H239273   1.955   0.310   7.473 -1.6299  1.2100  0.9516
 5880TIP3   OH239274   5.552   5.475   1.911  0.3762 -0.1947 -0.1717
 5880TIP3    H139275   5.586   5.486   1.822  0.5008  0.0182 -0.0979
 5880TIP3    H239276   5.624   5.437   1.960  0.0946 -0.9364 -0.3162
 5881TIP3   OH239277   4.831   4.896   1.110 -0.0507  0.2822  0.0111
 5881TIP3    H139278   4.901   4.955   1.138 -0.1093  0.1020  0.5348
 5881TIP3    H239279   4.863   4.808   1.131 -0.9213  0.2557  1.3689
 5882TIP3   OH239280   6.331   1.215   8.646 -0.7178 -0.2337  0.0643
 5882TIP3    H139281   6.316   1.133   8.693 -1.7074 -1.0250 -1.5191
 5882TIP3    H239282   6.327   1.190   8.554  2.8108  0.9411 -0.5540
 5883TIP3   OH239283   3.830   4.382   8.322  0.1767 -0.4880  0.0109
 5883TIP3    H139284   3.782   4.363   8.403  3.3613 -1.5617  1.8240
 5883TIP3    H239285   3.814   4.306   8.266 -0.8929 -0.4167  0.1963
 5884TIP3   OH239286   5.948   2.880   7.649  0.2632 -0.1044 -0.3033
 5884TIP3    H139287   5.964   2.785   7.652  1.2754  0.0565 -0.1096
 5884TIP3    H239288   5.957   2.908   7.740  1.6846  0.4220 -0.5771
 5885TIP3   OH239289   5.347   6.534   8.681  0.9814 -0.0190 -0.1206
 5885TIP3    H139290   5.312   6.540   8.592 -0.9053 -1.3515  0.4569
 5885TIP3    H239291   5.441   6.528   8.669  0.7144 -1.4269 -2.1278
 5886TIP3   OH239292   4.616   5.567   0.764  0.5691  0.3882  0.5919
 5886TIP3    H139293   4.603   5.662   0.767  0.0349  0.3327  0.1511
 5886TIP3    H239294   4.604   5.538   0.855  1.6127  0.8504  0.8795
 5887TIP3   OH239295   4.954   1.708   7.093  0.0471  0.3654 -0.1221
 5887TIP3    H139296   4.898   1.768   7.044  0.8169  1.0253 -0.2204
 5887TIP3    H239297   4.971   1.754   7.176  1.5903  0.8202 -0.6686
 5888TIP3   OH239298   0.095   5.506   1.415  0.4371  0.4442  0.2036
 5888TIP3    H139299   0.088   5.597   1.444  0.6846  1.1706 -1.8522
 5888TIP3    H239300   0.180   5.502   1.371 -0.8333  0.0347 -2.3413
 5889TIP3   OH239301   5.614   0.985   0.588 -0.7607  0.1062 -0.2024
 5889TIP3    H139302   5.596   1.032   0.506  0.1327 -1.0636 -1.1066
 5889TIP3    H239303   5.559   1.028   0.653 -0.2795  2.1455 -1.0609
 5890TIP3   OH239304   4.410   1.848   0.991 -0.0911 -0.5970 -0.4249
 5890TIP3    H139305   4.419   1.754   1.005  1.0194 -0.5233 -0.5870
 5890TIP3    H239306   4.421   1.887   1.078  0.8388 -0.5345 -0.5619
 5891TIP3   OH239307   5.893   0.742   1.573  0.1003  0.0302 -0.5398
 5891TIP3    H139308   5.875   0.830   1.538  0.3783 -0.2319 -1.3526
 5891TIP3    H239309   5.822   0.726   1.635 -0.1474  0.6847 -0.6477
 5892TIP3   OH239310   5.667   2.364   0.432  0.5279  0.4537  0.1835
 5892TIP3    H139311   5.739   2.318   0.388  0.8084 -0.8654  1.9221
 5892TIP3    H239312   5.588   2.320   0.401  0.7350 -0.5696  1.0456
 5893TIP3   OH239313   6.722   6.129   2.296  0.5323  0.4926  0.4214
 5893TIP3    H139314   6.745   6.038   2.313 -0.9112  0.3237  1.7304
 5893TIP3    H239315   6.645   6.124   2.239  0.1030  0.8751  0.9613
 5894TIP3   OH239316   5.363   3.707   2.631 -0.1327  0.0577 -0.0895
 5894TIP3    H139317   5.284   3.660   2.654 -0.5152  0.3432 -0.7927
 5894TIP3    H239318   5.347   3.740   2.542  1.8210 -2.2207 -1.3984
 5895TIP3   OH239319   0.518   4.335   7.713  0.3277  0.2235  0.1542
 5895TIP3    H139320   0.444   4.285   7.681  0.5105  0.8436 -1.3165
 5895TIP3    H239321   0.536   4.399   7.644  0.9699  1.4010  1.3582
 5896TIP3   OH239322   2.771   4.785   7.444 -0.8016  0.4673 -0.1025
 5896TIP3    H139323   2.838   4.799   7.511  0.1621 -0.4069 -0.8639
 5896TIP3    H239324   2.739   4.873   7.424  1.2301  1.0845 -0.8555
 5897TIP3   OH239325   2.813   6.761   1.994  0.2829 -0.3791 -0.4172
 5897TIP3    H139326   2.885   6.709   1.959  1.8557  1.8450 -0.6680
 5897TIP3    H239327   2.819   6.750   2.089  0.5110 -0.7401 -0.4712
 5898TIP3   OH239328   6.321   0.242   8.110 -0.2500  0.1059 -0.0453
 5898TIP3    H139329   6.281   0.260   8.196 -0.2010 -0.1714  0.0335
 5898TIP3    H239330   6.247   0.219   8.054 -0.1995 -0.4134  0.1028
 5899TIP3   OH239331   2.416   6.841   0.054 -0.1273 -0.3527  0.6067
 5899TIP3    H139332   2.339   6.797   0.018 -1.3448  0.4466  2.1615
 5899TIP3    H239333   2.485   6.825  -0.011 -1.9616  0.1833 -1.5959
 5900TIP3   OH239334   0.517   6.553   1.760  0.4214 -0.7403  0.4689
 5900TIP3    H139335   0.458   6.603   1.816  0.8668  1.4934 -0.9126
 5900TIP3    H239336   0.459   6.499   1.706 -0.1965 -0.5723  0.9552
 5901TIP3   OH239337   4.462   1.529   8.777 -0.6471  0.6903 -0.0154
 5901TIP3    H139338   4.454   1.433   8.779  0.7699  0.5478 -0.2891
 5901TIP3    H239339   4.396   1.557   8.713 -0.7091 -0.1439 -0.3316
 5902TIP3   OH239340   1.222   4.867   7.263 -0.5148  0.2637  0.2983
 5902TIP3    H139341   1.207   4.913   7.346  0.8980  2.2850 -0.4828
 5902TIP3    H239342   1.140   4.877   7.215 -0.0521  2.7038 -0.1258
 5903TIP3   OH239343   5.603   0.207   8.509 -0.2450 -0.0020  0.1020
 5903TIP3    H139344   5.593   0.247   8.596  0.0159  1.2521 -0.4275
 5903TIP3    H239345   5.532   0.246   8.457 -0.5853 -0.9698 -0.1907
 5904TIP3   OH239346   5.841   1.005   7.738 -0.2394  0.1678 -0.4276
 5904TIP3    H139347   5.812   0.960   7.818  1.2798 -1.9646 -0.9850
 5904TIP3    H239348   5.846   0.936   7.672 -0.9950  1.7913 -2.2776
 5905TIP3   OH239349   2.371   6.369   6.638 -0.0579  0.1814 -0.3585
 5905TIP3    H139350   2.325   6.418   6.706 -0.1272 -1.6098  0.9691
 5905TIP3    H239351   2.315   6.375   6.561 -1.4380 -0.1132  0.5951
 5906TIP3   OH239352   2.143   2.202   6.973 -0.4036  0.1136 -0.2099
 5906TIP3    H139353   2.231   2.232   6.995 -0.1716 -0.9914  0.4725
 5906TIP3    H239354   2.099   2.193   7.058 -0.8954 -0.1551 -0.4865
 5907TIP3   OH239355   5.555   3.431   8.311 -0.0465  0.0230  0.1313
 5907TIP3    H139356   5.478   3.445   8.257  0.9086  1.7825 -0.8574
 5907TIP3    H239357   5.591   3.348   8.281 -1.0583 -0.3940  0.0260
 5908TIP3   OH239358   1.020   5.756   0.560 -0.1792 -0.0593  0.3526
 5908TIP3    H139359   0.981   5.690   0.618  0.3853  1.3944  2.5006
 5908TIP3    H239360   1.107   5.771   0.596  0.7530 -0.0781 -1.7599
 5909TIP3   OH239361   1.658   2.448   7.626 -0.3988 -0.6185 -0.1735
 5909TIP3    H139362   1.663   2.434   7.720 -2.1775 -1.0964 -0.1132
 5909TIP3    H239363   1.717   2.521   7.609 -0.2119 -0.3894  1.3346
 5910TIP3   OH239364   6.326   1.441   8.031 -0.5516 -0.5332 -0.2507
 5910TIP3    H139365   6.284   1.476   7.952 -1.2316 -1.4878 -0.3201
 5910TIP3    H239366   6.254   1.412   8.086 -0.3483  2.9679  2.1914
 5911TIP3   OH239367   1.374   6.362   0.179  0.2532  0.1073 -0.2418
 5911TIP3    H139368   1.310   6.309   0.227  0.8308 -0.7664 -0.4255
 5911TIP3    H239369   1.326   6.443   0.158 -0.3736  0.0200  0.7702
 5912TIP3   OH239370   6.460   1.968   7.886  0.1229 -0.0930  0.0180
 5912TIP3    H139371   6.534   1.908   7.876 -0.8274 -1.2999  0.1427
 5912TIP3    H239372   6.391   1.931   7.831 -0.6379  0.6322  0.4578
 5913TIP3   OH239373   3.229   6.103   0.582 -0.1317  0.1581  0.4718
 5913TIP3    H139374   3.187   6.149   0.509 -1.4418 -0.6469  0.6772
 5913TIP3    H239375   3.203   6.012   0.571 -1.0541  0.1312  2.3695
 5914TIP3   OH239376   1.731   1.525   0.749  0.3121  0.6786 -0.6579
 5914TIP3    H139377   1.699   1.491   0.666 -3.6738  1.0305  0.5227
 5914TIP3    H239378   1.699   1.616   0.752 -2.2270 -0.1011  2.2457
 5915TIP3   OH239379   0.995   1.704   8.363 -0.2304  0.0297 -0.3658
 5915TIP3    H139380   0.943   1.782   8.342 -0.4643  0.0726  0.3447
 5915TIP3    H239381   1.035   1.725   8.447 -0.8040 -0.8720  0.1388
 5916TIP3   OH239382   2.382   4.309   2.290 -0.3347 -0.2317  0.0992
 5916TIP3    H139383   2.384   4.404   2.294 -0.5038 -0.2150 -0.2030
 5916TIP3    H239384   2.411   4.288   2.201 -2.5614 -0.3747 -0.6440
 5917TIP3   OH239385   2.164   5.952   1.362  0.3895 -0.3248  0.3640
 5917TIP3    H139386   2.210   6.017   1.308 -0.7070 -0.7213 -1.1449
 5917TIP3    H239387   2.072   5.979   1.357  0.3044 -0.0992  2.4965
 5918TIP3   OH239388   6.283   4.983   2.139 -0.4795  0.2334 -0.2441
 5918TIP3    H139389   6.274   5.048   2.209 -0.7439  0.9049 -0.8775
 5918TIP3    H239390   6.378   4.977   2.124 -0.4435  0.3644 -0.0695
 5919TIP3   OH239391   4.119   1.354   8.363 -0.4171 -0.1919 -0.0877
 5919TIP3    H139392   4.142   1.263   8.385 -1.7998 -1.0673 -1.9736
 5919TIP3    H239393   4.032   1.366   8.400  0.0928  0.7019  0.8862
 5920TIP3   OH239394   0.085   6.597   8.180  0.0661 -0.0320 -0.0110
 5920TIP3    H139395   0.029   6.674   8.173 -3.2981 -2.2982 -0.3258
 5920TIP3    H239396   0.084   6.558   8.093  0.6668 -1.0741  0.4233
 5921TIP3   OH239397   3.035   6.027   7.151  0.4405 -0.4333 -0.0562
 5921TIP3    H139398   3.008   6.109   7.110  0.6720  0.8335  2.1719
 5921TIP3    H239399   3.126   6.042   7.177  0.5151 -1.4356  0.3035
 5922TIP3   OH239400   5.204   3.632   7.880  0.4808 -0.4687  0.6661
 5922TIP3    H139401   5.270   3.700   7.871  0.8772 -0.8950  0.2977
 5922TIP3    H239402   5.165   3.647   7.967 -2.0167  2.5137 -0.7577
 5923TIP3   OH239403   4.002   6.564   6.630  0.5631  0.0668  0.0755
 5923TIP3    H139404   3.994   6.653   6.596  0.4676  0.4506  1.0797
 5923TIP3    H239405   4.072   6.525   6.578  0.4315  0.6439 -0.5438
 5924TIP3   OH239406   0.611   2.505   1.539  0.1489  0.2032 -0.2258
 5924TIP3    H139407   0.596   2.431   1.481  0.0849 -0.1910  0.2829
 5924TIP3    H239408   0.662   2.567   1.487  0.4809 -0.3362 -0.5527
 5925TIP3   OH239409   5.098   2.343   7.273 -0.0024  0.3933 -0.2749
 5925TIP3    H139410   5.027   2.370   7.214  1.4252  2.5587 -1.1234
 5925TIP3    H239411   5.080   2.390   7.355 -0.9302 -1.1056  0.4110
 5926TIP3   OH239412   4.258   6.240   1.977 -0.0897  0.1169 -0.2200
 5926TIP3    H139413   4.326   6.290   1.931 -1.1372  1.5041 -0.3164
 5926TIP3    H239414   4.269   6.264   2.069 -0.8512  0.8930 -0.3135
 5927TIP3   OH239415   3.195   0.920   0.733 -0.4796 -0.5452 -0.5611
 5927TIP3    H139416   3.191   0.957   0.645  0.8613  0.9711 -0.0265
 5927TIP3    H239417   3.128   0.969   0.782 -0.3874 -0.5388 -0.4418
 5928TIP3   OH239418   5.567   1.147   7.223 -0.4559 -0.2514  0.9898
 5928TIP3    H139419   5.613   1.189   7.150 -1.2986 -1.1201 -0.0810
 5928TIP3    H239420   5.595   1.196   7.300  0.4404  0.7194  0.0889
 5929TIP3   OH239421   6.495   4.123   0.390  0.5881  0.1515 -0.2301
 5929TIP3    H139422   6.563   4.104   0.455  1.3793  1.8836 -0.4803
 5929TIP3    H239423   6.495   4.047   0.333 -0.2875 -1.5235  1.8790
 5930TIP3   OH239424   2.270   3.732   6.848 -0.1322  0.1687 -0.6066
 5930TIP3    H139425   2.217   3.715   6.926  2.4117  0.2261  1.2374
 5930TIP3    H239426   2.290   3.825   6.852  0.4165  0.0751 -1.0551
 5931TIP3   OH239427   4.395   0.042   0.938 -0.5874  0.7971 -0.1621
 5931TIP3    H139428   4.432   0.130   0.930 -1.0144  1.1486  1.4483
 5931TIP3    H239429   4.354   0.025   0.853 -0.5302  2.1674 -0.4796
 5932TIP3   OH239430   1.845   2.953   6.930 -0.1720 -0.2412 -0.0946
 5932TIP3    H139431   1.773   3.008   6.961  0.5106  0.9672 -0.6148
 5932TIP3    H239432   1.924   2.998   6.959  0.4049 -1.3267  0.0797
 5933TIP3   OH239433   4.585   1.014   8.741  0.2207 -0.2164  0.4086
 5933TIP3    H139434   4.509   1.067   8.765 -1.9987 -2.5663 -0.9547
 5933TIP3    H239435   4.599   1.035   8.648  1.3310  0.2753  0.6803
 5934TIP3   OH239436   5.009   2.545   8.338 -0.1465  0.5022  0.3945
 5934TIP3    H139437   4.938   2.522   8.277  0.4945 -0.9904  0.1681
 5934TIP3    H239438   5.082   2.569   8.282  0.2021 -0.1092  0.5771
 5935TIP3   OH239439   5.855   5.293   0.344  0.2087  0.0125 -0.7755
 5935TIP3    H139440   5.948   5.271   0.332  0.0063 -0.3639 -1.7656
 5935TIP3    H239441   5.856   5.369   0.401  1.0443 -1.0913  0.7700
 5936TIP3   OH239442   4.369   0.759   1.419 -0.1390  0.1028  0.4082
 5936TIP3    H139443   4.402   0.842   1.454 -0.0358  0.6398 -0.9158
 5936TIP3    H239444   4.284   0.748   1.462 -0.1580  0.8994  0.5893
 5937TIP3   OH239445   4.699   4.262   1.252  0.0666  0.4414  0.6971
 5937TIP3    H139446   4.656   4.343   1.281  2.3528  2.0237 -0.0326
 5937TIP3    H239447   4.753   4.236   1.327  0.6474  0.5841  0.3332
 5938TIP3   OH239448   2.550   0.946   0.252 -0.0775 -0.4818 -0.0356
 5938TIP3    H139449   2.495   0.986   0.319  0.9127  0.0150  0.5052
 5938TIP3    H239450   2.557   1.012   0.183  1.0168  0.0599  0.5611
 5939TIP3   OH239451   3.683   6.818   6.490  0.3173  0.3096 -0.2584
 5939TIP3    H139452   3.675   6.748   6.425  0.9455  0.8201 -0.9105
 5939TIP3    H239453   3.619   6.796   6.557 -0.7306  0.0317 -1.3082
 5940TIP3   OH239454   0.540   0.831   0.392 -0.0345 -0.3804  0.1078
 5940TIP3    H139455   0.588   0.751   0.415 -1.1168 -0.7948  1.0276
 5940TIP3    H239456   0.449   0.811   0.415 -0.9968 -0.2364 -3.1115
 5941TIP3   OH239457   4.160   5.055   7.615 -0.0379 -0.1153 -0.2906
 5941TIP3    H139458   4.242   5.072   7.662  0.8827 -2.6766 -0.7879
 5941TIP3    H239459   4.120   4.982   7.663 -1.8509  0.8235 -0.3111
 5942TIP3   OH239460   0.443   0.071   6.968  0.5250 -0.1267 -0.0296
 5942TIP3    H139461   0.516   0.097   6.911  1.3586 -0.0335  1.0419
 5942TIP3    H239462   0.401  -0.001   6.921  1.6877 -0.5971 -0.4099
 5943TIP3   OH239463   1.872   1.223   1.315  0.0339 -0.2733  0.5128
 5943TIP3    H139464   1.827   1.273   1.246  0.8908  0.6673  0.6047
 5943TIP3    H239465   1.902   1.290   1.376 -0.1660 -1.0505  1.4824
 5944TIP3   OH239466   2.560   4.942   0.957 -0.2759 -0.3815  0.2012
 5944TIP3    H139467   2.484   4.907   1.003 -0.8322  0.4363 -0.0738
 5944TIP3    H239468   2.530   5.026   0.922  0.3952 -0.5857 -0.9042
 5945TIP3   OH239469   5.288   1.597   0.114  0.0725  0.7025  0.0378
 5945TIP3    H139470   5.274   1.590   0.209 -0.8875  2.5230  0.0756
 5945TIP3    H239471   5.368   1.547   0.098 -0.0936 -0.1869  1.6985
 5946TIP3   OH239472   3.082   4.062   1.388 -0.0626  0.6156  0.9325
 5946TIP3    H139473   3.177   4.051   1.393  0.3051  0.4321 -3.3209
 5946TIP3    H239474   3.048   3.972   1.390  0.1784  0.4636 -0.8656
 5947TIP3   OH239475   4.961   3.331   2.380 -0.5233 -0.0153  0.1101
 5947TIP3    H139476   4.880   3.370   2.346 -2.1809 -4.1104 -1.2457
 5947TIP3    H239477   4.972   3.250   2.330  2.0985 -1.7882  3.1383
 5948TIP3   OH239478   5.391   5.377   1.631  1.2850 -0.1724  0.2000
 5948TIP3    H139479   5.410   5.455   1.579  1.8277 -0.5138 -0.1186
 5948TIP3    H239480   5.477   5.342   1.656  1.0394 -0.1772  1.0917
 5949TIP3   OH239481   3.473   2.336   6.767 -1.4004  0.0436 -0.2730
 5949TIP3    H139482   3.543   2.292   6.814 -0.8635  1.4319  0.2783
 5949TIP3    H239483   3.447   2.274   6.699 -1.7310 -1.7443  1.3877
 5950TIP3   OH239484   2.588   5.491   0.948  0.8423 -0.0508  0.0200
 5950TIP3    H139485   2.632   5.561   0.900  0.9728 -0.6418 -0.7412
 5950TIP3    H239486   2.529   5.536   1.008  1.1320  0.7131 -0.2607
 5951TIP3   OH239487   4.456   1.803   0.696 -0.5522 -0.4924  0.1576
 5951TIP3    H139488   4.459   1.723   0.749 -0.4667 -1.0808 -0.7121
 5951TIP3    H239489   4.425   1.870   0.756 -0.4726 -1.1454  0.9487
 5952TIP3   OH239490   6.334   2.030   7.545  0.1163 -0.6694 -0.1734
 5952TIP3    H139491   6.411   1.975   7.557 -0.1557 -0.6202  2.4982
 5952TIP3    H239492   6.276   2.005   7.617 -2.0095 -0.0880 -1.5877
 5953TIP3   OH239493   1.546   6.341   8.427  0.3167 -0.5102  0.1699
 5953TIP3    H139494   1.632   6.308   8.405  0.7715  0.7555 -0.0414
 5953TIP3    H239495   1.489   6.310   8.357  1.0912  0.6377 -1.0081
 5954TIP3   OH239496   6.366   2.432   1.954 -0.2942 -0.4428  0.3981
 5954TIP3    H139497   6.345   2.522   1.981 -0.5548  0.3642 -2.2563
 5954TIP3    H239498   6.283   2.396   1.923  0.3234 -0.5567 -1.2208
 5955TIP3   OH239499   2.856   2.011   0.228 -0.9352 -0.0900 -0.1317
 5955TIP3    H139500   2.800   1.948   0.273 -1.8287  0.0435 -1.0305
 5955TIP3    H239501   2.825   2.097   0.257 -1.1546 -0.0167 -0.5737
 5956TIP3   OH239502   2.988   1.314   1.552  0.2755  0.2670  0.3005
 5956TIP3    H139503   3.036   1.260   1.615  0.6699  2.0734  1.6563
 5956TIP3    H239504   2.903   1.330   1.594 -0.8968 -1.4683 -1.3042
 5957TIP3   OH239505   0.959   0.335   1.909  0.2176  0.0809  0.1891
 5957TIP3    H139506   0.956   0.277   1.832  3.4710  0.0480 -0.0451
 5957TIP3    H239507   0.902   0.292   1.973  0.1954 -1.8093 -1.0047
 5958TIP3   OH239508   2.064   4.386   8.125  0.5996  0.1373  0.1654
 5958TIP3    H139509   2.080   4.475   8.091  0.5990 -0.1800 -0.6755
 5958TIP3    H239510   1.975   4.389   8.159  0.5686  0.4318  0.0622
 5959TIP3   OH239511   4.214   3.344   1.946  0.3598 -0.2248 -0.3380
 5959TIP3    H139512   4.283   3.301   1.995  0.4387 -0.4515 -0.6443
 5959TIP3    H239513   4.245   3.434   1.934  0.6571 -0.3574 -0.5780
 5960TIP3   OH239514   0.706   6.420   7.259  0.6974 -0.1820  0.5434
 5960TIP3    H139515   0.663   6.479   7.198  1.3299  1.2653  1.4428
 5960TIP3    H239516   0.768   6.475   7.306  0.4591 -1.2940  2.2681
 5961TIP3   OH239517   4.878   1.192   7.417 -0.1078 -0.5007 -0.0772
 5961TIP3    H139518   4.908   1.137   7.489  0.9771 -0.5961 -0.5942
 5961TIP3    H239519   4.842   1.130   7.353  1.3921 -0.6571 -0.7940
 5962TIP3   OH239520   3.357   4.218   2.293 -0.6943 -0.3365  0.4282
 5962TIP3    H139521   3.358   4.275   2.217 -3.5910  1.2246  1.3802
 5962TIP3    H239522   3.424   4.253   2.351 -0.8509  0.6874  0.0092
 5963TIP3   OH239523   1.816   5.542   1.927 -0.3283  0.0540 -0.3987
 5963TIP3    H139524   1.908   5.539   1.900 -0.2394 -1.1685 -0.0338
 5963TIP3    H239525   1.787   5.451   1.922 -0.7938  0.0117  1.8857
 5964TIP3   OH239526   4.143   4.746   1.438 -0.6850 -0.6623  0.0688
 5964TIP3    H139527   4.145   4.841   1.441  1.5363 -0.6706  0.5265
 5964TIP3    H239528   4.122   4.726   1.346 -0.4243  0.2672 -0.2037
 5965TIP3   OH239529   5.293   4.652   2.413 -1.0052  0.2858 -0.0450
 5965TIP3    H139530   5.278   4.710   2.488  1.3465  0.6537  0.1926
 5965TIP3    H239531   5.357   4.698   2.360 -4.2993  1.2023 -3.6855
 5966TIP3   OH239532   5.846   2.759   1.278 -0.3497  0.2155  0.1650
 5966TIP3    H139533   5.885   2.693   1.220  0.5378 -1.2361  2.3028
 5966TIP3    H239534   5.870   2.842   1.238 -1.0718 -0.6749 -2.3596
 5967TIP3   OH239535   2.590   4.241   8.241 -0.4137 -0.0533  0.2814
 5967TIP3    H139536   2.673   4.245   8.194  0.9464 -2.0294  2.2793
 5967TIP3    H239537   2.533   4.187   8.186  0.4596 -0.7097  0.0077
 5968TIP3   OH239538   2.970   0.521   7.072 -0.7481 -0.6221 -0.5556
 5968TIP3    H139539   2.895   0.561   7.028 -1.4970 -1.3379  0.0512
 5968TIP3    H239540   2.937   0.437   7.106  0.2876 -0.8957 -0.1749
 5969TIP3   OH239541   1.592   3.171   7.394 -0.2998 -0.2769 -0.4031
 5969TIP3    H139542   1.668   3.207   7.348 -0.0749 -1.0095 -0.6206
 5969TIP3    H239543   1.531   3.244   7.400 -0.2579 -0.1133 -1.6939
 5970TIP3   OH239544   5.180   4.383   1.135  0.2389  0.1425 -0.0488
 5970TIP3    H139545   5.125   4.363   1.211 -1.5430  0.7191 -1.1243
 5970TIP3    H239546   5.229   4.461   1.161  0.8068 -0.5446  1.0319
 5971TIP3   OH239547   0.225   3.828   6.403 -0.3494  0.0245 -0.1422
 5971TIP3    H139548   0.210   3.879   6.483  0.0705  0.9090 -0.6083
 5971TIP3    H239549   0.259   3.744   6.433  2.0636  1.1551  0.5551
 5972TIP3   OH239550   0.270   1.461   1.659  0.4739 -0.0009  0.7481
 5972TIP3    H139551   0.207   1.498   1.722 -0.8696  0.2306 -0.6616
 5972TIP3    H239552   0.232   1.377   1.634  1.5650 -0.6044  1.0532
 5973TIP3   OH239553   4.474   3.075   7.901  0.6142 -0.3342  0.1281
 5973TIP3    H139554   4.565   3.062   7.872  1.0777  1.0676  0.8556
 5973TIP3    H239555   4.431   3.117   7.827  1.1254  0.9144  0.5214
 5974TIP3   OH239556   2.199   0.177   0.166 -0.1472  0.2177 -0.2360
 5974TIP3    H139557   2.226   0.266   0.143  0.0684  0.3616  0.5294
 5974TIP3    H239558   2.281   0.133   0.189 -0.4368  0.3336  1.0614
 5975TIP3   OH239559   6.113   0.214   7.923  0.5470  0.2243 -0.2780
 5975TIP3    H139560   6.057   0.286   7.896  0.2834  0.4248  0.7375
 5975TIP3    H239561   6.064   0.171   7.993  0.0126 -1.8648 -1.8329
 5976TIP3   OH239562   6.636   0.056   7.879 -0.1662 -0.5416  0.3186
 5976TIP3    H139563   6.716   0.067   7.828 -0.2078 -0.7932  0.1966
 5976TIP3    H239564   6.659   0.087   7.967 -0.3029  0.5594 -0.0308
 5977TIP3   OH239565   0.659   6.288   1.218  0.0892  0.1077 -0.3329
 5977TIP3    H139566   0.584   6.285   1.158 -0.5333 -0.8031  0.4771
 5977TIP3    H239567   0.634   6.352   1.284 -0.5241 -1.0937  0.6301
 5978TIP3   OH239568   3.014   5.175   1.272  0.6551  0.0575  0.5900
 5978TIP3    H139569   2.919   5.172   1.256  0.7623  0.6636 -0.2365
 5978TIP3    H239570   3.023   5.223   1.354  0.3524  2.7518 -0.8431
 5979TIP3   OH239571   3.265   2.207   7.533  0.0219  0.2807  0.1244
 5979TIP3    H139572   3.278   2.300   7.513  0.4528  0.0782 -0.5641
 5979TIP3    H239573   3.246   2.205   7.627 -1.3197  1.1893 -0.0928
 5980TIP3   OH239574   6.511   4.717   1.310 -0.3261  0.1993  0.0367
 5980TIP3    H139575   6.554   4.654   1.368  1.2266 -1.3091 -2.5429
 5980TIP3    H239576   6.562   4.798   1.321  0.9357 -0.5204 -0.3171
 5981TIP3   OH239577   5.451   3.781   8.671  0.1909  0.4329  0.1577
 5981TIP3    H139578   5.530   3.821   8.633 -1.3058  1.9606 -1.5648
 5981TIP3    H239579   5.426   3.714   8.607 -2.9411  3.7126 -2.5500
 5982TIP3   OH239580   2.654   0.391   6.880  0.4964  0.5668  0.0497
 5982TIP3    H139581   2.707   0.311   6.872  1.3158  1.0658  0.3478
 5982TIP3    H239582   2.630   0.412   6.790 -1.6688 -1.2577  0.1171
 5983TIP3   OH239583   2.513   3.211   7.177  0.5325 -0.4192 -0.4416
 5983TIP3    H139584   2.496   3.303   7.158 -0.6994 -0.7854 -1.2055
 5983TIP3    H239585   2.459   3.193   7.254  2.9687  0.1960  1.5482
 5984TIP3   OH239586   6.330   0.729   6.982  0.0952  0.2280  0.0350
 5984TIP3    H139587   6.244   0.768   7.000  0.6435  0.6530  1.9503
 5984TIP3    H239588   6.312   0.637   6.966 -0.5991 -0.0310  2.0756
 5985TIP3   OH239589   0.839   3.126   1.100 -0.1858 -0.2501  0.3679
 5985TIP3    H139590   0.747   3.098   1.103  0.0372 -1.1036 -0.1961
 5985TIP3    H239591   0.836   3.221   1.106 -1.2608 -0.0919 -1.7857
 5986TIP3   OH239592   4.530   5.270   0.399 -0.0658  0.2689 -0.1366
 5986TIP3    H139593   4.510   5.316   0.318 -2.0666  0.0215  0.1794
 5986TIP3    H239594   4.570   5.188   0.371 -0.5390  0.2835 -0.8682
 5987TIP3   OH239595   1.448   4.481   0.043  0.0471  0.3784 -0.6603
 5987TIP3    H139596   1.368   4.434   0.017  1.5079 -2.6039 -0.1839
 5987TIP3    H239597   1.493   4.497  -0.040 -1.1608  2.5240 -0.9848
 5988TIP3   OH239598   1.630   0.049   0.973 -0.3999  0.2764 -0.1867
 5988TIP3    H139599   1.718   0.087   0.973 -1.1418  2.0487  0.6051
 5988TIP3    H239600   1.601   0.058   0.882 -0.1907  0.6721 -0.2159
 5989TIP3   OH239601   4.800   2.945   8.162 -0.4016  0.1028 -0.1992
 5989TIP3    H139602   4.869   2.971   8.101 -0.4506 -0.1823 -0.3796
 5989TIP3    H239603   4.763   3.028   8.193 -1.3163  0.2690 -1.6277
 5990TIP3   OH239604   1.726   0.747   8.728  1.3421  0.1342 -0.2024
 5990TIP3    H139605   1.667   0.673   8.742  0.4131  0.8435 -0.2266
 5990TIP3    H239606   1.738   0.751   8.633  0.5338  0.6441 -0.2926
 5991TIP3   OH239607   1.147   2.865   8.596 -0.2354 -0.4112 -0.5972
 5991TIP3    H139608   1.064   2.885   8.638 -0.0038 -2.6058  1.1072
 5991TIP3    H239609   1.125   2.803   8.527  0.1406 -2.9347  1.4312
 5992TIP3   OH239610   1.602   3.994   6.492 -0.2385 -0.0650 -0.1425
 5992TIP3    H139611   1.583   3.936   6.418 -2.0259  1.6170 -1.0671
 5992TIP3    H239612   1.610   4.081   6.453 -0.2140  0.7170  1.5307
 5993TIP3   OH239613   6.247   5.409   0.925  0.1599  0.1663  0.2633
 5993TIP3    H139614   6.312   5.376   0.986  0.7317  0.5840 -0.1073
 5993TIP3    H239615   6.210   5.486   0.969  0.6386  0.5233  0.0601
 5994TIP3   OH239616   0.138   2.015   0.991 -0.5314 -0.0907 -0.5305
 5994TIP3    H139617   0.196   2.057   0.928 -0.2620 -0.0567 -0.2630
 5994TIP3    H239618   0.082   2.085   1.024  1.6760  0.6984  1.9185
 5995TIP3   OH239619   2.150   5.203   1.569 -0.3524 -0.5148  0.0020
 5995TIP3    H139620   2.086   5.204   1.497 -1.5648  0.3474  1.0355
 5995TIP3    H239621   2.199   5.284   1.559 -0.7773 -0.2117  0.3608
 5996TIP3   OH239622   1.859   2.632   6.422  0.3851  0.0003  0.6501
 5996TIP3    H139623   1.931   2.572   6.401  1.2871 -0.2013  3.7617
 5996TIP3    H239624   1.839   2.677   6.340  2.2342 -1.8614 -0.9126
 5997TIP3   OH239625   0.209   0.076   7.121  0.5645  0.7236 -0.4796
 5997TIP3    H139626   0.298   0.067   7.089  0.6032 -0.9328 -0.0281
 5997TIP3    H239627   0.209   0.030   7.205 -0.7260  0.5825 -0.5351
 5998TIP3   OH239628   4.514   3.807   2.182 -0.1001 -0.0306 -0.1528
 5998TIP3    H139629   4.469   3.723   2.180 -0.0438 -0.0577 -1.9041
 5998TIP3    H239630   4.471   3.855   2.253  0.3194 -1.7425  1.3273
 5999TIP3   OH239631   5.370   1.723   6.636 -0.3785  0.7699  0.0635
 5999TIP3    H139632   5.361   1.714   6.541 -0.5904  1.5548  0.0019
 5999TIP3    H239633   5.356   1.635   6.670  0.0754  0.4131 -0.6603
 6000TIP3   OH239634   5.138   6.160   0.809  0.4143 -0.4050  0.1642
 6000TIP3    H139635   5.198   6.085   0.811  0.5557 -0.3593 -1.2553
 6000TIP3    H239636   5.189   6.233   0.844  0.8958 -0.5644 -0.2006
 6001TIP3   OH239637   2.487   2.931   7.972  0.0038  0.3748 -0.4988
 6001TIP3    H139638   2.501   3.022   7.945 -0.5033  1.2175  1.8546
 6001TIP3    H239639   2.486   2.934   8.068 -0.6535 -2.0343 -0.3621
 6002TIP3   OH239640   1.176   6.107   7.785 -0.0421  0.0816 -0.2409
 6002TIP3    H139641   1.198   6.163   7.710 -2.2985 -1.2322 -2.0430
 6002TIP3    H239642   1.238   6.035   7.780  0.6742  0.6722 -0.0120
 6003TIP3   OH239643   5.770   6.577   7.347 -0.3889  0.2507 -0.4279
 6003TIP3    H139644   5.795   6.618   7.264  1.0102  2.0429  0.7981
 6003TIP3    H239645   5.674   6.584   7.349 -0.3565  1.2402 -1.3821
 6004TIP3   OH239646   0.877   5.672   8.776 -0.5764 -0.1879 -0.6423
 6004TIP3    H139647   0.887   5.766   8.764 -1.0673  0.2479  1.9382
 6004TIP3    H239648   0.790   5.652   8.741 -0.5211  0.3226 -1.0745
 6005TIP3   OH239649   6.131   0.262   2.366 -1.0651 -0.5107  0.5033
 6005TIP3    H139650   6.060   0.322   2.390 -0.0084  1.2374 -0.5057
 6005TIP3    H239651   6.117   0.245   2.273  0.4728  0.8383 -0.0152
 6006TIP3   OH239652   1.038   1.584   6.198  0.2976 -0.6230  0.0288
 6006TIP3    H139653   1.124   1.557   6.230 -0.0974 -2.2003 -0.1367
 6006TIP3    H239654   0.987   1.503   6.198 -1.2108  0.2934  0.1864
 6007TIP3   OH239655   6.387   6.004   7.904 -0.6498  0.1262  0.3515
 6007TIP3    H139656   6.465   6.056   7.925  0.3589 -1.9909  2.3431
 6007TIP3    H239657   6.316   6.045   7.953 -0.1358  0.3852  0.8909
 6008TIP3   OH239658   1.444   5.979   0.225  0.2408 -0.0246 -0.1952
 6008TIP3    H139659   1.499   5.906   0.198 -0.3365 -0.4286 -0.3040
 6008TIP3    H239660   1.362   5.966   0.177  0.4446  1.1884 -0.9025
 6009TIP3   OH239661   1.414   0.103   1.785 -0.5553  0.3060  0.1413
 6009TIP3    H139662   1.503   0.138   1.775 -0.4433 -0.0471 -0.1018
 6009TIP3    H239663   1.363   0.147   1.718 -0.0110 -1.3540 -1.4496
 6010TIP3   OH239664   5.984   0.061   6.981  0.2366 -0.5262 -0.2090
 6010TIP3    H139665   5.903   0.110   6.968 -0.1121 -1.0775 -0.1503
 6010TIP3    H239666   6.007   0.076   7.073 -0.1151 -0.8393 -0.0683
 6011TIP3   OH239667   3.546   5.745   1.428 -0.1885  0.2875 -0.4456
 6011TIP3    H139668   3.492   5.772   1.502  0.4545  0.3731 -0.0018
 6011TIP3    H239669   3.635   5.743   1.462 -0.3109 -5.4880  0.5979
 6012TIP3   OH239670   6.562   2.889   1.009 -0.0605  0.3154 -0.0483
 6012TIP3    H139671   6.523   2.862   0.926 -0.5625 -0.1478  0.3308
 6012TIP3    H239672   6.654   2.862   1.003 -0.2397 -0.2709 -0.2106
 6013TIP3   OH239673   6.662   2.700   0.094  0.6396 -0.0907 -0.1088
 6013TIP3    H139674   6.624   2.641   0.029 -0.4113  0.5430 -0.1018
 6013TIP3    H239675   6.708   2.643   0.155  1.2463 -0.7351 -1.1396
 6014TIP3   OH239676   1.476   1.191   8.321  0.4424 -0.0311  0.4804
 6014TIP3    H139677   1.473   1.114   8.378  1.1649 -1.2334 -1.0152
 6014TIP3    H239678   1.389   1.228   8.327 -0.6098 -2.1862 -0.3016
 6015TIP3   OH239679   4.039   3.610   0.251 -0.7051 -0.0120 -0.2865
 6015TIP3    H139680   4.103   3.608   0.322  0.0730 -1.2706 -0.9930
 6015TIP3    H239681   4.083   3.566   0.178 -2.4457 -1.1163 -0.7213
 6016TIP3   OH239682   1.093   3.182   0.909  0.5490 -0.7417  0.1731
 6016TIP3    H139683   1.092   3.198   0.815  0.7436 -0.7410  0.1707
 6016TIP3    H239684   1.043   3.101   0.921 -0.1154 -0.3454  0.1472
 6017TIP3   OH239685   4.441   4.730   7.319  0.2163 -0.2309 -0.1465
 6017TIP3    H139686   4.524   4.776   7.320 -0.1998  0.5635  1.5056
 6017TIP3    H239687   4.375   4.798   7.333 -0.5504 -1.0657  0.4611
 6018TIP3   OH239688   2.041   5.678   7.604 -0.0467  0.1929 -0.4356
 6018TIP3    H139689   2.109   5.660   7.669  0.4203  2.1949 -0.3051
 6018TIP3    H239690   2.079   5.746   7.548 -1.4387  0.3699 -1.2011
 6019TIP3   OH239691   6.570   1.857   0.349  0.0911 -0.6826 -0.0299
 6019TIP3    H139692   6.488   1.808   0.338  2.0993 -4.0906 -1.3321
 6019TIP3    H239693   6.590   1.891   0.262 -0.6713  1.7045  0.6290
 6020TIP3   OH239694   3.730   6.243   1.526  0.5983  0.2208  0.6692
 6020TIP3    H139695   3.804   6.267   1.470  0.6306 -2.0564 -0.3864
 6020TIP3    H239696   3.735   6.148   1.533 -1.2137  0.1665  2.0555
 6021TIP3   OH239697   3.311   2.821   1.577  0.2638 -0.6299 -0.2105
 6021TIP3    H139698   3.243   2.754   1.573 -1.3158  0.7479  1.2711
 6021TIP3    H239699   3.269   2.899   1.541  1.5532 -0.0836 -0.5660
 6022TIP3   OH239700   3.936   2.582   1.028 -0.8528  0.1715 -0.0021
 6022TIP3    H139701   3.866   2.641   0.999 -1.7275  0.4589  2.4631
 6022TIP3    H239702   3.893   2.497   1.039 -0.3099 -0.1744 -0.4742
 6023TIP3   OH239703   3.912   0.342   1.688 -0.4595 -0.1803  0.5359
 6023TIP3    H139704   3.865   0.421   1.717 -1.4891 -0.9617  1.0639
 6023TIP3    H239705   3.849   0.271   1.701 -0.2868 -0.8297 -1.8625
 6024TIP3   OH239706   3.485   3.455   7.938  0.4044  0.0965 -0.1601
 6024TIP3    H139707   3.406   3.421   7.895 -0.2341  0.4560  0.7013
 6024TIP3    H239708   3.452   3.511   8.008  1.4032 -1.0136  1.2677
 6025TIP3   OH239709   5.850   3.886   1.706  0.2926  0.1098 -0.2293
 6025TIP3    H139710   5.846   3.812   1.645 -2.0295  0.8821 -1.1204
 6025TIP3    H239711   5.942   3.910   1.708  0.4793  0.1054 -3.5532
 6026TIP3   OH239712   2.080   4.943   7.292  0.1570  1.0243  0.2250
 6026TIP3    H139713   2.136   4.871   7.321  1.5063  0.8334 -2.5714
 6026TIP3    H239714   1.991   4.906   7.291  0.7790 -0.5257 -0.7973
 6027TIP3   OH239715   2.752   6.671   8.589 -0.2874 -0.5774  0.3046
 6027TIP3    H139716   2.689   6.743   8.601  1.1474  0.8077 -0.1082
 6027TIP3    H239717   2.837   6.714   8.584  0.7429 -2.4122  0.9925
 6028TIP3   OH239718   0.808   0.156   2.077  0.0810  0.5367 -0.3304
 6028TIP3    H139719   0.783   0.075   2.032  2.1787 -0.2504 -0.2338
 6028TIP3    H239720   0.755   0.158   2.156 -0.9805 -0.0229 -1.0137
 6029TIP3   OH239721   1.552   2.214   0.022 -0.2724 -0.4540  0.2829
 6029TIP3    H139722   1.629   2.162   0.044 -0.5263 -1.1217 -0.3382
 6029TIP3    H239723   1.587   2.291  -0.022  0.1275  0.0694  1.4821
 6030TIP3   OH239724   0.634   3.879   0.721  0.0045  0.7831 -0.0339
 6030TIP3    H139725   0.582   3.944   0.767 -0.5639  0.4173 -0.1488
 6030TIP3    H239726   0.688   3.838   0.789 -2.1081 -0.9918  0.6704
 6031TIP3   OH239727   0.336   2.177   7.249 -0.3996 -0.5616  0.3595
 6031TIP3    H139728   0.351   2.105   7.310  0.5850  0.5166  1.4440
 6031TIP3    H239729   0.242   2.194   7.255 -0.5400 -1.3503  0.5406
 6032TIP3   OH239730   0.915   0.526   2.484 -0.0734 -0.1462  0.3056
 6032TIP3    H139731   0.967   0.593   2.528  0.5693 -0.6790  0.3675
 6032TIP3    H239732   0.876   0.475   2.555 -0.3377 -0.0161  0.2565
 6033TIP3   OH239733   5.551   5.288   0.309 -0.1441 -0.0819 -0.1580
 6033TIP3    H139734   5.559   5.295   0.405  0.4287 -0.7193 -0.1571
 6033TIP3    H239735   5.471   5.336   0.289 -0.7855 -0.7427  0.7463
 6034TIP3   OH239736   5.801   3.237   1.511  0.6831 -0.3915 -0.6876
 6034TIP3    H139737   5.792   3.181   1.588  1.2045 -0.0658 -0.3797
 6034TIP3    H239738   5.729   3.211   1.454  0.3406 -0.6994 -0.1297
 6035TIP3   OH239739   3.684   2.423   6.984 -0.0143 -0.5457 -0.0752
 6035TIP3    H139740   3.654   2.418   7.075 -0.1315  0.1468 -0.0697
 6035TIP3    H239741   3.720   2.336   6.965 -1.3643 -1.1757  0.1546
 6036TIP3   OH239742   3.907   6.442   1.699 -0.1986 -0.8726 -0.2335
 6036TIP3    H139743   3.960   6.438   1.619  0.1220 -1.0015 -0.0206
 6036TIP3    H239744   3.817   6.429   1.669 -0.1386 -0.3827 -0.6312
 6037TIP3   OH239745   1.896   1.579   8.431 -0.5074  0.6670 -0.0461
 6037TIP3    H139746   1.870   1.493   8.464 -0.2233  0.4435 -0.3945
 6037TIP3    H239747   1.832   1.599   8.362 -1.5366  1.4566  1.1046
 6038TIP3   OH239748   0.687   2.806   1.087  0.4406  0.0119 -0.1923
 6038TIP3    H139749   0.681   2.711   1.073  2.6510  0.0343 -1.7566
 6038TIP3    H239750   0.668   2.844   1.002 -0.2111  0.9974  0.3708
 6039TIP3   OH239751   2.158   1.398   0.347 -0.0501 -0.0568 -0.5447
 6039TIP3    H139752   2.206   1.321   0.317 -0.6973 -0.0879 -1.5563
 6039TIP3    H239753   2.088   1.362   0.402  1.1812  0.0051  1.1158
 6040TIP3   OH239754   2.408   0.955   8.103  0.5635  0.0322  0.0755
 6040TIP3    H139755   2.497   0.928   8.128  0.1984 -2.0930 -0.7057
 6040TIP3    H239756   2.378   1.010   8.175  2.8417  1.6306 -0.0911
 6041TIP3   OH239757   2.878   6.776   7.206  0.1263  0.1071 -0.1126
 6041TIP3    H139758   2.801   6.749   7.155  0.4668 -0.0992 -0.5328
 6041TIP3    H239759   2.935   6.818   7.142 -0.1184  1.2758  0.4190
 6042TIP3   OH239760   5.379   0.992   1.440  0.1232 -0.2022  0.4701
 6042TIP3    H139761   5.365   0.972   1.347  2.2100 -0.5475  0.1651
 6042TIP3    H239762   5.298   0.967   1.483 -0.1952 -1.9048 -0.9993
 6043TIP3   OH239763   6.251   5.554   8.815  0.1501 -0.3878 -0.4045
 6043TIP3    H139764   6.227   5.643   8.790  1.7600  0.1243 -0.2319
 6043TIP3    H239765   6.346   5.552   8.807  0.1140 -2.2087 -0.7458
 6044TIP3   OH239766   3.327   2.444   1.738  0.3771  0.4774  0.5588
 6044TIP3    H139767   3.293   2.469   1.652 -0.3321  0.2032  0.7521
 6044TIP3    H239768   3.260   2.386   1.774  0.2651  1.2616  1.6511
 6045TIP3   OH239769   3.315   3.344   8.749  0.1234 -0.4771  0.0327
 6045TIP3    H139770   3.278   3.355   8.836 -0.4705 -1.8935 -0.0148
 6045TIP3    H239771   3.275   3.264   8.716  0.9603 -0.4031 -1.2220
 6046TIP3   OH239772   1.825   1.894   0.707 -0.7851  0.3461  0.2383
 6046TIP3    H139773   1.735   1.876   0.734 -1.1426 -0.9993 -1.6012
 6046TIP3    H239774   1.848   1.819   0.652  1.9447  0.0225  1.6713
 6047TIP3   OH239775   2.786   3.361   7.164  0.3818 -0.6621 -0.0462
 6047TIP3    H139776   2.863   3.415   7.147 -0.3096  0.1042 -0.8131
 6047TIP3    H239777   2.764   3.323   7.080  0.0677 -1.0898  0.2238
 6048TIP3   OH239778   5.031   0.674   1.957 -0.2368 -0.6677 -0.2183
 6048TIP3    H139779   4.987   0.608   2.010 -0.6835 -0.6015 -0.5001
 6048TIP3    H239780   5.118   0.681   1.995 -1.1421  0.8215  1.8158
 6049TIP3   OH239781   2.474   1.347   8.783  0.2416  0.7154 -0.5035
 6049TIP3    H139782   2.433   1.425   8.820  1.7141  0.7380  1.2133
 6049TIP3    H239783   2.454   1.352   8.690 -3.1382  0.9717  0.0968
 6050TIP3   OH239784   5.371   4.395   0.710 -0.6694  0.4932 -0.1161
 6050TIP3    H139785   5.313   4.338   0.760 -0.9897  0.6340 -0.3207
 6050TIP3    H239786   5.357   4.370   0.619 -0.3735  0.4974 -0.1636
 6051TIP3   OH239787   4.665   2.755   8.523 -0.2080 -0.0593 -0.2749
 6051TIP3    H139788   4.603   2.825   8.500 -1.0086 -0.7504 -0.2715
 6051TIP3    H239789   4.725   2.751   8.449  0.2977  1.1166  0.0467
 6052TIP3   OH239790   1.837   3.728   8.011 -0.7421  0.2725 -0.3528
 6052TIP3    H139791   1.850   3.663   7.941 -1.8316  0.5182 -0.8054
 6052TIP3    H239792   1.924   3.765   8.026 -0.2842 -0.6018 -0.7730
 6053TIP3   OH239793   6.336   0.127   0.257 -1.0784  0.0691  0.2390
 6053TIP3    H139794   6.412   0.072   0.275 -0.6477  0.2450 -0.9685
 6053TIP3    H239795   6.366   0.216   0.277 -1.1772  0.0699  0.3855
 6054TIP3   OH239796   1.155   2.830   1.807  0.5060  0.4206 -0.2063
 6054TIP3    H139797   1.236   2.880   1.813  2.4217 -2.1180 -2.2444
 6054TIP3    H239798   1.152   2.780   1.888  0.1148  1.6455  0.5559
 6055TIP3   OH239799   5.921   2.180   0.395  0.0705  0.2894  0.0033
 6055TIP3    H139800   5.926   2.090   0.427 -1.9677 -0.4218 -1.4982
 6055TIP3    H239801   5.891   2.172   0.305 -0.1892  2.4959 -0.1591
 6056TIP3   OH239802   5.480   4.582   7.841  0.1027 -0.0042  0.1675
 6056TIP3    H139803   5.486   4.600   7.747  0.8379  2.2283  0.5853
 6056TIP3    H239804   5.401   4.630   7.869 -0.5994 -1.3575  0.5607
 6057TIP3   OH239805   2.454   4.393   1.713 -0.2059  0.3686  0.1168
 6057TIP3    H139806   2.487   4.354   1.794 -1.6240 -0.8083  0.1686
 6057TIP3    H239807   2.376   4.342   1.691  1.2935 -0.8379 -3.1912
 6058TIP3   OH239808   5.435   5.475   1.011 -0.1002  0.3008  0.1056
 6058TIP3    H139809   5.394   5.548   0.965 -0.3753 -0.8353 -1.5625
 6058TIP3    H239810   5.388   5.398   0.980  1.4163 -0.7656  0.3395
 6059TIP3   OH239811   0.522   6.326   2.022 -0.1578  0.2163 -0.3930
 6059TIP3    H139812   0.443   6.329   1.968 -1.1085 -2.5119  0.6958
 6059TIP3    H239813   0.492   6.354   2.109 -0.4690 -2.6004  0.4912
 6060TIP3   OH239814   0.098   0.609   2.668  0.3170  0.0879 -0.0104
 6060TIP3    H139815   0.032   0.669   2.634  0.4047 -1.7139 -3.8794
 6060TIP3    H239816   0.047   0.536   2.704  0.1555 -0.3965 -1.1867
 6061TIP3   OH239817   5.264   4.969   6.350  0.3253 -0.1919  0.0318
 6061TIP3    H139818   5.244   4.878   6.329  0.7677 -0.2533 -0.1143
 6061TIP3    H239819   5.178   5.012   6.353  0.2234 -0.1844 -1.8481
 6062TIP3   OH239820   1.600   2.488   8.752  0.5651 -0.1742 -0.3978
 6062TIP3    H139821   1.541   2.562   8.741  0.7671 -0.0878 -0.9361
 6062TIP3    H239822   1.688   2.527   8.751  0.6294 -0.1893  1.2540
 6063TIP3   OH239823   0.373   2.305   1.556 -1.2012 -0.7144  0.5221
 6063TIP3    H139824   0.454   2.295   1.606 -1.9101 -0.7192  1.7021
 6063TIP3    H239825   0.320   2.366   1.608 -1.8899 -0.5823 -0.3140
 6064TIP3   OH239826   6.265   2.836   8.124  0.2415 -0.0979  0.0691
 6064TIP3    H139827   6.273   2.929   8.142  0.0384 -0.2063  0.7521
 6064TIP3    H239828   6.349   2.812   8.084 -0.1264  0.5968 -1.1765
 6065TIP3   OH239829   6.285   2.632   8.436  0.3187  0.2895  0.0938
 6065TIP3    H139830   6.312   2.649   8.526  0.6044  0.4753 -0.0260
 6065TIP3    H239831   6.199   2.675   8.428  1.1728  1.9981 -0.2962
 6066TIP3   OH239832   4.391   3.928   6.818  0.0861  0.1288 -0.0653
 6066TIP3    H139833   4.436   3.855   6.777  0.1686 -0.0664  0.3738
 6066TIP3    H239834   4.360   3.982   6.744  0.9861  0.2399 -0.3715
 6067TIP3   OH239835   0.817   3.049   7.063 -0.3214 -0.7190 -1.2492
 6067TIP3    H139836   0.863   2.998   6.997 -0.9882 -0.7878 -1.6586
 6067TIP3    H239837   0.861   3.135   7.061  0.1222 -0.9416 -1.2723
 6068TIP3   OH239838   2.024   1.064   7.665  0.0614  0.1440 -0.3519
 6068TIP3    H139839   2.027   1.155   7.635 -1.0609  0.3567  0.1185
 6068TIP3    H239840   2.094   1.057   7.730  0.0471  0.7228 -0.2697
 6069TIP3   OH239841   1.509   0.088   1.334  0.1886  0.3073  0.0461
 6069TIP3    H139842   1.485   0.131   1.252 -0.5949 -0.2332 -0.0165
 6069TIP3    H239843   1.575   0.023   1.308 -0.8193 -0.5936 -0.3440
 6070TIP3   OH239844   6.111   2.634   0.800  0.3028 -0.5412  0.0312
 6070TIP3    H139845   6.186   2.607   0.747 -0.2368  0.0419 -1.0520
 6070TIP3    H239846   6.060   2.554   0.812  0.6950 -0.7822  0.1287
 6071TIP3   OH239847   0.828   4.179   8.740 -0.4975 -0.0086  0.1948
 6071TIP3    H139848   0.829   4.275   8.740  0.7823  0.0030 -0.7543
 6071TIP3    H239849   0.917   4.154   8.765 -0.2690 -0.8990 -1.3527
 6072TIP3   OH239850   2.668   0.318   0.179  0.9427  0.0547  0.1273
 6072TIP3    H139851   2.641   0.253   0.245  1.8125 -0.0581  0.3822
 6072TIP3    H239852   2.727   0.377   0.226 -0.7604  1.7974  0.2308
 6073TIP3   OH239853   3.006   0.507   7.704 -0.2329  0.5320 -0.1165
 6073TIP3    H139854   2.919   0.489   7.741 -0.9564  0.3526 -1.7982
 6073TIP3    H239855   3.004   0.465   7.618  1.4167  0.8030 -0.3058
 6074TIP3   OH239856   0.114   6.854   1.826 -0.0987  0.3026 -0.0687
 6074TIP3    H139857   0.069   6.933   1.798 -0.1778  0.5490  0.7323
 6074TIP3    H239858   0.044   6.790   1.840 -0.1417  0.4554  0.4361
 6075TIP3   OH239859   5.810   0.814   7.964  0.4211  0.3851  0.0407
 6075TIP3    H139860   5.839   0.724   7.983  0.2955 -0.0331 -1.5870
 6075TIP3    H239861   5.720   0.804   7.935  0.8218  0.8610 -1.4320
 6076TIP3   OH239862   0.221   1.489   1.066  0.3384  0.0926 -0.2141
 6076TIP3    H139863   0.169   1.502   1.146  0.4445  1.5971 -0.3749
 6076TIP3    H239864   0.208   1.569   1.015  2.2591  0.2171 -0.5858
 6077TIP3   OH239865   3.301   1.875   0.112  0.5375 -0.0697  0.3740
 6077TIP3    H139866   3.307   1.809   0.043  3.1947 -0.1627  0.6031
 6077TIP3    H239867   3.375   1.856   0.170  0.0098  1.7097  1.7067
 6078TIP3   OH239868   6.080   4.315   2.023 -0.0123  0.0405 -0.1352
 6078TIP3    H139869   6.102   4.358   2.106  0.7735 -0.4200 -0.1058
 6078TIP3    H239870   6.074   4.222   2.045 -2.9529  0.1569  0.0791
 6079TIP3   OH239871   3.254   2.162   1.192 -0.1019  0.2560  0.2200
 6079TIP3    H139872   3.265   2.068   1.180 -1.9786 -0.0426  0.6082
 6079TIP3    H239873   3.233   2.173   1.285 -0.2331  1.0266  0.1104
 6080TIP3   OH239874   5.899   6.344   0.899  0.1917 -0.3836 -0.2567
 6080TIP3    H139875   5.866   6.398   0.970 -0.7782 -1.4544  0.1467
 6080TIP3    H239876   5.848   6.371   0.822 -1.8236 -2.0874  0.3795
 6081TIP3   OH239877   3.026   6.239   1.031  0.5203  0.2583  0.0729
 6081TIP3    H139878   3.083   6.206   0.962 -0.6399  0.3789 -0.9820
 6081TIP3    H239879   3.074   6.312   1.070  1.0068  0.4635 -0.8959
 6082TIP3   OH239880   6.740   6.568   0.420  0.3861  0.3801  0.1407
 6082TIP3    H139881   6.797   6.596   0.349  0.7046  0.4533  0.4250
 6082TIP3    H239882   6.676   6.510   0.378 -0.6020  1.9197 -0.5418
 6083TIP3   OH239883   6.783   3.473   0.888  0.2082 -0.1473  0.0925
 6083TIP3    H139884   6.796   3.543   0.824  0.8821 -0.8179 -0.5304
 6083TIP3    H239885   6.791   3.517   0.973  2.2404  0.2869 -0.2682
 6084TIP3   OH239886   0.407   0.642   1.644 -0.0489 -0.0791  0.0715
 6084TIP3    H139887   0.487   0.644   1.697 -0.0774 -1.5722  0.2070
 6084TIP3    H239888   0.437   0.626   1.555 -0.1663 -0.3399  0.0762
 6085TIP3   OH239889   3.498   3.721   1.346 -0.4713  0.0435 -0.0858
 6085TIP3    H139890   3.450   3.664   1.285  1.8378  1.2803 -3.3337
 6085TIP3    H239891   3.461   3.808   1.331  0.3229  0.4097  0.0493
 6086TIP3   OH239892   3.751   6.038   2.204  0.1183 -0.7955  0.1215
 6086TIP3    H139893   3.773   6.031   2.111 -2.2580 -3.1825 -0.3545
 6086TIP3    H239894   3.836   6.046   2.248  1.2676  1.0805 -2.2355
 6087TIP3   OH239895   5.370   4.832   2.606 -0.1315  0.4142 -0.3611
 6087TIP3    H139896   5.364   4.913   2.656  0.4220 -0.1152  0.6010
 6087TIP3    H239897   5.452   4.840   2.558  0.9247 -0.3394  1.2107
 6088TIP3   OH239898   0.756   0.010   8.498 -0.3456 -0.4035  0.5090
 6088TIP3    H139899   0.846   0.040   8.496 -0.3588 -0.3250 -2.1081
 6088TIP3    H239900   0.756  -0.061   8.563  1.7641 -0.8814  0.0689
 6089TIP3   OH239901   6.217   5.232   8.397 -0.3648 -0.3595 -0.1864
 6089TIP3    H139902   6.174   5.214   8.314 -0.6653  0.9535 -0.3366
 6089TIP3    H239903   6.154   5.286   8.445  0.0123 -0.6875  0.6960
 6090TIP3   OH239904   5.258   4.332   7.109  0.3040 -0.1554  0.5686
 6090TIP3    H139905   5.183   4.389   7.127  0.3576 -0.2192  1.0130
 6090TIP3    H239906   5.330   4.392   7.090  0.1036 -0.0958 -0.0305
 6091TIP3   OH239907   1.672   4.547   0.184 -0.1808  0.3394  0.6802
 6091TIP3    H139908   1.662   4.622   0.125  0.5028 -0.5683 -0.6332
 6091TIP3    H239909   1.594   4.494   0.169 -0.6265  0.7259  1.5520
 6092TIP3   OH239910   4.173   2.325   8.806 -0.4957  0.0228 -0.5417
 6092TIP3    H139911   4.187   2.411   8.847 -0.6765  0.2949 -1.0370
 6092TIP3    H239912   4.131   2.272   8.874  2.0407 -0.5456  0.7046
 6093TIP3   OH239913   1.768   4.480   0.546 -0.3271 -0.0621  0.6016
 6093TIP3    H139914   1.795   4.465   0.637  1.1514  1.1157  0.3899
 6093TIP3    H239915   1.812   4.411   0.497  0.6934  0.6271  0.5202
 6094TIP3   OH239916   5.361   2.378   0.618  0.2756  0.2632  0.0568
 6094TIP3    H139917   5.438   2.342   0.661 -1.4789 -2.0477  1.4685
 6094TIP3    H239918   5.296   2.386   0.688 -1.2512  0.7679 -1.3554
 6095TIP3   OH239919   4.678   1.511   0.114 -0.2853  0.0903  0.3799
 6095TIP3    H139920   4.596   1.479   0.076  0.6429 -1.8721 -0.0856
 6095TIP3    H239921   4.702   1.586   0.059 -0.1446 -1.2800 -1.5128
 6096TIP3   OH239922   1.620   0.544   0.046 -0.0580  0.5109  0.1864
 6096TIP3    H139923   1.660   0.458   0.057  0.5996  0.8349  0.3409
 6096TIP3    H239924   1.588   0.567   0.133 -0.0423  0.5191  0.1900
 6097TIP3   OH239925   3.766   4.552   1.656  0.3020 -0.6165 -0.3850
 6097TIP3    H139926   3.686   4.603   1.664  0.4270 -0.1170 -1.9593
 6097TIP3    H239927   3.784   4.550   1.562  1.1958 -2.1866 -0.2169
 6098TIP3   OH239928   4.758   0.251   8.111 -0.5434  0.1354  0.6489
 6098TIP3    H139929   4.737   0.333   8.155 -1.9884 -0.3080  0.8530
 6098TIP3    H239930   4.674   0.219   8.078  0.0744 -0.9802  0.0694
 6099TIP3   OH239931   2.698   5.505   0.485 -0.0510  0.1345  0.1723
 6099TIP3    H139932   2.664   5.475   0.401 -0.1267 -0.2863  0.3467
 6099TIP3    H239933   2.620   5.518   0.539 -0.0148  0.6197  0.1071
 6100TIP3   OH239934   1.507   2.851   8.542 -0.2928  0.6977  0.1988
 6100TIP3    H139935   1.447   2.881   8.474 -1.3641  1.1685  1.3202
 6100TIP3    H239936   1.563   2.927   8.560 -0.6676  0.8968  0.5379
 6101TIP3   OH239937   0.247   0.791   7.983  0.2656 -0.7221  0.3090
 6101TIP3    H139938   0.183   0.743   7.931  1.2740 -1.6905 -0.0802
 6101TIP3    H239939   0.213   0.790   8.072 -0.8765 -0.1151 -0.1035
 6102TIP3   OH239940   3.654   1.740   0.915  0.0318  0.2584  0.2086
 6102TIP3    H139941   3.743   1.720   0.888 -0.1844 -1.4528  0.6425
 6102TIP3    H239942   3.600   1.722   0.838 -0.0583  0.1737  0.2905
 6103TIP3   OH239943   0.485   3.661   1.846  0.4502 -0.1346 -0.2664
 6103TIP3    H139944   0.498   3.613   1.927  2.6521 -0.3049 -0.6776
 6103TIP3    H239945   0.394   3.692   1.852  0.1162 -1.2832  1.6114
 6104TIP3   OH239946   4.463   4.361   0.816  0.0542 -0.2737 -0.1901
 6104TIP3    H139947   4.474   4.450   0.782  2.3887 -1.0077 -1.6157
 6104TIP3    H239948   4.516   4.359   0.896  1.7166 -0.8722 -1.2524
 6105TIP3   OH239949   5.091   6.015   8.344  0.5939  0.1263  0.0129
 6105TIP3    H139950   5.133   5.990   8.426 -0.0553 -0.5562  0.1498
 6105TIP3    H239951   5.056   6.103   8.361  1.6174  0.5461  0.0178
 6106TIP3   OH239952   3.106   6.255   1.527  0.0887  0.8415  0.6895
 6106TIP3    H139953   3.164   6.246   1.451 -1.8098  0.2691 -0.7859
 6106TIP3    H239954   3.074   6.345   1.523 -1.7884  0.2055 -0.6728
 6107TIP3   OH239955   3.033   1.928   2.083 -0.2254  0.2089 -0.4275
 6107TIP3    H139956   3.038   1.903   1.991  2.2781 -1.3418  0.0435
 6107TIP3    H239957   3.098   1.998   2.093 -1.5174  1.4166 -0.0757
 6108TIP3   OH239958   6.443   1.094   0.892 -0.3322  0.1046 -0.0279
 6108TIP3    H139959   6.405   1.007   0.887 -1.2208  0.5061 -0.6092
 6108TIP3    H239960   6.497   1.092   0.971 -0.4592 -0.9210  0.0479
 6109TIP3   OH239961   6.508   3.838   8.266  0.7296  0.7555 -0.0448
 6109TIP3    H139962   6.418   3.864   8.287  0.2704  3.0818 -3.9729
 6109TIP3    H239963   6.502   3.744   8.248 -0.7869  0.7585  0.2929
 6110TIP3   OH239964   3.004   1.746   7.005  0.1123  0.1354  0.0668
 6110TIP3    H139965   3.090   1.720   7.038 -0.0074 -1.1501 -0.5829
 6110TIP3    H239966   2.953   1.665   7.002 -1.1018  0.8625  0.3385
 6111TIP3   OH239967   1.024   4.056   7.858 -0.1426  0.2486  0.2358
 6111TIP3    H139968   1.035   4.125   7.793  3.2044 -0.1214  0.2518
 6111TIP3    H239969   1.053   4.096   7.940  1.0969 -0.9030  0.3870
 6112TIP3   OH239970   6.439   2.023   8.324 -0.0943 -0.6144 -0.4954
 6112TIP3    H139971   6.420   1.938   8.363  0.7302 -0.7463 -0.3618
 6112TIP3    H239972   6.394   2.022   8.240 -1.5093 -0.5129  0.2181
 6113TIP3   OH239973   4.188   1.125   8.125  0.1115  0.1154 -0.2993
 6113TIP3    H139974   4.237   1.206   8.141 -0.7129  0.3860  1.0526
 6113TIP3    H239975   4.247   1.055   8.152  0.1298  0.3865  0.3826
 6114TIP3   OH239976   2.128   3.645   1.821  0.1956  0.4583 -1.1967
 6114TIP3    H139977   2.115   3.730   1.862  0.3709 -0.5329  1.0914
 6114TIP3    H239978   2.043   3.601   1.831  1.0632 -0.8808  0.9178
 6115TIP3   OH239979   3.406   5.809   2.074 -0.2711 -0.6816  0.7763
 6115TIP3    H139980   3.320   5.840   2.044 -0.0348 -0.4597  0.3142
 6115TIP3    H239981   3.389   5.722   2.109 -1.0481  0.1426  2.5760
 6116TIP3   OH239982   6.504   5.449   0.285 -0.1448  0.7296  0.1009
 6116TIP3    H139983   6.460   5.532   0.303 -2.6971  0.3618 -3.4446
 6116TIP3    H239984   6.540   5.460   0.197  1.3703 -1.2369  0.4104
 6117TIP3   OH239985   2.100   5.077   6.979 -0.1559 -0.1027  0.2822
 6117TIP3    H139986   2.110   4.988   7.013  1.2635 -0.2290 -0.3876
 6117TIP3    H239987   2.142   5.133   7.044 -0.4374  0.0164  0.3646
 6118TIP3   OH239988   1.962   3.511   0.002  0.9417 -0.5824  0.6513
 6118TIP3    H139989   1.882   3.503  -0.049 -0.6832  0.6372  2.8441
 6118TIP3    H239990   2.013   3.434  -0.022 -0.9572 -1.5082 -0.6872
 6119TIP3   OH239991   4.074   5.271   0.383 -0.2356  0.1549  0.1841
 6119TIP3    H139992   4.122   5.268   0.300 -0.4040 -0.3444  0.0984
 6119TIP3    H239993   4.091   5.186   0.423  1.3116  1.0502  1.5104
 6120TIP3   OH239994   3.048   3.983   7.326 -0.3887 -0.9868  0.1663
 6120TIP3    H139995   2.953   3.979   7.336 -0.5626 -0.7044 -1.1645
 6120TIP3    H239996   3.074   4.061   7.374 -0.8887 -0.8327  0.1926
 6121TIP3   OH239997   6.138   1.669   1.276 -0.2669 -0.3806 -0.2377
 6121TIP3    H139998   6.226   1.681   1.240 -0.5663  0.6661 -0.6596
 6121TIP3    H239999   6.082   1.655   1.200 -0.2390 -2.9128  0.1157
 6122TIP3   OH240000   1.260   3.864   8.356  0.3836  0.2812 -0.5531
 6122TIP3    H140001   1.300   3.808   8.423 -1.2364 -0.7042 -0.3336
 6122TIP3    H240002   1.250   3.807   8.280  0.4651  0.8478 -0.9967
 6123TIP3   OH240003   0.766   5.321   0.503  0.1304  0.2656 -0.2269
 6123TIP3    H140004   0.704   5.274   0.558  0.0492 -1.2894 -1.5757
 6123TIP3    H240005   0.749   5.289   0.414  1.8598  0.9049 -0.8374
 6124TIP3   OH240006   4.217   0.204   2.159  0.4393  0.4160  0.0190
 6124TIP3    H140007   4.163   0.232   2.085  2.9124  0.3164 -1.9472
 6124TIP3    H240008   4.242   0.114   2.138  2.8382  1.0460 -0.1453
 6125TIP3   OH240009   2.499   0.856   7.641 -0.1187  0.0828 -0.4497
 6125TIP3    H140010   2.406   0.834   7.651  0.2222 -1.2652 -0.0059
 6125TIP3    H240011   2.513   0.850   7.546 -0.2742 -0.7071 -0.4355
 6126TIP3   OH240012   5.931   4.877   0.339 -0.3994 -0.1093 -0.4871
 6126TIP3    H140013   6.026   4.877   0.332 -0.4089  1.8661 -1.1479
 6126TIP3    H240014   5.913   4.891   0.432 -0.0026  0.9919 -0.5582
 6127TIP3   OH240015   4.294   0.313   0.123  0.3890 -0.4326  0.0612
 6127TIP3    H140016   4.331   0.226   0.141  0.1406 -0.3657  0.9656
 6127TIP3    H240017   4.203   0.306   0.152  0.2897  0.0426 -0.1372
 6128TIP3   OH240018   4.489   1.784   8.006 -0.0759 -0.6614 -0.1359
 6128TIP3    H140019   4.514   1.749   8.092  2.0181 -0.4907 -0.6209
 6128TIP3    H240020   4.477   1.706   7.952 -1.0631 -0.7592  0.2103
 6129TIP3   OH240021   1.473   5.258   7.044 -0.5143 -0.5768  0.3711
 6129TIP3    H140022   1.489   5.220   7.130  1.0482  0.5501  0.6079
 6129TIP3    H240023   1.543   5.223   6.989  0.5405  1.3394  0.4232
 6130TIP3   OH240024   0.024   3.975   0.214  0.1363  0.8269 -0.4534
 6130TIP3    H140025  -0.004   4.057   0.255  0.6422  1.6413 -1.6672
 6130TIP3    H240026   0.116   3.966   0.239 -0.4788 -0.5677  1.5116
 6131TIP3   OH240027   5.600   4.111   6.644  0.8420  0.0663  0.0127
 6131TIP3    H140028   5.513   4.125   6.681  0.5231 -0.8098 -0.3613
 6131TIP3    H240029   5.624   4.194   6.604 -0.1097  0.1360 -0.4383
 6132TIP3   OH240030   1.001   6.477   7.752  0.2858 -0.2973 -0.1247
 6132TIP3    H140031   1.058   6.520   7.688 -0.0214  0.6054  0.1865
 6132TIP3    H240032   0.958   6.549   7.797  0.5137 -0.9216  1.1192
 6133TIP3   OH240033   6.369   6.288   0.880  0.1077 -0.3213 -0.0998
 6133TIP3    H140034   6.405   6.318   0.797  0.1930 -0.2403 -0.0325
 6133TIP3    H240035   6.279   6.322   0.880 -0.1840 -1.0534 -0.5531
 6134TIP3   OH240036   4.577   6.091   0.283  0.7071 -0.0744  0.5380
 6134TIP3    H140037   4.561   6.142   0.362 -1.0373 -0.6335  0.5923
 6134TIP3    H240038   4.535   6.006   0.300  0.7992 -0.4035 -0.7563
 6135TIP3   OH240039   3.965   5.348   8.204  0.3960 -0.0318 -0.5191
 6135TIP3    H140040   3.972   5.434   8.246 -1.2366  0.3730 -1.0047
 6135TIP3    H240041   3.871   5.331   8.200  0.6968 -1.9640 -0.2114
 6136TIP3   OH240042   4.197   3.281   8.096  0.1108 -0.2696 -0.3842
 6136TIP3    H140043   4.205   3.188   8.076 -2.2145 -0.8448  0.9733
 6136TIP3    H240044   4.250   3.293   8.175 -1.0897 -0.9367  0.5673
 6137TIP3   OH240045   6.030   6.594   1.066 -0.1089 -0.0913 -0.8571
 6137TIP3    H140046   5.956   6.652   1.050 -0.1248  0.5595  1.2320
 6137TIP3    H240047   6.105   6.653   1.073 -0.0111 -0.3261  0.5682
 6138TIP3   OH240048   2.267   2.819   1.104  0.4775 -0.2849  0.0114
 6138TIP3    H140049   2.349   2.772   1.119  1.0930  1.3636  2.3491
 6138TIP3    H240050   2.200   2.752   1.110  1.5378 -1.4020 -0.1781
 6139TIP3   OH240051   4.184   5.378   1.758  0.0518  0.1143 -0.0951
 6139TIP3    H140052   4.145   5.306   1.808  0.9883 -0.2545  0.1129
 6139TIP3    H240053   4.278   5.363   1.762  0.2770  1.3950  0.0126
 6140TIP3   OH240054   2.207   4.600   7.700  0.6539 -0.0360  0.3680
 6140TIP3    H140055   2.243   4.512   7.712 -1.1101 -0.6826  1.3566
 6140TIP3    H240056   2.275   4.659   7.733  1.7154 -1.0443  0.0358
 6141TIP3   OH240057   4.606   6.120   8.358  0.0293 -0.0206 -0.2314
 6141TIP3    H140058   4.570   6.038   8.390 -2.6437  0.6966 -1.1152
 6141TIP3    H240059   4.585   6.184   8.426 -0.3711  0.4182 -0.7569
 6142TIP3   OH240060   3.170   3.211   1.176 -0.7728  0.0096 -0.2259
 6142TIP3    H140061   3.132   3.211   1.264 -0.1193  1.0415  0.0795
 6142TIP3    H240062   3.099   3.244   1.120 -1.5755 -1.7191 -0.3060
 6143TIP3   OH240063   2.558   6.582   8.158  0.7659 -0.2933 -0.0191
 6143TIP3    H140064   2.615   6.658   8.165  0.7195 -0.3910  1.7457
 6143TIP3    H240065   2.618   6.508   8.151  0.8413 -0.2926  0.6179
 6144TIP3   OH240066   6.673   4.103   0.031  0.1528  0.1307 -0.3595
 6144TIP3    H140067   6.716   4.018   0.032  1.3187  0.6820  1.9144
 6144TIP3    H240068   6.581   4.083   0.014  0.7019 -1.3824 -1.7260
 6145TIP3   OH240069   2.963   3.003   1.101  0.0621  0.0529 -0.0561
 6145TIP3    H140070   3.044   3.035   1.143 -0.9267  2.4206  0.2507
 6145TIP3    H240071   2.991   2.969   1.017  1.5290 -0.3642  0.5676
 6146TIP3   OH240072   6.602   6.053   1.993  0.0458 -0.3460  0.5464
 6146TIP3    H140073   6.529   6.115   1.992  0.0528 -0.2523  2.6261
 6146TIP3    H240074   6.573   5.982   1.936  0.1995  1.6359 -2.2583
 6147TIP3   OH240075   3.520   2.108   8.588 -0.3772  0.0346  0.1878
 6147TIP3    H140076   3.449   2.167   8.615 -0.2190  0.2224  0.1968
 6147TIP3    H240077   3.593   2.167   8.566  0.0683 -0.1875  1.0131
 6148TIP3   OH240078   4.919   1.404   1.757  0.1315 -0.0472  0.1646
 6148TIP3    H140079   4.837   1.380   1.715  1.0802 -1.0660 -1.2377
 6148TIP3    H240080   4.977   1.329   1.740  1.1144  0.2894  1.8063
 6149TIP3   OH240081   1.184   0.260   2.074 -0.1480  0.6545 -0.1811
 6149TIP3    H140082   1.121   0.261   2.003 -0.3088  2.2360 -0.0434
 6149TIP3    H240083   1.142   0.310   2.144  0.1923 -0.4875  0.8804
 6150TIP3   OH240084   5.977   4.733   2.372 -0.0193  0.8368 -0.6077
 6150TIP3    H140085   5.998   4.824   2.389  1.8199  0.5112 -0.9132
 6150TIP3    H240086   6.050   4.684   2.411 -0.2114 -0.4100 -1.7406
 6151TIP3   OH240087   2.148   5.217   1.026 -0.1795 -0.3853 -0.2420
 6151TIP3    H140088   2.053   5.208   1.028 -0.2763  0.3131 -1.1368
 6151TIP3    H240089   2.168   5.289   1.086 -0.3769  0.5669 -1.2902
 6152TIP3   OH240090   5.181   1.222   1.966  0.2612  0.0371  0.5229
 6152TIP3    H140091   5.177   1.233   1.871 -1.9180 -1.3305  0.4006
 6152TIP3    H240092   5.214   1.133   1.978  1.6282  0.5936  1.1147
 6153TIP3   OH240093   3.704   1.182   0.141 -0.1248  0.5345 -1.1183
 6153TIP3    H140094   3.753   1.249   0.093 -0.5851 -0.2476 -2.7296
 6153TIP3    H240095   3.614   1.214   0.142 -0.1750  0.3914 -1.0657
 6154TIP3   OH240096   1.207   1.067   1.799 -0.0222 -0.0969 -0.0500
 6154TIP3    H140097   1.275   1.010   1.764  0.1542  0.9523 -1.4835
 6154TIP3    H240098   1.225   1.153   1.762 -0.2723  0.9458  2.0597
 6155TIP3   OH240099   6.430   3.211   6.493 -0.0573  0.4470  0.3120
 6155TIP3    H140100   6.358   3.154   6.465 -0.9805  1.8749 -0.3671
 6155TIP3    H240101   6.504   3.183   6.440 -0.2267 -0.7670  0.7014
 6156TIP3   OH240102   1.074   1.091   1.404 -0.0725  0.7600 -0.0246
 6156TIP3    H140103   1.071   1.128   1.316 -0.6367  1.5251  0.2999
 6156TIP3    H240104   1.001   1.133   1.450 -0.0567  0.0451  0.6819
 6157TIP3   OH240105   5.476   3.217   7.935  0.5974  0.0164  0.5920
 6157TIP3    H140106   5.431   3.292   7.895 -0.2765 -0.7239  0.1429
 6157TIP3    H240107   5.549   3.199   7.876 -0.2570 -0.6112 -0.3110
 6158TIP3   OH240108   2.831   5.693   7.601  0.6515 -0.0274  0.0587
 6158TIP3    H140109   2.889   5.627   7.639  0.8825 -0.3108 -0.7672
 6158TIP3    H240110   2.785   5.647   7.531 -0.7512  0.1329  0.8417
 6159TIP3   OH240111   4.877   0.087   2.276  0.5647  0.0946  0.0139
 6159TIP3    H140112   4.869   0.103   2.370  0.8436 -1.8996  0.4078
 6159TIP3    H240113   4.842   0.166   2.235 -1.9054  0.0031  1.7684
 6160TIP3   OH240114   0.199   6.131   2.013  0.9194 -0.1251  0.0435
 6160TIP3    H140115   0.116   6.104   1.973  2.3139 -1.5633 -2.0850
 6160TIP3    H240116   0.208   6.224   1.991  0.0984 -0.0701 -0.0823
 6161TIP3   OH240117   2.378   3.409   0.520 -0.6240  0.3772  0.3735
 6161TIP3    H140118   2.316   3.430   0.590  0.4356  2.9077  0.6556
 6161TIP3    H240119   2.380   3.486   0.465 -1.7616 -1.7046 -2.8472
 6162TIP3   OH240120   5.949   0.217   1.128  0.4790 -0.3264 -0.7551
 6162TIP3    H140121   6.045   0.212   1.120  0.6906  1.2763  0.2905
 6162TIP3    H240122   5.929   0.310   1.120 -0.6874 -0.2715  1.7571
 6163TIP3   OH240123   3.484   1.535   8.193 -0.2777 -0.2114 -0.4011
 6163TIP3    H140124   3.492   1.515   8.100 -0.4656 -2.9934  0.0801
 6163TIP3    H240125   3.435   1.461   8.229  1.0659  0.0201  2.1466
 6164TIP3   OH240126   4.198   6.492   6.834  0.2425  0.5910 -0.0673
 6164TIP3    H140127   4.133   6.459   6.896 -0.2640 -0.4152 -1.0981
 6164TIP3    H240128   4.146   6.526   6.761  0.8446  0.9841 -0.3251
 6165TIP3   OH240129   3.507   6.579   7.725  0.1863  0.2567  0.9788
 6165TIP3    H140130   3.496   6.487   7.703 -0.1442  0.8402 -1.5892
 6165TIP3    H240131   3.445   6.625   7.670  1.0952  2.1001  1.4085
 6166TIP3   OH240132   0.170   2.818   6.898  0.7684 -0.2967  0.1673
 6166TIP3    H140133   0.154   2.909   6.922  0.6241 -0.5991  1.3050
 6166TIP3    H240134   0.222   2.823   6.818  0.5572  0.7772  0.0796
 6167TIP3   OH240135   0.314   3.576   6.472  0.6339  0.5476  0.3324
 6167TIP3    H140136   0.266   3.525   6.406  1.5890  0.6463 -0.4599
 6167TIP3    H240137   0.380   3.515   6.505  1.4039  1.0720 -0.2029
 6168TIP3   OH240138   1.176   3.244   7.134  0.3679 -0.3606 -0.0994
 6168TIP3    H140139   1.177   3.154   7.101  0.3797 -1.3306  2.3533
 6168TIP3    H240140   1.169   3.235   7.229 -0.1520  2.2573  0.1914
 6169TIP3   OH240141   4.014   5.805   1.614 -0.3197  0.3257  0.3043
 6169TIP3    H140142   3.933   5.760   1.589  0.0454 -0.4905  0.5651
 6169TIP3    H240143   4.061   5.742   1.668 -0.3013  1.4309  1.6250
 6170TIP3   OH240144   0.519   5.004   2.438  0.1541 -0.0335  0.2720
 6170TIP3    H140145   0.505   4.909   2.442  0.8304 -0.2417 -1.3319
 6170TIP3    H240146   0.572   5.016   2.359  0.1042  1.6841  0.4775
 6171TIP3   OH240147   2.476   3.493   7.108 -0.2464  0.1755  0.3819
 6171TIP3    H140148   2.437   3.524   7.190 -3.3542 -0.4188 -0.7365
 6171TIP3    H240149   2.511   3.572   7.067 -1.1534  0.9401  1.0428
 6172TIP3   OH240150   5.324   6.708   1.729  0.7410 -0.4133  0.1405
 6172TIP3    H140151   5.397   6.712   1.668  2.8439 -1.4088  2.4381
 6172TIP3    H240152   5.301   6.799   1.745 -0.0992 -0.1200 -2.2744
 6173TIP3   OH240153   0.109   0.900   6.947 -0.3067 -0.1949  0.2540
 6173TIP3    H140154   0.145   0.985   6.973 -1.9874  0.8532 -0.6150
 6173TIP3    H240155   0.111   0.848   7.027  0.9021  0.6028  0.7771
 6174TIP3   OH240156   2.022   6.645   1.728 -0.3228  0.6842 -0.7672
 6174TIP3    H140157   1.995   6.733   1.752  0.5772  0.4551  1.2488
 6174TIP3    H240158   1.972   6.588   1.787 -1.7343 -0.2832 -2.7743
 6175TIP3   OH240159   1.163   2.580   1.666  0.4116  0.4250  0.7811
 6175TIP3    H140160   1.237   2.519   1.668  1.5250  1.6818 -0.3268
 6175TIP3    H240161   1.198   2.662   1.699  0.3084  1.7787 -2.1317
 6176TIP3   OH240162   4.921   2.508   1.886 -0.7387 -0.1589 -0.0591
 6176TIP3    H140163   4.997   2.563   1.867 -1.7698 -0.3387 -8.2460
 6176TIP3    H240164   4.958   2.430   1.929  2.8819  1.5306  0.2804
 6177TIP3   OH240165   1.934   4.090   7.332 -0.1667 -0.3622  0.1858
 6177TIP3    H140166   1.842   4.103   7.355 -0.5243 -0.3411 -1.1495
 6177TIP3    H240167   1.981   4.093   7.415 -1.2228  0.8711  0.7644
 6178TIP3   OH240168   2.325   2.465   0.153  0.3268 -0.1402  0.2624
 6178TIP3    H140169   2.330   2.397   0.086 -0.6738  0.2923 -0.2742
 6178TIP3    H240170   2.394   2.527   0.129 -1.9054  1.5831 -2.2187
 6179TIP3   OH240171   5.100   3.634   0.743  0.2713  0.0689 -0.4192
 6179TIP3    H140172   5.133   3.708   0.691 -1.0188 -0.2418 -1.7429
 6179TIP3    H240173   5.033   3.594   0.688  1.0197 -2.1900  0.2144
 6180TIP3   OH240174   1.620   3.565   0.745  0.0235 -0.4175 -0.4662
 6180TIP3    H140175   1.600   3.654   0.774  0.2296 -0.1938 -0.9925
 6180TIP3    H240176   1.582   3.509   0.812  0.4103  0.0824  0.1789
 6181TIP3   OH240177   3.146   3.568   8.606  0.2584 -0.2822 -0.2827
 6181TIP3    H140178   3.205   3.496   8.624 -0.8388 -1.0544  0.3651
 6181TIP3    H240179   3.087   3.535   8.538 -0.2206  0.0111 -0.0168
 6182TIP3   OH240180   3.032   5.417   0.012 -0.8338  0.8720 -0.0608
 6182TIP3    H140181   2.993   5.405   0.099  0.1592  1.4456  0.4829
 6182TIP3    H240182   3.103   5.479   0.027  2.6721 -2.7307 -0.2851
 6183TIP3   OH240183   0.341   2.308   8.213 -0.0690  0.2199 -0.7298
 6183TIP3    H140184   0.402   2.373   8.247  0.3672 -0.5146 -0.1147
 6183TIP3    H240185   0.257   2.354   8.211  0.1576  0.6892  0.0746
 6184TIP3   OH240186   1.751   3.619   8.331 -0.2606  0.4256 -0.0832
 6184TIP3    H140187   1.845   3.639   8.330  0.3404 -2.0372  0.2645
 6184TIP3    H240188   1.708   3.702   8.312  2.0548  1.2916 -2.0135
 6185TIP3   OH240189   0.207   4.190   8.294  0.1427 -0.6248 -0.6899
 6185TIP3    H140190   0.301   4.176   8.304  0.6462  1.3849 -1.9760
 6185TIP3    H240191   0.170   4.169   8.380  1.8027 -1.1504 -0.0697
 6186TIP3   OH240192   1.573   0.042   7.157  0.3295 -0.0988  0.4724
 6186TIP3    H140193   1.609   0.042   7.069 -0.6932 -2.8781 -0.0516
 6186TIP3    H240194   1.592  -0.045   7.192 -2.8658 -0.5841  1.3702
 6187TIP3   OH240195   3.316   6.364   1.299 -0.5247 -0.1872  0.4126
 6187TIP3    H140196   3.238   6.402   1.259  1.3939  1.7198 -1.7716
 6187TIP3    H240197   3.327   6.280   1.254 -0.9216 -0.1316  0.2042
 6188TIP3   OH240198   4.010   0.832   8.285  0.2224  1.5503 -0.1249
 6188TIP3    H140199   4.103   0.828   8.260  0.6539 -0.0183  1.5266
 6188TIP3    H240200   4.009   0.806   8.377 -1.9750  0.4292 -0.4057
 6189TIP3   OH240201   4.737   0.345   0.464 -0.2662 -0.0762  0.0218
 6189TIP3    H140202   4.704   0.396   0.391  0.1342 -0.9522 -0.7903
 6189TIP3    H240203   4.766   0.262   0.425 -2.0593 -1.4661  1.4634
 6190TIP3   OH240204   1.962   4.761   6.260 -0.0890  0.0232 -0.1445
 6190TIP3    H140205   2.003   4.674   6.264 -0.7403 -0.2805  0.2133
 6190TIP3    H240206   1.891   4.751   6.197  0.1167  0.4216 -0.4394
 6191TIP3   OH240207   2.541   3.440   0.143 -0.2807  0.3389 -0.1493
 6191TIP3    H140208   2.531   3.526   0.102  0.1814  1.4833  1.9677
 6191TIP3    H240209   2.452   3.415   0.167 -0.4806 -0.0526 -1.2518
 6192TIP3   OH240210   0.697   1.016   0.713 -0.0757 -0.5945  0.1022
 6192TIP3    H140211   0.675   1.041   0.623  1.7801  0.9365  0.0131
 6192TIP3    H240212   0.613   1.009   0.757 -0.9333  1.8712 -0.9665
 6193TIP3   OH240213   3.069   6.646   7.913  0.0510 -0.4489 -0.3847
 6193TIP3    H140214   3.097   6.558   7.889  0.6886  0.0269 -1.4718
 6193TIP3    H240215   3.146   6.686   7.953 -0.5739 -0.7405  1.1952
 6194TIP3   OH240216   0.387   6.791   2.144  0.2718 -0.4591 -0.1434
 6194TIP3    H140217   0.430   6.830   2.068 -0.2533 -1.0282 -0.7454
 6194TIP3    H240218   0.408   6.850   2.216 -1.1476  1.3775 -1.1651
 6195TIP3   OH240219   4.242   0.320   7.523 -0.4610  0.0973  0.5291
 6195TIP3    H140220   4.213   0.279   7.605 -0.4968 -0.9914 -0.0127
 6195TIP3    H240221   4.337   0.327   7.532 -0.5831  1.1091  1.1580
 6196TIP3   OH240222   6.401   4.482   7.398 -0.1860 -0.4260 -0.1359
 6196TIP3    H140223   6.414   4.446   7.310 -0.5648 -0.6260 -0.1088
 6196TIP3    H240224   6.488   4.513   7.424 -0.4024  1.4704 -1.3997
 6197TIP3   OH240225   5.764   3.851   7.834 -0.6223  0.0417 -0.2958
 6197TIP3    H140226   5.855   3.874   7.855 -0.2881 -1.0315 -0.5128
 6197TIP3    H240227   5.732   3.806   7.912 -0.4785 -0.8933 -0.7584
 6198TIP3   OH240228   0.145   0.310   0.925 -0.1259 -0.0133 -0.5630
 6198TIP3    H140229   0.182   0.231   0.964 -1.5463 -0.6215 -0.3817
 6198TIP3    H240230   0.050   0.296   0.927 -0.5178  2.2660  0.6850
 6199TIP3   OH240231   5.505   0.176   8.003 -0.0515 -0.4866  0.5319
 6199TIP3    H140232   5.509   0.251   8.063 -2.0389 -2.5936  3.6259
 6199TIP3    H240233   5.593   0.138   8.006  0.3636  0.4644  0.6721
 6200TIP3   OH240234   5.704   4.093   1.161  0.0168 -0.2952  0.1656
 6200TIP3    H140235   5.703   4.039   1.082 -2.2264 -0.4590  0.2264
 6200TIP3    H240236   5.782   4.066   1.209  0.2883 -1.6658 -1.0090
 6201TIP3   OH240237   2.004   3.955   0.980 -0.3025 -0.1832 -0.5602
 6201TIP3    H140238   1.984   3.915   0.895 -0.7538 -0.2840 -0.4076
 6201TIP3    H240239   2.098   3.941   0.991 -0.3354 -0.6179 -0.8081
 6202TIP3   OH240240   3.601   4.736   1.308  0.2218  0.4317  0.2239
 6202TIP3    H140241   3.549   4.812   1.281  0.9906  1.0892  0.5567
 6202TIP3    H240242   3.573   4.718   1.398 -0.0464  0.2380  0.1040
 6203TIP3   OH240243   5.361   0.124   1.314  0.8009  0.4680  0.2382
 6203TIP3    H140244   5.327   0.212   1.333 -0.9539  0.4512 -2.3477
 6203TIP3    H240245   5.451   0.139   1.285  0.6118  1.3801  0.0899
 6204TIP3   OH240246   0.402   4.922   8.326 -0.2724 -0.3236  0.7689
 6204TIP3    H140247   0.333   4.918   8.260 -0.0038 -0.5898  0.5009
 6204TIP3    H240248   0.481   4.940   8.277  0.0018 -0.9565  0.9656
 6205TIP3   OH240249   3.131   1.453   8.493 -0.0494 -0.2976  0.0604
 6205TIP3    H140250   3.058   1.458   8.555 -1.4685  0.9922 -1.5961
 6205TIP3    H240251   3.149   1.544   8.470  2.0374 -0.6077  0.3021
 6206TIP3   OH240252   6.741   0.646   6.856 -0.3955  0.3357 -0.0484
 6206TIP3    H140253   6.714   0.651   6.947 -0.8575  1.2696 -0.2155
 6206TIP3    H240254   6.771   0.735   6.835  2.1267 -0.4525 -0.1048
 6207TIP3   OH240255   3.741   5.436   1.376  0.0315  0.3682 -0.0379
 6207TIP3    H140256   3.738   5.515   1.431  1.8438  0.6159 -0.2218
 6207TIP3    H240257   3.737   5.364   1.438  0.7492  0.6380  0.3397
 6208TIP3   OH240258   4.202   3.659   0.471 -0.0314  0.1977  0.0424
 6208TIP3    H140259   4.182   3.737   0.522 -1.3832 -0.4315  0.5222
 6208TIP3    H240260   4.298   3.655   0.468  0.0829  2.2896 -0.6682
 6209TIP3   OH240261   0.941   1.476   6.504  0.6945 -0.2201  0.3235
 6209TIP3    H140262   1.025   1.453   6.466  0.0538 -0.4923 -0.9619
 6209TIP3    H240263   0.885   1.498   6.429 -0.2538  0.3922  1.1758
 6210TIP3   OH240264   3.121   1.132   1.712  0.0496 -0.0272 -0.0925
 6210TIP3    H140265   3.206   1.122   1.669  1.1082  3.1962  0.9751
 6210TIP3    H240266   3.141   1.130   1.806 -1.2855 -0.5793  0.2094
 6211TIP3   OH240267   6.830   1.264   6.922  0.9949  0.1902  0.1829
 6211TIP3    H140268   6.885   1.342   6.916  0.0339  1.0673  1.9504
 6211TIP3    H240269   6.879   1.204   6.979  1.3208 -0.1498 -0.4423
 6212TIP3   OH240270   6.516   3.116   7.070 -0.0243  0.4772  0.5104
 6212TIP3    H140271   6.587   3.123   7.008 -0.3015  2.0597  0.3287
 6212TIP3    H240272   6.484   3.026   7.061  1.3998  0.0059  0.0156
 6213TIP3   OH240273   2.318   4.841   2.232  0.4743 -0.1835 -0.4445
 6213TIP3    H140274   2.329   4.846   2.327  0.1895 -2.3510 -0.2437
 6213TIP3    H240275   2.396   4.795   2.201  0.1627 -0.2379 -1.1606
 6214TIP3   OH240276   5.562   4.543   2.146 -0.1953 -0.0468 -0.0651
 6214TIP3    H140277   5.554   4.619   2.204 -0.4282 -0.1784  0.0767
 6214TIP3    H240278   5.572   4.469   2.206 -0.9101 -0.2420 -0.1822
 6215TIP3   OH240279   5.180   5.686   8.572  0.1641  0.1992 -0.3845
 6215TIP3    H140280   5.123   5.610   8.558  1.5922 -1.0110  0.0609
 6215TIP3    H240281   5.217   5.672   8.660  1.8095  0.4555 -1.0009
 6216TIP3   OH240282   3.053   1.842   8.303 -0.1618  0.8347  0.0290
 6216TIP3    H140283   3.090   1.927   8.278 -0.5519  0.9733 -0.0952
 6216TIP3    H240284   3.129   1.785   8.314  0.0445  0.8022 -1.3488
 6217TIP3   OH240285   4.840   0.278   0.165  0.6518  0.0714  0.3207
 6217TIP3    H140286   4.916   0.318   0.122  0.3056 -0.6841 -1.0521
 6217TIP3    H240287   4.872   0.193   0.196  0.9737  0.7209  1.8733
 6218TIP3   OH240288   0.910   5.032   2.358  1.0437  0.0478 -0.3580
 6218TIP3    H140289   0.980   5.000   2.302  0.4178 -0.9897 -0.5657
 6218TIP3    H240290   0.831   4.985   2.329  0.8865 -1.3287  2.0140
 6219TIP3   OH240291   0.277   0.122   8.659  0.3648  0.0077  0.1764
 6219TIP3    H140292   0.318   0.112   8.573  1.2077 -0.3789  0.6084
 6219TIP3    H240293   0.330   0.188   8.703 -0.4732  0.7039  0.1637
 6220TIP3   OH240294   6.724   2.564   1.075 -0.0294 -0.0116  0.6268
 6220TIP3    H140295   6.725   2.574   1.170  0.2456 -0.1426  0.6397
 6220TIP3    H240296   6.634   2.539   1.054 -0.2560  0.6329  0.7862
 6221TIP3   OH240297   6.837   5.114   7.596 -0.0043 -0.4240  0.4168
 6221TIP3    H140298   6.844   5.205   7.625 -2.3643 -0.1924  0.4712
 6221TIP3    H240299   6.788   5.070   7.666 -1.8333 -0.9048 -1.0896
 6222TIP3   OH240300   4.880   4.749   0.720  0.3607 -0.8877  0.2186
 6222TIP3    H140301   4.932   4.807   0.777  0.5155 -0.9926  0.1839
 6222TIP3    H240302   4.813   4.712   0.779 -0.7403  0.5298 -0.0801
 6223TIP3   OH240303   5.908   2.887   2.648 -0.2081 -0.6899  0.2382
 6223TIP3    H140304   5.856   2.936   2.711  0.6972 -0.8694  1.1414
 6223TIP3    H240305   5.857   2.890   2.567 -0.9544  0.3107  0.7309
 6224TIP3   OH240306   4.665   0.559   8.277  0.5044  0.1492  0.3375
 6224TIP3    H140307   4.753   0.524   8.285 -0.1558 -1.2381  2.5735
 6224TIP3    H240308   4.645   0.594   8.364 -1.5807 -0.7185  0.2732
 6225TIP3   OH240309   0.385   1.086   0.689 -0.7482  0.7109 -0.5224
 6225TIP3    H140310   0.471   1.125   0.706 -0.6313  0.3551 -0.2785
 6225TIP3    H240311   0.370   1.027   0.763 -0.2976 -0.7452 -1.5513
 6226TIP3   OH240312   4.135   6.136   7.762 -0.0570 -0.1791 -0.2696
 6226TIP3    H140313   4.054   6.177   7.733  0.6420  0.7296 -1.0105
 6226TIP3    H240314   4.117   6.107   7.851 -1.6143 -1.2101 -0.8904
 6227TIP3   OH240315   3.572   0.113   1.988 -0.6686  0.6969  0.9357
 6227TIP3    H140316   3.566   0.049   2.059 -1.9441  1.2793  1.3910
 6227TIP3    H240317   3.665   0.138   1.985 -0.0752 -1.3871  0.5135
 6228TIP3   OH240318   5.778   1.706   8.642  0.1947  0.2082  0.2687
 6228TIP3    H140319   5.873   1.703   8.637  0.1192 -0.3951 -1.4884
 6228TIP3    H240320   5.751   1.614   8.642 -0.3905  0.3758  0.5843
 6229TIP3   OH240321   1.304   4.818   8.572  0.1453  0.1876 -0.1050
 6229TIP3    H140322   1.221   4.810   8.619 -0.3039  0.5789 -0.8282
 6229TIP3    H240323   1.336   4.728   8.564  0.1590  0.0958  0.8057
 6230TIP3   OH240324   6.824   5.023   1.604  0.3007  0.2847 -0.0916
 6230TIP3    H140325   6.765   5.085   1.647 -1.2973 -0.1847 -1.4994
 6230TIP3    H240326   6.894   5.078   1.569  1.1201  0.7854  2.1327
 6231TIP3   OH240327   2.481   2.431   1.601  0.1599  0.2916 -0.1789
 6231TIP3    H140328   2.441   2.437   1.514 -1.7244 -0.5464  0.5729
 6231TIP3    H240329   2.414   2.466   1.660  0.9607 -0.1753  1.0398
 6232TIP3   OH240330   2.576   0.863   2.646  0.0003 -0.9058 -0.0653
 6232TIP3    H140331   2.631   0.922   2.594 -0.0598 -0.4404  0.3945
 6232TIP3    H240332   2.500   0.916   2.670 -0.1423 -1.2272  0.1973
 6233TIP3   OH240333   2.872   1.214   0.116 -0.2861 -0.7046 -0.3606
 6233TIP3    H140334   2.933   1.191   0.047  0.6200  0.2123  0.1115
 6233TIP3    H240335   2.900   1.161   0.191 -0.8138 -1.1555 -0.4741
 6234TIP3   OH240336   0.108   1.053   7.639 -0.5500  0.3469  0.3144
 6234TIP3    H140337   0.052   1.100   7.578 -0.0560 -2.3711 -2.5149
 6234TIP3    H240338   0.194   1.095   7.631 -1.0507  1.5181  1.0093
 6235TIP3   OH240339   5.731   5.655   1.071  0.5722  1.1125 -0.1789
 6235TIP3    H140340   5.692   5.589   1.128  0.8631 -0.2678 -1.5002
 6235TIP3    H240341   5.665   5.725   1.067  0.9512  1.7294  2.5564
 6236TIP3   OH240342   6.552   4.519   0.771  0.0856  0.2406 -0.5493
 6236TIP3    H140343   6.524   4.602   0.809  0.3199 -0.1949  0.6122
 6236TIP3    H240344   6.642   4.535   0.742  0.5732  0.0510  0.8150
 6237TIP3   OH240345   3.439   3.845   7.585  0.0149  0.0942  0.3727
 6237TIP3    H140346   3.374   3.884   7.644  0.5580 -0.2315  1.1974
 6237TIP3    H240347   3.523   3.871   7.621  0.4306 -2.1996  1.2574
 6238TIP3   OH240348   3.626   5.245   1.832 -0.3592  0.1366  0.0239
 6238TIP3    H140349   3.708   5.264   1.787 -0.9912 -0.9138 -1.6519
 6238TIP3    H240350   3.654   5.203   1.914  0.7850 -0.2011 -0.5058
 6239TIP3   OH240351   0.931   6.675   8.109 -0.0743  0.0161 -0.5641
 6239TIP3    H140352   0.881   6.747   8.146 -1.0850 -1.0723  0.2751
 6239TIP3    H240353   0.867   6.624   8.060  0.0616 -1.6646  0.9000
 6240TIP3   OH240354   6.026   2.795   7.344 -0.3088  0.0082  0.2545
 6240TIP3    H140355   6.034   2.789   7.440 -0.7284  2.3455  0.4983
 6240TIP3    H240356   6.083   2.726   7.311  1.1151  0.1560  2.1938
 6241TIP3   OH240357   2.856   4.153   0.517  0.2763  0.2515 -0.0865
 6241TIP3    H140358   2.908   4.230   0.537  1.7171 -0.4139 -1.1356
 6241TIP3    H240359   2.850   4.106   0.601 -1.3180  1.8339  0.7664
 6242TIP3   OH240360   2.055   5.580   1.830  0.2373 -0.0562  0.1634
 6242TIP3    H140361   2.129   5.636   1.807  0.8316 -1.4284 -1.4564
 6242TIP3    H240362   2.093   5.509   1.882  0.1199 -0.8281 -0.7665
 6243TIP3   OH240363   1.240   6.564   0.050  0.0884  0.5535 -0.6075
 6243TIP3    H140364   1.281   6.537  -0.032  1.3354  1.2599 -0.2436
 6243TIP3    H240365   1.186   6.640   0.026  2.4905  2.4537 -0.4180
 6244TIP3   OH240366   2.531   2.713   8.542 -0.3990 -0.2483 -0.1234
 6244TIP3    H140367   2.502   2.650   8.476  0.0977  0.8641 -1.4740
 6244TIP3    H240368   2.592   2.770   8.495 -0.3085  0.8170  1.2204
 6245TIP3   OH240369   3.923   0.317   0.603 -0.3457  0.0942 -0.3325
 6245TIP3    H140370   3.909   0.334   0.696  0.9864  0.5063 -0.1917
 6245TIP3    H240371   3.943   0.224   0.598 -2.1390 -0.3314 -0.4461
 6246TIP3   OH240372   5.695   4.988   0.258 -0.3190 -0.0765 -0.0323
 6246TIP3    H140373   5.643   4.970   0.336 -0.4140  0.3554  0.0070
 6246TIP3    H240374   5.784   4.962   0.282 -0.0099  1.6299  0.8303
 6247TIP3   OH240375   0.471   4.067   0.859 -0.3872 -0.0101  0.7323
 6247TIP3    H140376   0.519   4.150   0.857 -3.7471  2.0917  0.1870
 6247TIP3    H240377   0.462   4.047   0.952 -1.2258  1.3620  0.9735
 6248TIP3   OH240378   5.551   6.247   2.476 -0.2926 -0.0587 -0.1943
 6248TIP3    H140379   5.546   6.154   2.499  0.7403 -0.1210 -0.1687
 6248TIP3    H240380   5.564   6.248   2.381  0.0962  0.0422 -0.1413
 6249TIP3   OH240381   4.881   4.131   1.042 -0.1710  0.0481  0.1728
 6249TIP3    H140382   4.886   4.184   0.962 -0.6721  0.5662  0.4791
 6249TIP3    H240383   4.829   4.184   1.102 -0.5397 -0.7210  0.5444
 6250TIP3   OH240384   0.888   2.859   0.203  0.1317 -0.1577  0.2263
 6250TIP3    H140385   0.851   2.788   0.150  0.0897  0.4604 -0.5739
 6250TIP3    H240386   0.871   2.938   0.153 -0.1325  0.4681  1.2802
 6251TIP3   OH240387   3.787   6.625   7.678  0.4286 -0.2117  0.0364
 6251TIP3    H140388   3.834   6.613   7.761 -0.2231  0.0797  0.4592
 6251TIP3    H240389   3.702   6.584   7.693  1.0629 -2.0973 -1.2387
 6252TIP3   OH240390   3.753   0.685   0.129 -0.7075 -0.2815  0.1533
 6252TIP3    H140391   3.807   0.671   0.207  1.4604  1.1594 -0.9944
 6252TIP3    H240392   3.730   0.778   0.133 -0.6949 -0.2287 -0.8381
 6253TIP3   OH240393   5.340   4.401   2.267  0.4362  0.3906 -0.4095
 6253TIP3    H140394   5.275   4.397   2.196 -0.1342 -1.0748  0.1517
 6253TIP3    H240395   5.309   4.472   2.324  1.6327  2.5302 -2.2439
 6254TIP3   OH240396   2.876   5.772   8.651  0.2967 -0.5711 -0.9879
 6254TIP3    H140397   2.949   5.814   8.607  0.3626 -1.6142 -1.9360
 6254TIP3    H240398   2.914   5.693   8.691  0.1060  0.0107  0.4189
 6255TIP3   OH240399   5.417   5.945   1.472  0.2520 -0.0556 -0.1873
 6255TIP3    H140400   5.339   5.894   1.451 -0.2982 -0.4343  2.3487
 6255TIP3    H240401   5.490   5.887   1.454 -0.1809 -0.5017 -0.5133
 6256TIP3   OH240402   6.266   4.788   0.585 -0.4295  0.3893 -0.3237
 6256TIP3    H140403   6.239   4.880   0.579 -0.3128  0.4157 -0.4457
 6256TIP3    H240404   6.304   4.768   0.499  1.2293  0.7607  0.2853
 6257TIP3   OH240405   6.095   0.958   0.497 -0.3317 -0.5982  0.0211
 6257TIP3    H140406   6.024   0.900   0.471 -0.3349 -0.0191 -1.3218
 6257TIP3    H240407   6.078   1.040   0.450  1.2776 -0.4867 -0.4252
 6258TIP3   OH240408   3.810   0.622   8.574  0.2670  0.1830 -0.4789
 6258TIP3    H140409   3.906   0.631   8.571  0.4881 -1.7275 -0.5162
 6258TIP3    H240410   3.795   0.530   8.551 -1.4541 -0.1422  1.7434
 6259TIP3   OH240411   5.985   2.245   7.068 -0.5418 -0.3032 -0.0267
 6259TIP3    H140412   5.988   2.340   7.052  0.6952 -0.5174 -1.2858
 6259TIP3    H240413   5.966   2.207   6.982  0.0742 -1.2418  0.2355
 6260TIP3   OH240414   5.271   5.162   1.462 -0.0765  0.3171  0.0348
 6260TIP3    H140415   5.321   5.225   1.514  0.2379  0.4441 -0.4098
 6260TIP3    H240416   5.197   5.212   1.428 -0.1108  0.3140  0.1047
 6261TIP3   OH240417   3.598   6.803   0.324 -0.0853  0.7236  0.5493
 6261TIP3    H140418   3.623   6.859   0.397  0.3500 -0.4104  1.2861
 6261TIP3    H240419   3.512   6.837   0.296  0.6001  2.3698  0.3188
 6262TIP3   OH240420   0.720   3.690   0.903  0.4292  0.3113  0.5946
 6262TIP3    H140421   0.711   3.651   0.990 -3.4591 -1.2366 -0.2965
 6262TIP3    H240422   0.780   3.631   0.857  0.0336 -0.6965  1.3281
 6263TIP3   OH240423   5.442   2.174   1.896 -0.4536  0.3384  0.3117
 6263TIP3    H140424   5.486   2.089   1.904  0.8944  1.1427  2.1710
 6263TIP3    H240425   5.352   2.157   1.924 -0.2122 -0.5041  0.6052
 6264TIP3   OH240426   5.085   6.370   7.816 -0.6115 -0.5190 -0.3155
 6264TIP3    H140427   5.056   6.442   7.872 -1.1993 -0.3199 -0.8585
 6264TIP3    H240428   5.043   6.293   7.853  0.5971 -0.7241  0.7076
 6265TIP3   OH240429   4.142   4.725   8.306 -0.4974  0.2561  0.2272
 6265TIP3    H140430   4.109   4.637   8.326 -1.3317  0.5755  0.2763
 6265TIP3    H240431   4.191   4.750   8.384  1.8604 -1.1288 -0.7018
 6266TIP3   OH240432   5.105   2.068   8.350  0.3624  0.2657  0.6087
 6266TIP3    H140433   5.121   2.124   8.274  2.2020  0.3484  1.0239
 6266TIP3    H240434   5.136   1.981   8.323 -0.7067 -0.1436  0.6409
 6267TIP3   OH240435   0.003   0.086   7.726 -0.0013  0.1509  0.3905
 6267TIP3    H140436   0.050   0.150   7.779  1.0206  0.1400 -0.4749
 6267TIP3    H240437   0.014   0.117   7.636 -1.8936  0.2881  0.1818
 6268TIP3   OH240438   5.677   2.769   7.887 -0.3585 -0.2391  0.5556
 6268TIP3    H140439   5.731   2.704   7.841 -2.5133 -0.8992 -1.2823
 6268TIP3    H240440   5.630   2.814   7.817 -0.8488  1.5434  1.9636
 6269TIP3   OH240441   5.237   3.185   1.062  0.3015 -0.4610 -0.3044
 6269TIP3    H140442   5.173   3.203   0.993  0.0697  1.2347  0.3098
 6269TIP3    H240443   5.322   3.204   1.023  0.2493 -0.4644 -0.4181
 6270TIP3   OH240444   0.058   1.528   6.846  0.0947 -0.2126 -0.1516
 6270TIP3    H140445   0.124   1.582   6.889 -0.3792  0.2392  0.0161
 6270TIP3    H240446   0.098   1.503   6.762  0.3981  0.2178 -0.1369
 6271TIP3   OH240447   2.965   4.832   7.627  0.1901  0.6533  0.1994
 6271TIP3    H140448   2.993   4.795   7.711 -0.0514  0.5133  0.2204
 6271TIP3    H240449   3.043   4.875   7.592  0.8158 -0.9509 -0.4181
 6272TIP3   OH240450   1.090   2.346   1.316 -0.2927  0.1217 -0.5105
 6272TIP3    H140451   1.011   2.301   1.285 -0.1192 -0.0141 -0.7627
 6272TIP3    H240452   1.134   2.283   1.373  0.3283 -0.3163 -1.4412
 6273TIP3   OH240453   6.338   2.808   7.757  0.0840  0.2191 -0.0289
 6273TIP3    H140454   6.395   2.741   7.795  0.3585  0.3657 -0.1799
 6273TIP3    H240455   6.272   2.759   7.708  0.0513  0.0478  0.1844
 6274TIP3   OH240456   1.457   2.251   6.366 -0.1351  0.5541  0.0601
 6274TIP3    H140457   1.374   2.244   6.319  0.5621  0.0365 -1.1253
 6274TIP3    H240458   1.477   2.161   6.393  1.1095  0.2815 -1.6023
 6275TIP3   OH240459   3.957   4.023   0.705  0.0726  0.2603 -0.5327
 6275TIP3    H140460   3.937   4.014   0.798  2.2211  0.2718  0.0008
 6275TIP3    H240461   3.989   4.113   0.696  1.5201 -0.2618 -0.8907
 6276TIP3   OH240462   4.522   0.294   2.075  0.5621  0.3092 -0.1272
 6276TIP3    H140463   4.430   0.299   2.050  0.7116  1.6520 -0.5005
 6276TIP3    H240464   4.569   0.336   2.003  1.3530  0.6893  0.5929
 6277TIP3   OH240465   1.599   0.896   1.343 -0.5366 -0.1691 -0.0407
 6277TIP3    H140466   1.625   0.921   1.431 -3.0673 -0.3578  0.8562
 6277TIP3    H240467   1.506   0.875   1.351 -0.2070 -3.1480 -2.1261
 6278TIP3   OH240468   1.522   4.135   6.933  0.2317 -0.3143  0.3107
 6278TIP3    H140469   1.610   4.105   6.911  0.2200 -0.1330  0.0040
 6278TIP3    H240470   1.517   4.129   7.028  0.9570  0.6918  0.4303
 6279TIP3   OH240471   4.901   6.311   6.697  0.1538  0.0755 -0.5478
 6279TIP3    H140472   4.868   6.396   6.668 -1.4595 -0.4543 -0.3143
 6279TIP3    H240473   4.983   6.332   6.743 -0.1119  1.4698 -0.6714
 6280TIP3   OH240474   0.144   4.204   1.634  1.0436 -0.8786 -0.1486
 6280TIP3    H140475   0.184   4.257   1.703  1.3756 -2.5733  1.0114
 6280TIP3    H240476   0.212   4.142   1.609  1.1556  0.0936 -2.5156
 6281TIP3   OH240477   0.806   4.216   7.184 -0.2570  0.5075 -0.2031
 6281TIP3    H140478   0.772   4.276   7.251 -0.4029 -1.0124  1.1426
 6281TIP3    H240479   0.797   4.129   7.223 -1.8863 -0.6177 -2.8399
 6282TIP3   OH240480   2.816   3.307   8.633  0.5757 -0.4782 -0.0056
 6282TIP3    H140481   2.723   3.289   8.619  0.2716  1.0693 -0.1865
 6282TIP3    H240482   2.825   3.322   8.727  0.6884 -0.8301  0.0417
 6283TIP3   OH240483   1.818   5.397   7.843  0.0315 -0.0932 -0.0593
 6283TIP3    H140484   1.726   5.374   7.838  0.2105 -0.5009 -2.6097
 6283TIP3    H240485   1.861   5.341   7.779  2.1914 -0.3588  1.5023
 6284TIP3   OH240486   2.242   6.572   7.929 -0.0582 -0.0123  0.2439
 6284TIP3    H140487   2.159   6.540   7.893  2.0421 -1.1076 -4.4582
 6284TIP3    H240488   2.286   6.494   7.962  1.2420 -0.6043 -2.5760
 6285TIP3   OH240489   0.326   0.196   0.623  0.5657  0.0268  0.4745
 6285TIP3    H140490   0.299   0.261   0.687 -0.1667  1.3629 -1.0997
 6285TIP3    H240491   0.291   0.113   0.657  0.2144  0.6858  1.7828
 6286TIP3   OH240492   1.890   1.184   1.919  0.7278 -0.2178 -0.9840
 6286TIP3    H140493   1.828   1.246   1.879 -0.5220 -1.0738 -0.4344
 6286TIP3    H240494   1.973   1.232   1.920  0.3969  0.5132 -2.8825
 6287TIP3   OH240495   4.862   5.603   0.945 -0.1788  0.4316  0.5189
 6287TIP3    H140496   4.863   5.687   0.900  1.9379 -0.3558 -1.0555
 6287TIP3    H240497   4.844   5.625   1.036 -0.1937  2.5242  0.0543
 6288TIP3   OH240498   6.848   1.708   0.425 -0.2651  0.7494 -0.2640
 6288TIP3    H140499   6.843   1.794   0.384  1.3019  1.0292  0.0881
 6288TIP3    H240500   6.861   1.647   0.352  1.1270  1.0944 -0.3158
 6289TIP3   OH240501   4.809   6.558   1.757 -0.3369  0.5735  0.3663
 6289TIP3    H140502   4.843   6.647   1.768 -2.8840  1.7644 -0.5123
 6289TIP3    H240503   4.870   6.503   1.804  2.4180  2.5371 -0.6391
 6290TIP3   OH240504   2.543   0.568   8.028 -0.2870  0.0912  0.0647
 6290TIP3    H140505   2.639   0.577   8.025 -0.0596 -1.1918  1.9814
 6290TIP3    H240506   2.516   0.574   7.936  1.7641 -0.8819 -0.6676
 6291TIP3   OH240507   4.965   3.410   1.231  0.1049  0.1838 -0.0403
 6291TIP3    H140508   4.879   3.450   1.215 -1.9697 -3.2481  1.4075
 6291TIP3    H240509   5.008   3.410   1.146 -2.2341  0.1449 -1.2992
 6292TIP3   OH240510   2.365   6.205   7.600 -0.5954 -0.5407 -0.0082
 6292TIP3    H140511   2.432   6.196   7.667  1.5543 -1.0068 -2.0645
 6292TIP3    H240512   2.368   6.123   7.551 -1.8247 -0.0958 -0.9027
 6293TIP3   OH240513   6.160   6.004   1.946 -0.1894  0.2134 -0.2036
 6293TIP3    H140514   6.076   6.049   1.954  0.2028  0.7290  1.4074
 6293TIP3    H240515   6.211   6.057   1.885 -0.6662  0.4866 -0.3647
 6294TIP3   OH240516   4.135   4.689   0.757  0.9173 -0.1227 -0.0194
 6294TIP3    H140517   4.160   4.781   0.746 -0.5739  0.5839  1.7929
 6294TIP3    H240518   4.168   4.666   0.844  1.4124 -1.3861 -0.5187
 6295TIP3   OH240519   0.170   2.144   1.495  0.1164  0.1877 -0.2746
 6295TIP3    H140520   0.201   2.121   1.583  0.7365 -3.8613 -1.3387
 6295TIP3    H240521   0.240   2.197   1.458  0.9007  0.0324  0.9307
 6296TIP3   OH240522   1.465   0.987   7.444  0.0898 -0.0955 -0.3191
 6296TIP3    H140523   1.397   1.003   7.379 -0.6997 -2.1573 -0.0789
 6296TIP3    H240524   1.502   1.073   7.462 -1.5105  0.8875 -1.4900
 6297TIP3   OH240525   0.512   5.133   1.425  0.3646 -0.5617 -0.0037
 6297TIP3    H140526   0.570   5.173   1.361  0.5717  0.8267  1.0125
 6297TIP3    H240527   0.521   5.039   1.410  3.5306 -0.4629  0.6576
 6298TIP3   OH240528   2.174   4.173   8.321  0.0815  0.0183  0.1775
 6298TIP3    H140529   2.153   4.235   8.251 -0.4127  1.9563  1.9762
 6298TIP3    H240530   2.096   4.171   8.376  0.7766 -0.7803  1.1721
 6299TIP3   OH240531   2.701   5.760   6.921 -0.3243  0.1032  0.2685
 6299TIP3    H140532   2.626   5.817   6.903 -0.1465  0.3472  0.2934
 6299TIP3    H240533   2.760   5.814   6.974  0.9087  0.7033 -1.6186
 6300TIP3   OH240534   3.321   3.946   1.336  0.0953 -0.1186 -0.5833
 6300TIP3    H140535   3.332   3.990   1.252 -0.8443  0.9812 -0.1630
 6300TIP3    H240536   3.350   4.010   1.401 -0.1389 -0.5714 -0.0206
 6301TIP3   OH240537   3.176   3.740   1.411 -0.3229 -0.3391 -0.1095
 6301TIP3    H140538   3.231   3.808   1.373 -0.2262 -0.7566 -0.7238
 6301TIP3    H240539   3.086   3.768   1.392 -0.3637  0.5686  1.2771
 6302TIP3   OH240540   0.447   6.343   2.901 -0.1731  0.0831  0.2612
 6302TIP3    H140541   0.499   6.264   2.918 -0.6150 -0.5855 -1.3452
 6302TIP3    H240542   0.511   6.409   2.877  0.3035  0.5649  2.5793
 6303TIP3   OH240543   3.287   2.428   8.123  0.0987 -0.3901 -0.4107
 6303TIP3    H140544   3.193   2.412   8.138  0.2373  0.8766  2.3061
 6303TIP3    H240545   3.328   2.342   8.136 -0.5406 -0.6580 -0.1135
 6304TIP3   OH240546   6.384   3.319   7.541  0.1763  0.4368 -0.2797
 6304TIP3    H140547   6.435   3.321   7.623  0.0105 -1.3343 -0.0856
 6304TIP3    H240548   6.449   3.337   7.473  1.4048 -2.7342 -0.1256
 6305TIP3   OH240549   4.992   6.627   7.966  0.3034 -0.9377  0.3635
 6305TIP3    H140550   5.006   6.721   7.954  1.0494 -0.8949  1.3762
 6305TIP3    H240551   4.900   6.613   7.945  0.1319  0.0667  0.4177
 6306TIP3   OH240552   6.802   6.324   0.324 -0.1596 -0.0500 -0.1725
 6306TIP3    H140553   6.864   6.258   0.356  0.3237  0.2490 -0.4668
 6306TIP3    H240554   6.801   6.311   0.230  1.2843  1.4699 -0.4484
 6307TIP3   OH240555   0.599   1.017   1.461  0.1310  0.0338  0.3943
 6307TIP3    H140556   0.634   1.104   1.444 -1.3139  0.5413 -0.1343
 6307TIP3    H240557   0.582   0.981   1.374 -1.5032  0.1755  0.6396
 6308TIP3   OH240558   6.162   6.472   0.829 -0.0663  0.0983  0.6230
 6308TIP3    H140559   6.089   6.441   0.883 -2.2476  1.7987 -1.1803
 6308TIP3    H240560   6.140   6.562   0.807  2.2989  0.4801 -0.5213
 6309TIP3   OH240561   6.256   0.245   1.491  0.3397 -0.0842  0.3625
 6309TIP3    H140562   6.325   0.242   1.424 -0.6343 -0.5844 -0.6525
 6309TIP3    H240563   6.179   0.212   1.447 -0.2880 -0.6612  1.8354
 6310TIP3   OH240564   6.425   4.784   7.507  0.0493 -0.7931 -0.6744
 6310TIP3    H140565   6.362   4.761   7.439  2.0439  1.2849 -3.4535
 6310TIP3    H240566   6.510   4.758   7.471  1.2015  0.5516  0.9293
 6311TIP3   OH240567   3.459   5.166   0.127  0.2728  0.4588 -0.1493
 6311TIP3    H140568   3.505   5.157   0.043  0.8726  0.5140  0.1720
 6311TIP3    H240569   3.366   5.169   0.103  0.4636  1.0232 -0.8561
 6312TIP3   OH240570   6.389   1.125   7.826  0.0671  0.1110  0.1956
 6312TIP3    H140571   6.344   1.104   7.908 -0.0505  0.9623  0.3549
 6312TIP3    H240572   6.321   1.120   7.759 -0.1003  0.6056  0.3242
 6313TIP3   OH240573   3.128   4.673   6.524  0.1731 -0.0119  0.0629
 6313TIP3    H140574   3.132   4.595   6.469  1.2595 -2.2859  3.0889
 6313TIP3    H240575   3.220   4.696   6.540 -0.1112  2.2639 -1.1007
 6314TIP3   OH240576   4.730   1.263   7.897 -0.5864 -0.3222  0.2094
 6314TIP3    H140577   4.736   1.357   7.913  0.1501  0.0674 -1.9431
 6314TIP3    H240578   4.807   1.226   7.941 -1.3606 -0.0881  1.8356
 6315TIP3   OH240579   0.688   1.901   2.325 -0.2724 -0.2319 -0.2646
 6315TIP3    H140580   0.781   1.906   2.348 -0.0935  0.1979 -1.0010
 6315TIP3    H240581   0.656   1.990   2.340 -0.8353 -0.6310  0.9991
 6316TIP3   OH240582   3.861   4.709   1.420 -0.4448  0.2783  0.2676
 6316TIP3    H140583   3.790   4.699   1.356 -0.3236 -0.3767  0.2313
 6316TIP3    H240584   3.916   4.632   1.407  0.0968  0.6195  0.5231
 6317TIP3   OH240585   5.518   6.206   2.178  0.0329  0.6136 -0.3259
 6317TIP3    H140586   5.597   6.151   2.180  1.2627  2.1679 -2.0341
 6317TIP3    H240587   5.445   6.144   2.174  1.1820 -0.8756  0.6170
 6318TIP3   OH240588   3.872   1.829   6.787 -0.2921  0.7675 -0.1022
 6318TIP3    H140589   3.866   1.736   6.766  0.6349 -0.0875  2.9993
 6318TIP3    H240590   3.817   1.871   6.720 -2.0097 -2.1160 -0.6983
 6319TIP3   OH240591   2.239   5.002   8.633 -0.0403  0.5231  0.3810
 6319TIP3    H140592   2.315   4.968   8.587 -0.5504 -2.8392  1.7564
 6319TIP3    H240593   2.264   5.002   8.726 -1.2051  0.7681  0.7228
 6320TIP3   OH240594   0.889   5.543   0.665  0.2630  0.4576 -0.3787
 6320TIP3    H140595   0.861   5.489   0.591 -1.3731  1.8497 -0.8526
 6320TIP3    H240596   0.808   5.586   0.694  1.1386  1.0233  1.3209
 6321TIP3   OH240597   2.254   2.003   7.538 -0.3280  0.0949 -0.0334
 6321TIP3    H140598   2.253   2.057   7.460 -3.0257 -1.3894 -1.1750
 6321TIP3    H240599   2.210   2.055   7.605 -2.6757 -0.4439 -1.0508
 6322TIP3   OH240600   5.397   0.488   0.825 -0.4024 -0.8498 -0.1912
 6322TIP3    H140601   5.314   0.468   0.869 -1.3743  1.8764 -0.5541
 6322TIP3    H240602   5.385   0.453   0.736 -1.3989 -0.0997 -0.3807
 6323TIP3   OH240603   4.796   0.885   7.848 -0.2331  0.5272 -0.3562
 6323TIP3    H140604   4.811   0.790   7.854 -0.2781  0.2787 -3.0243
 6323TIP3    H240605   4.704   0.892   7.820  0.0965  1.2943 -1.2724
 6324TIP3   OH240606   1.770   6.464   6.632 -0.4006  0.7121 -0.2079
 6324TIP3    H140607   1.862   6.475   6.609  0.1945  0.0261  1.6392
 6324TIP3    H240608   1.772   6.427   6.720 -2.4469 -0.6016 -0.6553
 6325TIP3   OH240609   5.004   5.021   6.950 -0.5994  0.1371  0.3245
 6325TIP3    H140610   4.963   5.030   7.036  2.5165  0.7057  1.9028
 6325TIP3    H240611   5.002   5.109   6.913 -0.0459  0.3674  0.8185
 6326TIP3   OH240612   6.491   3.722   1.433 -0.4951  0.3147  0.1114
 6326TIP3    H140613   6.496   3.629   1.411 -1.9015 -0.3560  2.2646
 6326TIP3    H240614   6.538   3.730   1.516 -0.6109  1.4860  0.0831
 6327TIP3   OH240615   6.830   3.335   7.513  0.0078  0.3654 -0.2006
 6327TIP3    H140616   6.749   3.378   7.485 -1.9332 -2.4711  0.5903
 6327TIP3    H240617   6.822   3.327   7.608 -1.4764 -4.5138 -0.4928
 6328TIP3   OH240618   5.678   6.145   1.648  0.6213  0.3983 -0.3857
 6328TIP3    H140619   5.761   6.192   1.656  0.3244  0.7101  1.2118
 6328TIP3    H240620   5.633   6.162   1.731 -0.9596  0.0687 -1.1451
 6329TIP3   OH240621   2.717   2.703   7.950  0.2255 -0.6579  0.0625
 6329TIP3    H140622   2.782   2.770   7.969 -0.1542  0.5938 -2.6111
 6329TIP3    H240623   2.633   2.748   7.956 -0.2586 -1.6113  0.8853
 6330TIP3   OH240624   2.459   0.013   2.142 -0.2652 -0.6588 -0.2024
 6330TIP3    H140625   2.472  -0.025   2.055 -0.9301 -1.0519 -0.1338
 6330TIP3    H240626   2.530  -0.024   2.195 -0.4124 -1.1499 -0.3453
 6331TIP3   OH240627   1.047   1.260   0.195  0.1550 -1.1569 -0.1518
 6331TIP3    H140628   0.983   1.193   0.219 -0.0851 -1.7444 -2.2403
 6331TIP3    H240629   1.110   1.215   0.140  3.9222 -1.2070  3.6557
 6332TIP3   OH240630   6.107   6.649   8.054 -0.2949  0.0742 -0.2995
 6332TIP3    H140631   6.138   6.620   8.140  0.2172 -3.1924 -1.4373
 6332TIP3    H240632   6.020   6.684   8.071  0.4855  1.2130  1.7486
 6333TIP3   OH240633   0.621   3.216   7.793  0.0190  0.1885  0.1958
 6333TIP3    H140634   0.660   3.172   7.717 -1.3075 -0.8373  0.0731
 6333TIP3    H240635   0.633   3.309   7.775  2.2426 -0.0627  0.1009
 6334TIP3   OH240636   0.960   6.030   8.143 -0.1724  0.0988 -0.7808
 6334TIP3    H140637   0.933   6.034   8.051 -1.2598 -2.7216 -0.6827
 6334TIP3    H240638   0.882   6.055   8.192  0.6270  2.3853 -0.5330
 6335TIP3   OH240639   2.354   6.404   8.122  0.2516  0.9114 -0.0112
 6335TIP3    H140640   2.397   6.489   8.126 -1.4183  1.7729  2.0632
 6335TIP3    H240641   2.423   6.341   8.143  1.3753  1.7903 -0.9468
 6336TIP3   OH240642   0.432   2.222   1.136  0.4684 -0.4806 -0.3190
 6336TIP3    H140643   0.346   2.259   1.119  0.1824 -0.6975  0.5622
 6336TIP3    H240644   0.424   2.183   1.224  0.3031 -3.8482 -1.6747
 6337TIP3   OH240645   3.082   2.683   8.093 -0.1008 -0.4548  0.2238
 6337TIP3    H140646   3.062   2.599   8.136  2.2669 -0.8518  0.7189
 6337TIP3    H240647   3.155   2.718   8.144  0.0029  1.1445 -0.9684
 6338TIP3   OH240648   2.357   0.492   7.497 -0.4343  0.0198  0.2964
 6338TIP3    H140649   2.418   0.419   7.491 -0.3410  0.0879  0.4167
 6338TIP3    H240650   2.387   0.554   7.430  0.3608  0.5957  1.1540
 6339TIP3   OH240651   4.972   0.495   2.180  0.0580  0.0915 -0.0505
 6339TIP3    H140652   4.912   0.570   2.188 -0.5274  0.1299 -3.2101
 6339TIP3    H240653   4.914   0.419   2.173  0.6505 -0.8935  3.6585
 6340TIP3   OH240654   5.498   3.564   0.827  0.1583  0.0809  0.0984
 6340TIP3    H140655   5.444   3.637   0.857 -3.7668 -2.8068  0.8789
 6340TIP3    H240656   5.487   3.562   0.732  0.8360  0.8438 -0.0048
 6341TIP3   OH240657   6.513   2.127   0.838  0.1461 -0.0878 -0.4032
 6341TIP3    H140658   6.431   2.159   0.799 -0.0316 -0.6891 -0.5402
 6341TIP3    H240659   6.490   2.040   0.872  0.6109 -0.0615 -0.0251
 6342TIP3   OH240660   0.238   1.405   7.499  0.2335  0.0297  0.1715
 6342TIP3    H140661   0.186   1.444   7.569  0.9840  2.1125 -0.3608
 6342TIP3    H240662   0.285   1.333   7.541 -1.3339 -0.4681  1.1572
 6343TIP3   OH240663   4.529   3.526   2.119  0.2784  0.4432  0.3604
 6343TIP3    H140664   4.525   3.431   2.103  1.2496  0.4672 -0.1212
 6343TIP3    H240665   4.576   3.561   2.043  2.3566  0.9584  1.7999
 6344TIP3   OH240666   2.518   3.713   0.077 -0.5928 -0.6926 -0.5570
 6344TIP3    H140667   2.444   3.766   0.104 -1.9723 -1.6118 -2.3331
 6344TIP3    H240668   2.542   3.746  -0.010  0.0285 -1.4543 -0.6934
 6345TIP3   OH240669   3.706   5.866   0.474 -0.0606 -0.2600  0.0305
 6345TIP3    H140670   3.656   5.932   0.425  1.4841  0.8926 -0.0554
 6345TIP3    H240671   3.763   5.826   0.409 -0.9599 -1.7078  0.0911
 6346TIP3   OH240672   5.260   6.364   0.951  0.3020  0.4493 -0.0848
 6346TIP3    H140673   5.241   6.401   1.037  0.4928 -1.1389  0.6657
 6346TIP3    H240674   5.356   6.361   0.946  0.2973  0.7951 -0.4769
 6347TIP3   OH240675   4.283   0.064   7.656  0.0831 -0.4545  0.3646
 6347TIP3    H140676   4.193   0.092   7.674  0.4757  0.1211  1.5554
 6347TIP3    H240677   4.317   0.037   7.741  1.4822  0.6773  0.2014
 6348TIP3   OH240678   0.397   1.539   8.641 -0.3335 -0.0280 -0.1862
 6348TIP3    H140679   0.386   1.489   8.722  0.9088 -1.2487 -0.7485
 6348TIP3    H240680   0.378   1.630   8.667  1.2033 -0.1892  1.7879
 6349TIP3   OH240681   1.646   4.756   1.582 -0.0791 -0.1964  0.9783
 6349TIP3    H140682   1.706   4.706   1.637  0.3167  0.2007  0.9097
 6349TIP3    H240683   1.703   4.811   1.528 -0.5549  1.2292  1.8979
 6350TIP3   OH240684   4.524   0.136   7.508 -0.1999  0.1308  0.4043
 6350TIP3    H140685   4.569   0.103   7.586 -0.2810 -2.3049 -0.5233
 6350TIP3    H240686   4.431   0.122   7.526 -0.3683  1.3117  0.5860
 6351TIP3   OH240687   5.469   4.439   7.389  0.4539  1.0512  0.5025
 6351TIP3    H140688   5.555   4.412   7.359  0.5176  0.4585  1.2040
 6351TIP3    H240689   5.430   4.484   7.313  0.2375 -1.2243 -0.8402
 6352TIP3   OH240690   0.573   2.503   8.360  0.5820 -0.9803  0.0555
 6352TIP3    H140691   0.520   2.532   8.434  0.6512 -0.1865 -0.2019
 6352TIP3    H240692   0.584   2.581   8.306  1.5066 -1.2762 -0.2021
 6353TIP3   OH240693   1.079   6.337   7.101 -0.4042  0.2940 -0.1121
 6353TIP3    H140694   1.067   6.429   7.123  1.1089  0.3302  0.6777
 6353TIP3    H240695   1.150   6.308   7.157 -1.5329 -1.6431  0.4091
 6354TIP3   OH240696   5.017   4.030   7.202 -0.7181  0.0083  0.1685
 6354TIP3    H140697   4.950   4.069   7.147 -1.1217  0.9158  1.2612
 6354TIP3    H240698   4.998   4.063   7.290  2.3398  1.9587  0.2410
 6355TIP3   OH240699   1.961   1.111   6.703 -0.1439  0.4620 -0.1922
 6355TIP3    H140700   2.046   1.154   6.697 -0.5603  1.3652  0.2541
 6355TIP3    H240701   1.972   1.045   6.771  0.0337  0.9902  0.3012
 6356TIP3   OH240702   1.268   2.460   0.427  0.8674  0.2581 -0.0641
 6356TIP3    H140703   1.318   2.413   0.361  0.2098  0.7005 -0.9037
 6356TIP3    H240704   1.198   2.504   0.378  0.7125  1.0826  0.8433
 6357TIP3   OH240705   5.079   1.011   8.756  0.1397  0.0733 -0.4646
 6357TIP3    H140706   5.064   1.053   8.841 -1.5359  2.2526 -1.7362
 6357TIP3    H240707   5.145   1.064   8.714 -0.6373  0.3451 -1.3697
 6358TIP3   OH240708   0.358   6.092   0.939  0.3376  0.6181 -0.5236
 6358TIP3    H140709   0.265   6.084   0.959  0.0311 -0.4669 -2.1320
 6358TIP3    H240710   0.376   6.017   0.881  2.3028  0.5756  0.0728
 6359TIP3   OH240711   3.082   6.574   6.977 -0.4199 -0.1050 -0.4720
 6359TIP3    H140712   3.084   6.508   7.047  0.7314  0.0746 -0.3211
 6359TIP3    H240713   3.131   6.648   7.013 -1.0596  0.5571 -0.9298
 6360TIP3   OH240714   2.675   2.722   6.259  0.3725  0.5113 -0.0094
 6360TIP3    H140715   2.690   2.628   6.243  0.3071  0.7647 -1.7100
 6360TIP3    H240716   2.761   2.762   6.248  0.8148  0.4752  2.6263
 6361TIP3   OH240717   3.777   6.220   8.006  0.2155  0.4771  0.1086
 6361TIP3    H140718   3.870   6.201   7.997  0.5378  0.7983  2.3188
 6361TIP3    H240719   3.733   6.136   7.997  0.7160  0.3033 -0.7724
 6362TIP3   OH240720   3.962   2.909   8.813  1.1319  1.2027 -0.4271
 6362TIP3    H140721   3.925   2.950   8.891  1.0539 -1.6357  1.1931
 6362TIP3    H240722   3.890   2.909   8.749 -0.4720 -0.5743  1.2406
 6363TIP3   OH240723   3.806   5.343   7.715 -0.5506 -0.3212 -0.2017
 6363TIP3    H140724   3.868   5.299   7.656  0.7765  0.4763  0.5329
 6363TIP3    H240725   3.862   5.399   7.769 -1.9118  0.1764  0.7180
 6364TIP3   OH240726   0.596   5.781   2.845 -0.8136  0.9029  0.1280
 6364TIP3    H140727   0.623   5.784   2.753 -2.2303 -0.8616 -0.4183
 6364TIP3    H240728   0.523   5.719   2.846  0.8312 -1.2192  2.8681
 6365TIP3   OH240729   5.322   0.917   6.855 -0.1303  0.1896  0.4406
 6365TIP3    H140730   5.338   0.890   6.765  0.7087 -0.1307  0.6762
 6365TIP3    H240731   5.310   0.835   6.904 -1.1016  0.3722  0.5445
 6366TIP3   OH240732   6.549   4.809   0.724  0.1345  0.5891  0.0854
 6366TIP3    H140733   6.477   4.793   0.784  0.5024  0.8642  0.6079
 6366TIP3    H240734   6.509   4.804   0.637 -0.2279 -0.6685  0.3124
 6367TIP3   OH240735   6.609   4.466   8.197 -0.1442  0.1620 -0.4088
 6367TIP3    H140736   6.603   4.507   8.110 -0.2257 -0.5615 -0.7493
 6367TIP3    H240737   6.644   4.379   8.180 -0.2463 -0.0162  0.2821
 6368TIP3   OH240738   3.696   2.720   8.437  0.1037  0.0395  0.3829
 6368TIP3    H140739   3.638   2.663   8.487  0.4794 -0.5785  0.1316
 6368TIP3    H240740   3.668   2.709   8.346 -0.3130  0.8427  0.4124
 6369TIP3   OH240741   6.376   4.277   8.388 -0.6183 -0.0842  0.1452
 6369TIP3    H140742   6.414   4.269   8.476 -2.5395 -1.7023  0.8902
 6369TIP3    H240743   6.429   4.218   8.334  0.2679  0.5526  0.2896
 6370TIP3   OH240744   6.671   1.025   1.077  0.3218 -0.2836  0.1618
 6370TIP3    H140745   6.600   1.021   1.142  3.0178  0.3917  3.4571
 6370TIP3    H240746   6.699   0.934   1.068 -1.2026 -0.6331 -1.5885
 6371TIP3   OH240747   6.212   0.549   1.584  0.1820  0.1380  0.2085
 6371TIP3    H140748   6.155   0.485   1.541  0.7616 -1.1120  1.2429
 6371TIP3    H240749   6.298   0.535   1.544  0.1616  0.7928 -0.0810
 6372TIP3   OH240750   1.458   0.698   0.834 -0.8050  0.0142  0.6004
 6372TIP3    H140751   1.527   0.666   0.894  0.5410 -1.0784 -1.4134
 6372TIP3    H240752   1.416   0.618   0.802 -0.6283  0.4965 -0.8733
 6373TIP3   OH240753   2.586   2.077   7.046  0.2905 -0.1183 -0.4378
 6373TIP3    H140754   2.662   2.135   7.036  0.5019 -0.5502 -1.5255
 6373TIP3    H240755   2.520   2.114   6.988 -0.0895 -0.1441 -0.0275
 6374TIP3   OH240756   6.488   6.328   1.144  0.0315 -0.0527  0.0368
 6374TIP3    H140757   6.408   6.378   1.160  0.8687  1.9785 -1.6637
 6374TIP3    H240758   6.477   6.292   1.056 -0.2552 -2.3623  0.9698
 6375TIP3   OH240759   2.901   5.751   8.330 -0.2431 -0.2336  0.5720
 6375TIP3    H140760   2.990   5.775   8.355  0.0041  1.3860 -1.5230
 6375TIP3    H240761   2.884   5.668   8.375  1.5831  0.3683  2.5213
 6376TIP3   OH240762   4.555   2.023   7.916  0.4840  0.4621 -0.4326
 6376TIP3    H140763   4.514   1.941   7.944 -0.8836  1.2446 -0.0837
 6376TIP3    H240764   4.501   2.055   7.844  2.2842 -0.0272 -2.0804
 6377TIP3   OH240765   3.647   4.005   1.635  0.1687  0.0421  0.0464
 6377TIP3    H140766   3.612   4.071   1.574 -1.2062 -1.2460 -0.6491
 6377TIP3    H240767   3.689   4.055   1.704  0.7326  1.5944 -1.3578
 6378TIP3   OH240768   4.995   3.551   7.122 -0.0330  0.5167 -0.3858
 6378TIP3    H140769   5.013   3.637   7.160 -1.4655  0.5861  0.1765
 6378TIP3    H240770   5.058   3.544   7.050  1.0965  1.3989  0.4704
 6379TIP3   OH240771   4.859   1.073   8.588 -0.0024 -0.8558 -0.2639
 6379TIP3    H140772   4.884   1.055   8.678 -0.5492 -0.7896 -0.0948
 6379TIP3    H240773   4.782   1.131   8.595  0.9357  0.5049 -0.7788
 6380TIP3   OH240774   2.399   3.965   0.736 -0.7053  0.0725 -0.1890
 6380TIP3    H140775   2.320   3.912   0.733 -0.6595 -0.0805  0.8936
 6380TIP3    H240776   2.385   4.025   0.809  0.1016  0.1509 -0.0898
 6381TIP3   OH240777   4.420   1.609   1.097 -0.0975  0.4265 -0.0547
 6381TIP3    H140778   4.499   1.555   1.111 -0.9027 -0.7369  0.1639
 6381TIP3    H240779   4.375   1.608   1.181 -0.9503  0.0485 -0.5008
 6382TIP3   OH240780   2.672   4.884   0.705 -0.0408  0.1300 -0.5558
 6382TIP3    H140781   2.697   4.966   0.662 -0.8254  0.2440 -0.8069
 6382TIP3    H240782   2.649   4.910   0.794  1.5850 -0.1061 -0.0261
 6383TIP3   OH240783   5.898   0.108   1.477  0.2478  0.1868 -0.3020
 6383TIP3    H140784   5.843   0.134   1.552  1.3846 -2.2927  1.5415
 6383TIP3    H240785   5.835   0.081   1.410 -0.8032  0.5995  0.4815
 6384TIP3   OH240786   6.734   3.588   8.226  0.1241 -0.1943 -0.0460
 6384TIP3    H140787   6.762   3.572   8.316  0.7706 -0.3400 -0.2701
 6384TIP3    H240788   6.801   3.647   8.190  0.1942 -0.6091 -0.6125
 6385TIP3   OH240789   4.215   2.582   0.146  0.1688 -0.4362 -0.3996
 6385TIP3    H140790   4.262   2.648   0.096 -1.1655  1.1021  0.2842
 6385TIP3    H240791   4.283   2.536   0.196  1.0796  0.8560 -0.4135
 6386TIP3   OH240792   1.863   3.259   1.088 -0.1183 -0.3454  0.3512
 6386TIP3    H140793   1.779   3.263   1.041 -0.3464 -0.4336  0.7492
 6386TIP3    H240794   1.846   3.202   1.163  0.3554 -0.5250  0.3229
 6387TIP3   OH240795   4.158   2.557   8.257  0.0681  0.1002 -0.4021
 6387TIP3    H140796   4.127   2.528   8.343 -1.3084  1.3568 -0.4319
 6387TIP3    H240797   4.244   2.596   8.275  0.2116 -0.4916  0.2337
 6388TIP3   OH240798   1.983   5.791   8.679 -0.4051 -0.1905 -0.1039
 6388TIP3    H140799   2.060   5.765   8.628 -2.4141 -2.4375 -2.2646
 6388TIP3    H240800   1.980   5.728   8.752 -0.1809 -0.0589  0.0201
 6389TIP3   OH240801   5.711   3.721   8.087 -0.0674  0.5179  0.2172
 6389TIP3    H140802   5.768   3.679   8.152 -0.3209  0.0504  0.1439
 6389TIP3    H240803   5.634   3.749   8.136  0.4153  1.5562  0.4006
 6390TIP3   OH240804   3.988   5.250   7.518  0.4255  0.2748  1.0652
 6390TIP3    H140805   4.051   5.278   7.452  0.8804 -0.1646  1.3105
 6390TIP3    H240806   4.035   5.185   7.570 -0.9154 -1.8240 -0.1611
 6391TIP3   OH240807   2.858   6.248   0.214 -0.2420  0.3496  0.1805
 6391TIP3    H140808   2.870   6.338   0.245  2.0375 -0.4106  1.6867
 6391TIP3    H240809   2.785   6.214   0.266 -0.8975  1.1746 -0.1656
 6392TIP3   OH240810   6.705   6.851   1.005 -0.0096  0.3383  0.1820
 6392TIP3    H140811   6.722   6.762   0.974  1.4234 -0.1085  2.0888
 6392TIP3    H240812   6.712   6.845   1.100  0.5147  2.5791  0.3345
 6393TIP3   OH240813   1.782   1.124   0.223 -0.0124  0.1164  0.2516
 6393TIP3    H140814   1.854   1.145   0.283  0.5922 -0.1805 -0.3641
 6393TIP3    H240815   1.790   1.187   0.152 -0.0446 -0.2423 -0.0743
 6394TIP3   OH240816   5.142   1.529   8.310  0.1238  0.6903 -0.3337
 6394TIP3    H140817   5.173   1.510   8.222 -0.5394  0.7930 -0.5967
 6394TIP3    H240818   5.209   1.586   8.348  0.3474  0.7508 -0.8171
 6395TIP3   OH240819   1.570   6.541   1.549 -0.3383 -0.0945  0.2844
 6395TIP3    H140820   1.582   6.571   1.459 -0.7746  0.6651  0.4726
 6395TIP3    H240821   1.504   6.472   1.543  1.0929 -1.4790 -0.2285
 6396TIP3   OH240822   1.194   4.269   6.995  0.0085  0.2389  0.4331
 6396TIP3    H140823   1.181   4.187   6.946  0.6233 -0.3163  1.1806
 6396TIP3    H240824   1.202   4.336   6.927  1.1321 -0.5663 -0.2558
 6397TIP3   OH240825   2.483   0.444   7.156  0.6592  1.0552  0.3504
 6397TIP3    H140826   2.538   0.482   7.086  1.3871  1.1189  0.9428
 6397TIP3    H240827   2.479   0.512   7.223  0.5685  0.7219  0.6875
 6398TIP3   OH240828   5.934   4.784   8.454 -0.0354  0.6147  0.3711
 6398TIP3    H140829   5.919   4.779   8.548  0.6194  0.1295  0.4555
 6398TIP3    H240830   5.991   4.709   8.435 -1.1997 -0.0440 -0.6193
 6399TIP3   OH240831   5.201   4.915   0.637  0.2397  0.2874 -0.2131
 6399TIP3    H140832   5.149   4.912   0.718  0.0360  0.9591 -0.3167
 6399TIP3    H240833   5.288   4.888   0.665  0.1390  0.3742  0.2019
 6400TIP3   OH240834   4.592   1.790   0.445  0.2149 -0.0930 -0.7170
 6400TIP3    H140835   4.547   1.804   0.528 -1.7837  0.3933 -1.8193
 6400TIP3    H240836   4.659   1.724   0.465 -1.0115 -0.8983  0.9998
 6401TIP3   OH240837   0.967   4.570   7.638  0.3352 -0.4852 -0.5352
 6401TIP3    H140838   0.959   4.527   7.553  0.7821  0.6635 -1.1874
 6401TIP3    H240839   0.878   4.599   7.659  0.1724 -1.0318 -0.4665
 6402TIP3   OH240840   2.125   2.252   7.630  0.4257 -0.1279 -0.1600
 6402TIP3    H140841   2.048   2.213   7.588  1.0178 -2.1956  0.5768
 6402TIP3    H240842   2.089   2.324   7.682 -0.8171 -0.1407 -0.9490
 6403TIP3   OH240843   6.707   0.137   8.126  0.3956  0.5595 -0.9260
 6403TIP3    H140844   6.706   0.058   8.179 -0.7498  1.2127  0.0875
 6403TIP3    H240845   6.755   0.201   8.179  1.2422  0.5784 -1.6986
 6404TIP3   OH240846   2.102   1.373   7.982 -0.0017 -0.2127  0.2271
 6404TIP3    H140847   2.053   1.303   8.026 -1.5525  0.5537 -0.2171
 6404TIP3    H240848   2.035   1.431   7.947  1.2008  2.7634  2.4881
 6405TIP3   OH240849   3.267   4.005   1.063  0.1799 -0.0715 -0.0847
 6405TIP3    H140850   3.184   3.960   1.080 -0.1101  0.6796  0.5549
 6405TIP3    H240851   3.243   4.085   1.017  0.4126  0.7189  1.1092
 6406TIP3   OH240852   5.438   3.623   6.509 -0.5552  0.0682 -0.7257
 6406TIP3    H140853   5.473   3.711   6.516 -0.5109 -0.0471  0.8428
 6406TIP3    H240854   5.498   3.577   6.449  1.7739  0.0037  1.5016
 6407TIP3   OH240855   2.982   5.939   1.908  0.7206 -0.1035  0.3351
 6407TIP3    H140856   2.970   6.008   1.843 -1.1702 -0.7956 -0.0880
 6407TIP3    H240857   2.980   5.985   1.992 -0.6293  0.3596  0.0632
 6408TIP3   OH240858   3.926   0.413   0.875 -0.1669 -0.1543 -0.0583
 6408TIP3    H140859   3.877   0.495   0.868  0.8718  0.3790 -2.0638
 6408TIP3    H240860   4.004   0.435   0.925  0.2881  0.2036 -0.9059
 6409TIP3   OH240861   5.958   3.925   0.394  0.3896 -0.4300 -0.3620
 6409TIP3    H140862   5.937   3.891   0.307  1.2902 -3.1607  0.3821
 6409TIP3    H240863   6.045   3.965   0.383 -0.4063  1.2072 -1.1136
 6410TIP3   OH240864   0.165   1.707   7.799 -0.0700  0.0398  0.0842
 6410TIP3    H140865   0.200   1.678   7.883  3.7276 -1.5403 -1.8136
 6410TIP3    H240866   0.139   1.626   7.755  1.4409  0.3872 -1.5610
 6411TIP3   OH240867   0.001   0.281   8.294  0.2656 -0.1084 -0.0052
 6411TIP3    H140868  -0.020   0.373   8.312 -0.7200  0.3054 -2.8111
 6411TIP3    H240869   0.090   0.270   8.328  0.2494  1.7567  0.7686
 6412TIP3   OH240870   2.983   5.702   0.830  0.0752 -0.0634  0.3871
 6412TIP3    H140871   2.994   5.789   0.871 -0.5668 -0.2650  1.0253
 6412TIP3    H240872   2.985   5.719   0.736 -2.0126  0.9645  0.4617
 6413TIP3   OH240873   0.550   5.479   7.909  0.2471  0.0990 -0.1467
 6413TIP3    H140874   0.608   5.404   7.923 -1.3995 -1.5433 -1.5671
 6413TIP3    H240875   0.480   5.467   7.973 -0.1781  0.2202 -0.5817
 6414TIP3   OH240876   2.559   1.038   0.768  0.0224  0.2747 -1.1057
 6414TIP3    H140877   2.585   0.959   0.817 -0.5769  0.0535 -1.1378
 6414TIP3    H240878   2.623   1.043   0.697 -0.8273 -1.0745 -2.0231
 6415TIP3   OH240879   0.353   2.014   0.225 -0.5464 -0.2790 -0.1226
 6415TIP3    H140880   0.411   1.985   0.155 -0.4848  0.5862 -0.4432
 6415TIP3    H240881   0.407   2.073   0.278 -1.6228  2.2433 -1.6127
 6416TIP3   OH240882   3.934   2.224   2.308 -0.2474  0.9378  0.2328
 6416TIP3    H140883   3.903   2.144   2.264  0.6026  0.6025  0.2203
 6416TIP3    H240884   4.028   2.211   2.316 -0.3626  1.0313  2.0874
 6417TIP3   OH240885   0.904   5.403   6.744 -0.9422  0.3657 -0.4229
 6417TIP3    H140886   0.813   5.389   6.769 -1.4550 -0.0375 -2.3291
 6417TIP3    H240887   0.901   5.419   6.649  0.8973  1.0764 -0.4096
 6418TIP3   OH240888   5.591   6.153   1.378  0.3101  0.3219  0.2077
 6418TIP3    H140889   5.621   6.165   1.468 -0.3848 -0.1814  0.5079
 6418TIP3    H240890   5.502   6.118   1.386  0.1123  0.6009 -0.6729
 6419TIP3   OH240891   4.578   6.137   8.811  0.3343  0.6364  0.2788
 6419TIP3    H140892   4.655   6.155   8.757  0.9122  0.4999  1.0314
 6419TIP3    H240893   4.614   6.109   8.895 -0.5141  1.9052  1.1098
 6420TIP3   OH240894   1.581   0.001   2.333  0.3498 -0.4784  0.0263
 6420TIP3    H140895   1.649  -0.056   2.296  0.3769  0.5265 -1.5333
 6420TIP3    H240896   1.537  -0.054   2.398  2.0907 -1.4264  0.4882
 6421TIP3   OH240897   2.840   6.455   7.841  0.4242  0.5457 -0.1988
 6421TIP3    H140898   2.826   6.477   7.933 -1.3287 -0.7893 -0.0937
 6421TIP3    H240899   2.934   6.440   7.834  0.4744 -0.2158  1.5962
 6422TIP3   OH240900   1.501   5.604   7.370 -0.0888 -0.1193 -0.3326
 6422TIP3    H140901   1.527   5.656   7.445  0.1315  0.4867 -0.8227
 6422TIP3    H240902   1.511   5.513   7.399  0.1558  0.1064  0.3066
 6423TIP3   OH240903   0.703   4.975   0.514  0.4079 -0.1801  0.9670
 6423TIP3    H140904   0.614   5.011   0.513  0.8107  0.8279 -0.0685
 6423TIP3    H240905   0.710   4.933   0.600 -0.9108  0.1007  1.2397
 6424TIP3   OH240906   4.222   5.061   2.113  0.3618  0.1792  0.3765
 6424TIP3    H140907   4.281   4.987   2.097  0.2585  0.1722  0.0201
 6424TIP3    H240908   4.280   5.133   2.135  0.6620  0.6791 -1.8310
 6425TIP3   OH240909   0.088   3.686   6.229  0.5411  0.3017 -0.0552
 6425TIP3    H140910  -0.005   3.696   6.212  0.5284 -0.0783 -0.2306
 6425TIP3    H240911   0.110   3.758   6.288  0.2215  0.6188 -0.3221
 6426TIP3   OH240912   4.425   5.414   0.617 -0.9462  0.9884 -0.1940
 6426TIP3    H140913   4.490   5.472   0.656 -0.1387  0.0164 -0.0826
 6426TIP3    H240914   4.475   5.350   0.567 -1.5659 -1.5026  2.1367
 6427TIP3   OH240915   4.185   5.024   1.373 -0.3842  0.3219 -0.4738
 6427TIP3    H140916   4.201   5.061   1.460 -0.0665 -0.6330 -0.1163
 6427TIP3    H240917   4.271   5.021   1.332 -0.3925 -0.1457 -0.4539
 6428TIP3   OH240918   1.389   4.768   7.582 -0.5389  0.3971 -0.1338
 6428TIP3    H140919   1.398   4.777   7.677 -2.2952 -0.9504  0.2280
 6428TIP3    H240920   1.302   4.802   7.562 -0.4417  0.0887 -1.1794
 6429TIP3   OH240921   3.741   3.054   7.859  0.0410  0.3626  0.1172
 6429TIP3    H140922   3.704   2.966   7.856  1.1794 -0.1351  0.1693
 6429TIP3    H240923   3.751   3.072   7.953  0.3770  0.2913  0.0970
 6430TIP3   OH240924   4.635   5.303   1.496  0.0685  0.3425 -0.2564
 6430TIP3    H140925   4.680   5.311   1.580  0.2752  2.0644 -0.5020
 6430TIP3    H240926   4.697   5.256   1.440 -0.4115 -1.5866  0.7620
 6431TIP3   OH240927   2.008   1.823   0.014 -0.0576 -0.5062 -0.6543
 6431TIP3    H140928   1.948   1.788  -0.052 -0.2265  0.1804 -0.8704
 6431TIP3    H240929   1.980   1.914   0.026  0.1972 -0.5247  0.1061
 6432TIP3   OH240930   2.350   4.152   7.278 -0.3436  0.1492 -0.3312
 6432TIP3    H140931   2.282   4.178   7.217  0.5445  4.0354  0.1129
 6432TIP3    H240932   2.432   4.172   7.234  0.4542 -0.9246  0.5875
 6433TIP3   OH240933   4.795   6.403   7.594 -0.0743  0.2953  0.2988
 6433TIP3    H140934   4.768   6.312   7.597 -0.5434  0.3397 -1.5279
 6433TIP3    H240935   4.720   6.451   7.629 -0.6202  0.0937 -0.5591
 6434TIP3   OH240936   1.486   2.201   7.459 -0.2853 -0.1936 -0.5329
 6434TIP3    H140937   1.535   2.282   7.468  2.2480 -1.7868  1.7383
 6434TIP3    H240938   1.442   2.191   7.544 -0.4574 -1.2261 -0.7341
 6435TIP3   OH240939   2.669   4.749   8.548  0.1214  0.4174  0.2108
 6435TIP3    H140940   2.621   4.667   8.560 -2.8466  1.9145 -0.3935
 6435TIP3    H240941   2.679   4.758   8.453  2.3339 -0.1762  0.3367
 6436TIP3   OH240942   3.079   6.736   0.713  0.3522  0.0370  0.3867
 6436TIP3    H140943   3.099   6.644   0.701 -0.0237  0.0967 -0.8508
 6436TIP3    H240944   3.161   6.781   0.691 -0.1010  0.0984 -1.3342
 6437TIP3   OH240945   0.650   1.455   1.534  0.3940 -0.0408  0.5709
 6437TIP3    H140946   0.664   1.514   1.460  1.5420 -1.2190 -0.1980
 6437TIP3    H240947   0.581   1.497   1.585  0.1568  1.2266 -0.7168
 6438TIP3   OH240948   3.796   2.822   6.440  0.0738  0.4100 -0.3951
 6438TIP3    H140949   3.801   2.755   6.508  0.9846 -0.0888 -0.9299
 6438TIP3    H240950   3.847   2.787   6.368 -0.5162  1.1255 -1.1827
 6439TIP3   OH240951   2.764   2.253   0.345 -0.2615 -0.0984  0.4242
 6439TIP3    H140952   2.672   2.226   0.333 -0.3225  0.9200 -1.9151
 6439TIP3    H240953   2.764   2.347   0.327  1.1461  0.0582  1.1119
 6440TIP3   OH240954   6.331   5.489   2.015 -0.0502 -0.9350 -0.4643
 6440TIP3    H140955   6.375   5.567   2.050 -0.1463 -0.6304 -1.0076
 6440TIP3    H240956   6.383   5.416   2.048 -0.9160 -0.7612  1.4686
 6441TIP3   OH240957   5.015   0.101   0.280 -0.0349 -0.3875 -0.3514
 6441TIP3    H140958   5.038   0.047   0.355  0.1044 -0.1865 -0.2468
 6441TIP3    H240959   5.053   0.187   0.300  1.4506 -0.7538 -1.4072
 6442TIP3   OH240960   1.923   2.927   1.104  0.3739 -0.3788  0.2698
 6442TIP3    H140961   1.981   2.901   1.033 -0.2462  0.3186 -0.5170
 6442TIP3    H240962   1.882   2.845   1.132 -0.5171 -0.4886 -1.2250
 6443TIP3   OH240963   5.067   0.523   8.062  0.3194  0.1626 -0.2896
 6443TIP3    H140964   5.146   0.472   8.044  0.7059  0.8642 -0.6518
 6443TIP3    H240965   5.101   0.608   8.093 -0.3064  0.0504  0.7352
 6444TIP3   OH240966   4.237   3.940   2.120  0.3974  0.3143 -0.8399
 6444TIP3    H140967   4.199   3.853   2.130  0.1333  0.4517 -0.6229
 6444TIP3    H240968   4.165   3.994   2.086  0.2679  0.6735 -0.0267
 6445TIP3   OH240969   4.051   4.844   7.160 -0.3029 -0.3645  0.3870
 6445TIP3    H140970   4.065   4.759   7.201  0.6128 -0.5704 -0.3468
 6445TIP3    H240971   4.133   4.891   7.172 -0.0414 -0.3967 -1.1249
 6446TIP3   OH240972   5.379   2.847   6.896 -0.8979 -0.1505 -0.3472
 6446TIP3    H140973   5.336   2.777   6.846 -0.6840 -0.1637 -0.5157
 6446TIP3    H240974   5.374   2.923   6.839  0.2287 -0.4118 -0.8175
 6447TIP3   OH240975   0.971   0.719   2.107  0.8198  0.0678 -0.0708
 6447TIP3    H140976   1.016   0.757   2.182  1.5155 -0.7110 -0.0853
 6447TIP3    H240977   0.916   0.790   2.074  1.9659  1.0232  0.0072
 6448TIP3   OH240978   5.592   0.869   7.100  0.0084  0.3241  0.3743
 6448TIP3    H140979   5.582   0.867   7.196 -0.9844 -1.1489  0.2811
 6448TIP3    H240980   5.553   0.952   7.074  0.3020  0.7466  1.2601
 6449TIP3   OH240981   4.076   2.888   1.610 -0.2022  0.7882  0.6362
 6449TIP3    H140982   4.129   2.915   1.685 -0.5222  2.1803  0.3904
 6449TIP3    H240983   3.999   2.846   1.649  1.1764 -1.5288  0.9843
 6450TIP3   OH240984   0.601   3.842   2.268  0.1099 -0.3167 -0.2480
 6450TIP3    H140985   0.686   3.884   2.277  1.1909 -2.2123 -0.9669
 6450TIP3    H240986   0.619   3.749   2.282 -1.7823 -0.8020 -0.7903
 6451TIP3   OH240987   0.088   0.668   6.376  0.4555 -0.4750  0.3022
 6451TIP3    H140988  -0.002   0.689   6.400  0.6119 -0.4164  0.8641
 6451TIP3    H240989   0.141   0.730   6.428  0.7744  0.3226 -0.9414
 6452TIP3   OH240990   5.120   4.580   0.828 -0.0461  0.0856 -0.1121
 6452TIP3    H140991   5.097   4.494   0.793  1.0901 -0.3713  0.2055
 6452TIP3    H240992   5.062   4.641   0.782 -1.2029 -0.8850  0.0010
 6453TIP3   OH240993   2.909   0.244   8.611 -0.7522  0.1030 -0.5833
 6453TIP3    H140994   2.984   0.297   8.637 -0.9593  0.2196 -0.2267
 6453TIP3    H240995   2.833   0.295   8.636 -0.9562 -0.4083 -0.1473
 6454TIP3   OH240996   4.220   3.494   8.311 -0.0707 -0.1101 -0.1911
 6454TIP3    H140997   4.311   3.476   8.288  0.2592  0.8246  0.3324
 6454TIP3    H240998   4.187   3.547   8.238 -1.0421 -2.6616 -1.7321
 6455TIP3   OH240999   3.219   2.350   0.997 -0.0980 -0.5525  0.2517
 6455TIP3    H141000   3.245   2.289   1.066 -3.4662 -0.9110  1.3761
 6455TIP3    H241001   3.193   2.295   0.924 -0.7328 -0.3699  0.3369
 6456TIP3   OH241002   4.488   2.071   7.351 -0.1761  0.1950  0.3534
 6456TIP3    H141003   4.499   2.152   7.400 -0.5247 -0.6267  1.8852
 6456TIP3    H241004   4.565   2.019   7.374 -0.0132  0.0468 -0.5169
 6457TIP3   OH241005   5.757   4.898   1.286  0.3160 -0.4481  0.9293
 6457TIP3    H141006   5.768   4.905   1.381  0.2201 -2.0745  1.0902
 6457TIP3    H241007   5.845   4.882   1.253  0.6502  1.9347  0.5030
 6458TIP3   OH241008   6.127   5.109   7.223  0.2229 -0.5038 -0.0096
 6458TIP3    H141009   6.162   5.050   7.157  1.2738  0.9547 -0.7974
 6458TIP3    H241010   6.203   5.135   7.275 -0.0296  0.9058 -0.3007
 6459TIP3   OH241011   0.429   0.365   2.707  0.9127 -0.0657  0.3441
 6459TIP3    H141012   0.490   0.370   2.780  2.4393  0.3879 -0.8872
 6459TIP3    H241013   0.466   0.297   2.650 -0.2772 -0.4619  0.0208
 6460TIP3   OH241014   5.056   1.213   0.908  0.1010  0.2373 -0.1138
 6460TIP3    H141015   5.102   1.180   0.831 -1.6711 -0.8735 -0.7624
 6460TIP3    H241016   4.964   1.197   0.889 -0.4162  0.4192  2.0162
 6461TIP3   OH241017   0.932   2.397   7.205  0.3328 -0.7618  0.0226
 6461TIP3    H141018   0.860   2.374   7.263  0.1111  2.3470  1.1717
 6461TIP3    H241019   0.890   2.415   7.121 -0.0727 -0.2970  0.3155
 6462TIP3   OH241020   6.709   2.152   7.264  0.2286  0.3512 -0.4567
 6462TIP3    H141021   6.689   2.153   7.171 -1.6554 -1.6190 -0.1567
 6462TIP3    H241022   6.704   2.244   7.291 -0.7609  0.7768 -1.9910
 6463TIP3   OH241023   1.068   3.871   7.664 -0.3535  0.9963  0.1077
 6463TIP3    H141024   1.123   3.799   7.693  0.4835  1.2427 -0.8144
 6463TIP3    H241025   1.056   3.925   7.742 -2.9218 -1.2646  1.4385
 6464TIP3   OH241026   4.296   1.925   1.702  0.3460 -0.6428  0.4299
 6464TIP3    H141027   4.371   1.983   1.705  0.3139 -0.4882 -1.2590
 6464TIP3    H241028   4.256   1.934   1.789  3.2895 -2.1689  2.0906
 6465TIP3   OH241029   0.587   3.896   1.994 -0.0609  0.0238  0.5702
 6465TIP3    H141030   0.679   3.888   1.968  0.1362 -1.8497  1.7002
 6465TIP3    H241031   0.586   3.872   2.087 -1.8689 -1.4113  0.2360
 6466TIP3   OH241032   1.370   2.488   1.976 -0.0367 -0.0051 -0.5337
 6466TIP3    H141033   1.396   2.402   2.008  1.7054  0.7627  0.2474
 6466TIP3    H241034   1.277   2.495   1.997  0.1857 -1.0272  0.9069
 6467TIP3   OH241035   2.888   2.369   0.978 -0.2792 -0.0978 -0.0826
 6467TIP3    H141036   2.913   2.312   1.051  1.3206  0.6420 -0.0340
 6467TIP3    H241037   2.930   2.330   0.901 -0.7411 -0.0348 -0.3726
 6468TIP3   OH241038   0.586   2.196   8.729 -0.3896  0.7642 -0.2687
 6468TIP3    H141039   0.510   2.215   8.675 -1.7583  0.3476  1.4249
 6468TIP3    H241040   0.654   2.171   8.667 -2.5379 -1.9635 -1.7136
 6469TIP3   OH241041   0.392   2.078   8.066  0.2713 -0.2315 -0.4760
 6469TIP3    H141042   0.331   2.088   7.994 -1.4202  0.4932  0.9916
 6469TIP3    H241043   0.382   2.158   8.118  1.0369 -0.9658  0.8604
 6470TIP3   OH241044   3.826   0.596   0.558 -0.1067 -0.1371  0.3515
 6470TIP3    H141045   3.749   0.584   0.501  0.3846  0.9779 -0.5898
 6470TIP3    H241046   3.838   0.510   0.599 -1.8604 -0.3355  0.5471
 6471TIP3   OH241047   2.509   3.704   1.905  0.6912 -0.1201 -0.0048
 6471TIP3    H141048   2.501   3.788   1.860  0.7041 -0.5821 -0.8797
 6471TIP3    H241049   2.593   3.710   1.951  0.5174  0.4824  0.2485
 6472TIP3   OH241050   2.643   3.680   7.969  0.1835 -0.4681  0.1817
 6472TIP3    H141051   2.639   3.705   8.062  1.5776 -0.4425  0.2530
 6472TIP3    H241052   2.736   3.663   7.953 -0.1640 -1.3803 -0.9819
 6473TIP3   OH241053   6.405   1.418   7.708  0.4848 -0.3648 -0.1339
 6473TIP3    H141054   6.465   1.454   7.773  0.2441  0.7616 -0.5062
 6473TIP3    H241055   6.417   1.323   7.713  3.3501 -0.1580 -1.1711
 6474TIP3   OH241056   0.046   2.881   0.932 -0.6957  0.4446 -0.0453
 6474TIP3    H141057   0.083   2.967   0.913 -0.2554  0.2614 -0.0122
 6474TIP3    H241058   0.068   2.828   0.855 -0.9351  0.3501 -0.0497
 6475TIP3   OH241059   3.726   1.521   7.911  0.2699 -0.6970  0.2093
 6475TIP3    H141060   3.729   1.571   7.992  1.4118 -1.4745  0.6606
 6475TIP3    H241061   3.805   1.547   7.863 -0.1915 -0.5350 -0.4841
 6476TIP3   OH241062   6.470   0.143   1.066  0.1101  0.4649  0.4770
 6476TIP3    H141063   6.555   0.164   1.105 -0.0327  2.1287 -0.0235
 6476TIP3    H241064   6.407   0.154   1.138  0.2164  0.1307  0.6220
 6477TIP3   OH241065   2.973   3.421   8.464 -0.4242  0.4265  0.0106
 6477TIP3    H141066   2.938   3.383   8.545 -0.0838 -1.0392 -0.5045
 6477TIP3    H241067   2.898   3.421   8.404  0.1085 -1.8115 -0.7775
 6478TIP3   OH241068   1.062   6.606   7.134 -0.0921  0.0540 -0.2502
 6478TIP3    H141069   1.021   6.649   7.059  0.8945 -0.9613 -1.4445
 6478TIP3    H241070   1.008   6.630   7.209 -1.8242  0.1528 -1.4686
 6479TIP3   OH241071   0.195   6.436   0.337 -0.1260 -0.2583  0.0528
 6479TIP3    H141072   0.107   6.465   0.314  0.5737  1.2887 -0.8440
 6479TIP3    H241073   0.200   6.346   0.304 -1.5350 -0.5743  0.6349
 6480TIP3   OH241074   6.089   1.310   7.487 -0.2632 -0.5805  0.0571
 6480TIP3    H141075   6.030   1.310   7.412 -2.6198 -0.6348  1.8099
 6480TIP3    H241076   6.165   1.361   7.457 -1.6336  0.4395 -1.9636
 6481TIP3   OH241077   6.598   3.891   6.837  0.4428 -0.2688  0.1385
 6481TIP3    H141078   6.541   3.968   6.840 -0.0134 -0.5600 -0.5737
 6481TIP3    H241079   6.585   3.856   6.749  3.2812  0.7889 -0.7772
 6482TIP3   OH241080   6.783   2.986   8.573 -0.2066  0.1554  0.1799
 6482TIP3    H141081   6.863   3.037   8.577 -0.1759  0.1441 -0.2864
 6482TIP3    H241082   6.728   3.031   8.509 -0.4240 -0.0505  0.2163
 6483TIP3   OH241083   1.135   2.033   7.237 -0.0513  0.1402  0.4339
 6483TIP3    H141084   1.177   1.974   7.300  0.8904  1.2138  0.8443
 6483TIP3    H241085   1.176   2.118   7.253  0.5179  0.3719 -1.9179
 6484TIP3   OH241086   6.311   5.132   0.880 -0.1831  0.0995 -0.8335
 6484TIP3    H141087   6.399   5.144   0.845  1.0567 -0.2663  1.8780
 6484TIP3    H241088   6.280   5.220   0.899  1.7208  0.2028  2.7072
 6485TIP3   OH241089   0.443   6.526   8.506  0.0982  0.3315 -0.2216
 6485TIP3    H141090   0.381   6.588   8.467  1.6208  2.2361  0.1940
 6485TIP3    H241091   0.428   6.533   8.600  1.7818  1.8969 -0.0007
 6486TIP3   OH241092   3.888   5.168   0.155 -0.3162  0.2777  0.0803
 6486TIP3    H141093   3.967   5.220   0.166  0.0422 -0.3942  0.7543
 6486TIP3    H241094   3.818   5.232   0.143  0.2794  0.8821 -0.1932
 6487TIP3   OH241095   1.106   4.856   1.577 -0.0320  0.4788 -0.0486
 6487TIP3    H141096   1.198   4.847   1.553  0.6306  0.3110  2.2851
 6487TIP3    H241097   1.058   4.829   1.499  1.8694  1.1897 -1.5372
 6488TIP3   OH241098   1.294   4.190   2.124  0.1244 -0.2025  0.5504
 6488TIP3    H141099   1.351   4.113   2.119  2.0670  1.1027  1.1819
 6488TIP3    H241100   1.339   4.249   2.185  0.3770  2.7150 -2.1827
 6489TIP3   OH241101   2.375   3.327   7.378 -0.4585  0.3180 -0.2814
 6489TIP3    H141102   2.325   3.309   7.457 -1.5919  0.9987 -0.8112
 6489TIP3    H241103   2.368   3.422   7.366  1.9420  0.6290  0.2289
 6490TIP3   OH241104   1.754   5.066   7.109 -0.4903 -0.2012  0.0159
 6490TIP3    H141105   1.763   4.973   7.089 -1.0909 -0.0172 -1.1433
 6490TIP3    H241106   1.678   5.071   7.166 -0.8009 -0.3567 -0.3843
 6491TIP3   OH241107   3.625   5.601   8.158 -0.4732 -0.1955  0.2363
 6491TIP3    H141108   3.554   5.624   8.219 -0.6893 -1.6048  0.5444
 6491TIP3    H241109   3.606   5.512   8.131 -0.2837  0.3333 -1.8147
 6492TIP3   OH241110   6.589   6.181   7.929  0.1010  0.5711 -0.1319
 6492TIP3    H141111   6.624   6.178   7.840  0.6929 -0.0053  0.1186
 6492TIP3    H241112   6.527   6.254   7.927  0.6910  1.0667 -0.8037
 6493TIP3   OH241113   1.252   1.695   1.461 -0.0450  0.0054  0.1714
 6493TIP3    H141114   1.294   1.773   1.498 -0.1237 -0.4581  1.3038
 6493TIP3    H241115   1.235   1.717   1.370  0.8711  0.9293  0.2053
 6494TIP3   OH241116   4.330   5.426   1.478 -0.0562  0.0678 -0.0586
 6494TIP3    H141117   4.417   5.392   1.457 -0.6858 -1.6146 -0.0652
 6494TIP3    H241118   4.336   5.452   1.570 -0.3466 -3.0291  0.9623
 6495TIP3   OH241119   4.663   2.617   7.143 -0.7944  0.2218  0.5877
 6495TIP3    H141120   4.632   2.577   7.062  0.6433 -0.7080  0.4682
 6495TIP3    H241121   4.641   2.709   7.134 -1.6697 -0.0573 -0.3534
 6496TIP3   OH241122   5.161   5.973   2.512  0.2641  0.3857 -0.1465
 6496TIP3    H141123   5.126   5.888   2.541  1.7913 -0.2982 -0.1915
 6496TIP3    H241124   5.137   5.978   2.419 -0.2602  0.2258 -0.0221
 6497TIP3   OH241125   4.082   0.138   0.778  1.2475 -0.3237  0.3931
 6497TIP3    H141126   4.040   0.158   0.862 -0.7981  1.3180 -0.9290
 6497TIP3    H241127   4.152   0.202   0.771  1.2878 -0.3259  0.7355
 6498TIP3   OH241128   6.702   2.420   7.822  0.2946  0.0671  0.3557
 6498TIP3    H141129   6.777   2.449   7.769  1.2364  1.0507  2.1287
 6498TIP3    H241130   6.739   2.407   7.910 -1.0286 -2.3377  0.6308
 6499TIP3   OH241131   5.184   2.869   1.280  0.0314  0.9539 -0.8138
 6499TIP3    H141132   5.239   2.792   1.265 -0.9199  0.1271 -0.1855
 6499TIP3    H241133   5.206   2.929   1.208  0.9432  0.1904 -1.1859
 6500TIP3   OH241134   4.403   2.660   8.282 -0.2254  0.4027 -0.3686
 6500TIP3    H141135   4.445   2.715   8.349  1.7007 -1.8653  0.4606
 6500TIP3    H241136   4.457   2.671   8.204 -0.0167 -0.0304 -0.2914
 6501TIP3   OH241137   6.299   2.282   2.196 -0.2180 -0.2911 -0.0197
 6501TIP3    H141138   6.333   2.225   2.265 -2.1254  0.4389  1.6070
 6501TIP3    H241139   6.376   2.303   2.143  1.3476 -0.8671  1.8759
 6502TIP3   OH241140   4.402   2.132   8.779 -0.2020 -0.0381 -0.5192
 6502TIP3    H141141   4.331   2.197   8.773  0.9939  1.2965 -0.7301
 6502TIP3    H241142   4.465   2.159   8.712  0.8854 -0.7401  0.1879
 6503TIP3   OH241143   1.288   0.250   0.830  0.0233 -0.8091 -0.0812
 6503TIP3    H141144   1.234   0.311   0.881  0.2416  1.5086 -2.4269
 6503TIP3    H241145   1.227   0.182   0.803 -0.8758 -0.2471  0.4604
 6504TIP3   OH241146   5.841   1.704   7.436 -0.3005 -0.0601  0.5939
 6504TIP3    H141147   5.931   1.714   7.468  0.0464  0.0155 -0.3814
 6504TIP3    H241148   5.796   1.656   7.505  0.0339  1.4029  1.8958
 6505TIP3   OH241149   2.925   3.248   6.173  0.0988 -0.1122  0.1981
 6505TIP3    H141150   2.980   3.176   6.204  0.6846 -1.0131 -2.6965
 6505TIP3    H241151   2.838   3.227   6.208  0.4342 -1.7597  0.1509
 6506TIP3   OH241152   2.977   6.824   8.606 -0.2262 -0.2891 -0.4353
 6506TIP3    H141153   3.068   6.818   8.577 -0.5990 -0.3154 -1.6536
 6506TIP3    H241154   2.952   6.915   8.591 -0.7945 -0.5902 -1.3594
 6507TIP3   OH241155   4.065   3.259   7.757  0.7467  0.2863  0.2495
 6507TIP3    H141156   4.079   3.305   7.674 -1.4843  0.8962  0.1549
 6507TIP3    H241157   4.153   3.242   7.789  1.6702  1.5146 -1.4274
 6508TIP3   OH241158   0.380   4.004   7.572 -0.7000  0.2079  0.9782
 6508TIP3    H141159   0.450   4.059   7.537 -0.1550 -1.1405 -0.1408
 6508TIP3    H241160   0.401   3.916   7.542 -2.7646 -0.2749  0.7566
 6509TIP3   OH241161   4.120   5.483   7.172 -0.0736  0.5600 -0.5075
 6509TIP3    H141162   4.089   5.534   7.098  0.7324  0.3481 -1.0060
 6509TIP3    H241163   4.212   5.466   7.153 -0.3561 -1.2708 -0.4846
 6510TIP3   OH241164   4.310   2.840   7.940 -0.2931  0.2156  0.2361
 6510TIP3    H141165   4.374   2.780   7.978  0.3405  0.5386 -0.3071
 6510TIP3    H241166   4.328   2.924   7.981  0.7480  0.6914 -1.1365
 6511TIP3   OH241167   0.662   2.573   0.884 -0.3726  0.4021  0.3519
 6511TIP3    H141168   0.724   2.543   0.950 -0.5070  1.3200  0.9065
 6511TIP3    H241169   0.607   2.496   0.866  0.0348 -0.0158  0.8800
 6512TIP3   OH241170   1.617   3.981   8.803 -0.9388  0.4840 -0.0092
 6512TIP3    H141171   1.673   3.904   8.792 -0.4568  1.0881 -2.2881
 6512TIP3    H241172   1.534   3.946   8.834  0.2812 -0.5508  2.3906
 6513TIP3   OH241173   5.239   0.160   1.745 -0.0177 -0.7244  0.0602
 6513TIP3    H141174   5.191   0.212   1.810  0.4084 -1.5953  1.0900
 6513TIP3    H241175   5.304   0.221   1.710  0.3623 -0.5001  1.1212
 6514TIP3   OH241176   1.330   5.009   8.358  0.0816  0.2503 -0.2083
 6514TIP3    H141177   1.374   5.062   8.425  2.7364 -0.5925 -1.1749
 6514TIP3    H241178   1.300   4.931   8.405 -1.9768  1.5510  0.7917
 6515TIP3   OH241179   0.159   5.735   0.245 -0.1156  0.2836  0.0633
 6515TIP3    H141180   0.130   5.826   0.254  0.0018  0.2718  0.6483
 6515TIP3    H241181   0.209   5.733   0.164  0.1608  0.8214  0.2130
 6516TIP3   OH241182   6.104   1.156   1.023 -0.6374  0.4041 -0.6475
 6516TIP3    H141183   6.124   1.092   1.091 -0.3287 -0.4489 -1.5086
 6516TIP3    H241184   6.151   1.124   0.946 -0.6936  1.5328 -1.1718
 6517TIP3   OH241185   1.003   6.313   1.438  0.2666 -0.2666 -0.3212
 6517TIP3    H141186   1.077   6.320   1.378  0.5848 -0.2632  0.0642
 6517TIP3    H241187   0.969   6.402   1.445  1.7110  0.2268  1.3350
 6518TIP3   OH241188   5.006   2.217   7.775  0.2234 -0.4007  0.2325
 6518TIP3    H141189   5.085   2.188   7.820 -1.0316  0.0352  2.9231
 6518TIP3    H241190   4.943   2.232   7.846 -2.4234 -1.1583 -1.8372
 6519TIP3   OH241191   3.215   5.034   7.495 -0.1708  0.3335  0.2017
 6519TIP3    H141192   3.245   5.099   7.558 -0.7688 -0.1761  1.0407
 6519TIP3    H241193   3.270   5.046   7.418 -0.7983  2.3797  0.0210
 6520TIP3   OH241194   2.080   5.188   6.640  0.0218 -0.2424  0.3039
 6520TIP3    H141195   2.149   5.172   6.575  1.5174 -0.2195  1.8022
 6520TIP3    H241196   2.115   5.150   6.721 -1.6674 -0.0536  1.1551
 6521TIP3   OH241197   0.321   0.540   2.505 -0.0102 -0.1728 -0.5636
 6521TIP3    H141198   0.371   0.475   2.554  0.1540  0.3310 -0.0516
 6521TIP3    H241199   0.240   0.551   2.553  0.5061  0.9508  0.1082
 6522TIP3   OH241200   0.287   0.717   6.558 -0.0694 -0.0971  0.1201
 6522TIP3    H141201   0.258   0.659   6.628 -0.8362 -1.3485 -1.1739
 6522TIP3    H241202   0.380   0.697   6.547 -0.9439 -3.5439 -2.4110
 6523TIP3   OH241203   6.200   1.384   0.305  0.2864 -0.6518  0.0765
 6523TIP3    H141204   6.186   1.289   0.309  0.5023 -0.7094 -0.3977
 6523TIP3    H241205   6.205   1.412   0.396 -0.3815 -1.0071  0.2255
 6524TIP3   OH241206   2.083   2.599   7.980  0.3357  0.5473  0.1168
 6524TIP3    H141207   2.163   2.565   7.939  0.4816  0.4114  0.5051
 6524TIP3    H241208   2.093   2.577   8.072  0.1883  1.1876  0.2889
 6525TIP3   OH241209   5.895   3.865   2.676 -0.1812  0.4638  0.2837
 6525TIP3    H141210   5.975   3.906   2.707 -0.1136  0.6552 -0.1280
 6525TIP3    H241211   5.920   3.825   2.592 -0.7993  1.5874 -0.4776
 6526TIP3   OH241212   2.933   0.991   2.001 -0.4358  0.3334  0.4521
 6526TIP3    H141213   2.997   0.997   1.931 -1.3567 -2.2609 -0.7262
 6526TIP3    H241214   2.985   0.972   2.079  0.3155 -1.1549 -0.3747
 6527TIP3   OH241215   6.012   0.182   0.426  0.1877 -0.4661 -0.3426
 6527TIP3    H141216   6.032   0.143   0.340 -1.2398 -0.0059 -0.9129
 6527TIP3    H241217   6.087   0.159   0.480  2.8877  2.1179 -2.6307
 6528TIP3   OH241218   4.791   2.427   6.961 -0.7158  0.1045 -0.3432
 6528TIP3    H141219   4.755   2.364   7.024 -3.1736  0.1910 -1.5615
 6528TIP3    H241220   4.867   2.382   6.924 -1.2432 -1.3582  0.2507
 6529TIP3   OH241221   6.425   4.435   7.138 -0.6593 -0.7142  0.1180
 6529TIP3    H141222   6.422   4.410   7.045  2.2011  1.5480 -0.7352
 6529TIP3    H241223   6.420   4.531   7.136  0.5291 -0.5685  2.2184
 6530TIP3   OH241224   1.166   4.771   0.320 -0.2996  0.3433  0.2860
 6530TIP3    H141225   1.225   4.817   0.262 -0.2748 -0.5088 -0.3815
 6530TIP3    H241226   1.087   4.756   0.268 -0.2025 -0.5958  0.3932
 6531TIP3   OH241227   5.115   4.948   8.353 -0.1984  0.1330  0.2657
 6531TIP3    H141228   5.150   4.892   8.423  1.6845  2.4654  1.3176
 6531TIP3    H241229   5.026   4.969   8.382  0.7587  1.5817  2.4251
 6532TIP3   OH241230   3.089   3.771   7.968 -0.1755  0.3905  0.0160
 6532TIP3    H141231   3.165   3.803   7.921 -1.8058  2.8181 -1.1857
 6532TIP3    H241232   3.033   3.734   7.900 -0.5008 -0.4825  0.7442
 6533TIP3   OH241233   2.384   1.865   0.419 -0.2367 -0.0412  0.5025
 6533TIP3    H141234   2.405   1.903   0.503  0.5529 -0.9194  0.7180
 6533TIP3    H241235   2.301   1.906   0.394  1.4693  3.3231 -0.2436
 6534TIP3   OH241236   5.186   1.096   0.701  0.0249 -0.3631  0.3692
 6534TIP3    H141237   5.176   1.181   0.658  0.9622  0.0255  0.8886
 6534TIP3    H241238   5.274   1.098   0.739  0.6835 -2.1598 -0.9191
 6535TIP3   OH241239   5.577   0.099   1.681 -0.3585 -0.8185 -0.1118
 6535TIP3    H141240   5.560   0.010   1.649 -0.1574 -0.6106 -0.8203
 6535TIP3    H241241   5.654   0.090   1.737 -1.5708 -1.4314  1.5249
 6536TIP3   OH241242   0.689   0.067   7.163  1.0683 -0.3116 -0.5946
 6536TIP3    H141243   0.642   0.036   7.086  0.0318 -0.2371 -0.0168
 6536TIP3    H241244   0.703   0.161   7.146 -2.0371  0.5077  0.6174
 6537TIP3   OH241245   0.343   3.254   1.065 -0.8628 -0.0980  0.2370
 6537TIP3    H141246   0.353   3.163   1.036  1.0212  0.2148 -0.2183
 6537TIP3    H241247   0.265   3.285   1.019 -0.7076 -1.0783 -0.7295
 6538TIP3   OH241248   6.452   0.006   8.212 -0.1967 -0.2048  0.8201
 6538TIP3    H141249   6.420   0.030   8.299  1.5799 -1.1256  1.7991
 6538TIP3    H241250   6.434   0.082   8.157 -1.5830  0.2991  1.9195
 6539TIP3   OH241251   0.578   6.085   7.844  0.4486  0.3837 -0.1764
 6539TIP3    H141252   0.524   6.010   7.867 -0.1254  0.9342  0.2800
 6539TIP3    H241253   0.609   6.066   7.755  0.9369 -0.7482  0.2248
 6540TIP3   OH241254   4.244   6.654   8.115  0.6188  0.2379  0.0600
 6540TIP3    H141255   4.213   6.731   8.068 -2.5650 -1.3470 -0.7222
 6540TIP3    H241256   4.193   6.654   8.197 -0.1107 -1.4285 -0.3522
 6541TIP3   OH241257   3.895   3.419   1.417  0.6638 -0.1168  0.1225
 6541TIP3    H141258   3.864   3.340   1.372  1.9346 -0.5035 -0.1095
 6541TIP3    H241259   3.870   3.491   1.359 -0.2119 -0.3717  0.1749
 6542TIP3   OH241260   2.452   4.201   0.243  0.3839  0.5080  0.2010
 6542TIP3    H141261   2.407   4.145   0.307 -1.3049  1.1838 -0.3482
 6542TIP3    H241262   2.534   4.226   0.287  0.1779 -0.6138  1.3031
 6543TIP3   OH241263   5.588   4.774   1.124 -0.7874 -0.2226 -0.1802
 6543TIP3    H141264   5.630   4.834   1.185  0.5878  0.4223 -1.6943
 6543TIP3    H241265   5.608   4.687   1.158  1.9886  0.0435 -0.9097
 6544TIP3   OH241266   1.147   0.355   1.283  0.1620 -0.9180  0.3049
 6544TIP3    H141267   1.115   0.435   1.241  0.3327  0.2823  2.3158
 6544TIP3    H241268   1.243   0.362   1.279  0.2637  0.3913  2.7650
 6545TIP3   OH241269   1.852   5.196   2.117  0.2063 -0.1453 -0.2521
 6545TIP3    H141270   1.792   5.174   2.189 -0.7165  0.6463 -0.7604
 6545TIP3    H241271   1.893   5.277   2.144  2.0317 -1.3093  0.6616
 6546TIP3   OH241272   5.785   4.217   0.714 -0.2809  0.4110 -0.4341
 6546TIP3    H141273   5.793   4.143   0.773 -2.3935 -0.6298 -1.3385
 6546TIP3    H241274   5.872   4.227   0.676  0.1326 -1.4061 -0.0415
 6547TIP3   OH241275   1.990   4.709   1.883  0.4772 -0.2540  0.4927
 6547TIP3    H141276   1.963   4.796   1.855 -0.3389 -1.1277 -1.6477
 6547TIP3    H241277   1.989   4.713   1.978  0.8170  2.1621  0.4499
 6548TIP3   OH241278   2.808   3.975   6.765  0.9056 -0.2773 -0.1610
 6548TIP3    H141279   2.887   4.015   6.803  0.0393  1.6943 -0.3425
 6548TIP3    H241280   2.791   4.025   6.685 -0.3402 -0.9123 -0.3227
 6549TIP3   OH241281   2.033   3.570   8.258 -0.5721  0.3061  0.7144
 6549TIP3    H141282   2.033   3.489   8.309 -0.3781  0.2136  0.5661
 6549TIP3    H241283   2.094   3.554   8.186  0.2547  0.9432  1.2574
 6550TIP3   OH241284   4.346   6.472   7.069  0.2290  0.5735  0.6343
 6550TIP3    H141285   4.324   6.493   6.979  0.0279  3.1676  1.2025
 6550TIP3    H241286   4.308   6.385   7.084 -2.0941  1.2040 -1.0108
 6551TIP3   OH241287   2.526   6.219   6.799 -0.0426 -0.5969 -0.1636
 6551TIP3    H141288   2.497   6.269   6.723 -0.0011  2.1647  1.5400
 6551TIP3    H241289   2.562   6.284   6.860  0.6721 -2.7750  1.9267
 6552TIP3   OH241290   5.870   0.197   7.725  0.2814 -0.1204 -0.0972
 6552TIP3    H141291   5.903   0.284   7.749  2.5510 -0.3639 -1.9630
 6552TIP3    H241292   5.822   0.167   7.802  1.8875  1.5919  1.6741
 6553TIP3   OH241293   0.550   2.433   7.024 -0.3192 -0.4894 -0.1624
 6553TIP3    H141294   0.591   2.433   6.937  1.7762  0.8096  0.7466
 6553TIP3    H241295   0.537   2.526   7.044  2.0448 -0.5467  2.0830
 6554TIP3   OH241296   0.438   5.017   1.131 -0.3574 -0.2427  0.1236
 6554TIP3    H141297   0.514   5.073   1.114 -0.9699  0.4284 -0.5083
 6554TIP3    H241298   0.472   4.928   1.124  0.2458  0.0434 -0.8605
 6555TIP3   OH241299   6.276   4.907   8.229 -0.2191  0.2820  1.0448
 6555TIP3    H141300   6.207   4.945   8.283 -0.1901  0.6092  0.8569
 6555TIP3    H241301   6.230   4.866   8.155 -0.1719  1.2494  0.4635
 6556TIP3   OH241302   3.438   5.533   0.682 -0.0470  0.1856 -0.1154
 6556TIP3    H141303   3.387   5.547   0.602  0.3649 -0.7582 -0.5572
 6556TIP3    H241304   3.524   5.569   0.662 -0.6227  2.2016  0.7930
 6557TIP3   OH241305   3.837   3.070   8.409 -0.3575 -0.6324 -0.1678
 6557TIP3    H141306   3.857   3.161   8.428  0.7620 -0.6596 -1.1328
 6557TIP3    H241307   3.826   3.029   8.495  0.1201  0.1843  0.2893
 6558TIP3   OH241308   0.714   3.022   8.422  0.3985 -0.4615  0.0242
 6558TIP3    H141309   0.784   3.063   8.371  2.1474 -0.7912  2.0438
 6558TIP3    H241310   0.711   2.932   8.389  1.2478 -0.5701  0.2076
 6559TIP3   OH241311   3.099   1.121   7.435 -0.1561  0.7204  0.1702
 6559TIP3    H141312   3.154   1.048   7.462  1.1891  2.1150  1.4317
 6559TIP3    H241313   3.014   1.082   7.417  0.4661 -1.1196  0.9638
 6560TIP3   OH241314   3.772   1.432   1.439 -0.4842 -0.2851  0.0486
 6560TIP3    H141315   3.847   1.448   1.383  0.4852  0.6966  1.5403
 6560TIP3    H241316   3.730   1.518   1.448 -2.9516 -1.1163 -2.2318
 6561TIP3   OH241317   0.731   1.603   8.325  0.0012 -0.2923  0.2025
 6561TIP3    H141318   0.819   1.637   8.339 -0.0350 -1.2085  3.6553
 6561TIP3    H241319   0.712   1.551   8.404 -3.8155  0.3016 -0.0947
 6562TIP3   OH241320   6.361   4.022   7.822 -0.4216 -0.1448 -0.0225
 6562TIP3    H141321   6.365   4.112   7.854 -0.3487 -0.2840  0.3716
 6562TIP3    H241322   6.364   3.968   7.902  1.4109 -0.5584 -0.3326
 6563TIP3   OH241323   2.316   5.680   2.182 -0.4312  0.5977  0.3087
 6563TIP3    H141324   2.323   5.765   2.226 -1.7393  0.2893  1.1636
 6563TIP3    H241325   2.326   5.616   2.252 -0.1859  0.0576 -0.2168
 6564TIP3   OH241326   4.489   6.625   1.857  0.0282  0.4209 -0.1031
 6564TIP3    H141327   4.516   6.558   1.794 -2.7183 -0.6622 -0.2539
 6564TIP3    H241328   4.534   6.705   1.827  2.5854 -1.0404 -0.5197
 6565TIP3   OH241329   2.484   3.922   7.366  0.2524 -0.2749 -0.3399
 6565TIP3    H141330   2.554   3.895   7.307  0.3384  0.2661 -0.4930
 6565TIP3    H241331   2.460   4.010   7.336 -0.0894 -0.2205  0.0790
 6566TIP3   OH241332   1.139   4.641   1.805 -0.0322  0.4641 -0.8732
 6566TIP3    H141333   1.153   4.735   1.805  0.1221  0.4462 -1.6408
 6566TIP3    H241334   1.120   4.619   1.896  1.2832  1.0304 -0.4472
 6567TIP3   OH241335   1.466   4.352   1.165 -0.0347 -0.2358 -0.3756
 6567TIP3    H141336   1.560   4.358   1.184  0.0543 -1.0402 -0.5041
 6567TIP3    H241337   1.444   4.435   1.123  0.7118 -0.1950 -0.7014
 6568TIP3   OH241338   1.548   0.871   0.096  0.4663  0.4760  0.1119
 6568TIP3    H141339   1.610   0.828   0.038  2.6310  1.1745  1.7879
 6568TIP3    H241340   1.556   0.964   0.076  0.6159  0.6487  0.9294
 6569TIP3   OH241341   3.813   2.132   1.191 -0.3616  0.2255  0.5110
 6569TIP3    H141342   3.728   2.089   1.195 -0.4840  0.4748  0.6633
 6569TIP3    H241343   3.868   2.073   1.140 -0.1051 -0.8148  1.9114
 6570TIP3   OH241344   3.934   3.249   0.002  0.2338  0.3700 -0.1262
 6570TIP3    H141345   3.918   3.172   0.056 -0.6802 -0.6622 -1.7814
 6570TIP3    H241346   4.029   3.260   0.004  0.5597 -1.8276 -1.1424
 6571TIP3   OH241347   4.135   0.116   8.343  0.0548  0.0872  0.1133
 6571TIP3    H141348   4.201   0.150   8.404  1.3381 -0.8488 -0.7037
 6571TIP3    H241349   4.143   0.172   8.265 -0.2134  0.0375  0.0473
 6572TIP3   OH241350   3.536   2.257   0.055 -0.8204 -0.1787 -0.0506
 6572TIP3    H141351   3.616   2.211   0.080 -0.5853 -0.9293 -2.0077
 6572TIP3    H241352   3.466   2.210   0.101 -0.2725 -0.3838  0.5888
 6573TIP3   OH241353   1.798   1.770   0.417  0.2429  0.1230  0.3278
 6573TIP3    H141354   1.813   1.678   0.436  0.9531 -0.2658 -1.8580
 6573TIP3    H241355   1.745   1.770   0.337 -0.7079  1.6121  0.9084
 6574TIP3   OH241356   4.683   1.090   7.144  0.9326  0.4513 -0.4893
 6574TIP3    H141357   4.725   1.157   7.091  1.4571 -1.0048 -1.9618
 6574TIP3    H241358   4.729   1.009   7.124 -1.1158 -0.8003 -0.4821
 6575TIP3   OH241359   0.014   0.082   0.206  0.4903 -0.5793  0.2381
 6575TIP3    H141360   0.058   0.167   0.203  0.1049 -0.3960 -0.3620
 6575TIP3    H241361   0.068   0.029   0.266  2.5950 -0.9493 -1.8546
 6576TIP3   OH241362   0.535   0.182   0.458 -0.0061 -0.3089 -0.8545
 6576TIP3    H141363   0.451   0.192   0.504 -0.2964  0.8243 -1.5990
 6576TIP3    H241364   0.601   0.192   0.527 -0.4539  0.3013 -0.5065
 6577TIP3   OH241365   0.742   0.411   1.049 -0.6439 -0.1783  0.0491
 6577TIP3    H141366   0.775   0.482   0.993  1.6736 -1.7041 -0.6655
 6577TIP3    H241367   0.749   0.445   1.138  0.3840  0.5253 -0.2857
 6578TIP3   OH241368   6.205   5.386   1.767  0.1189 -0.6489  0.4832
 6578TIP3    H141369   6.168   5.313   1.818 -3.0557  0.6830  0.2920
 6578TIP3    H241370   6.280   5.415   1.819  0.5808 -3.0617  1.3153
 6579TIP3   OH241371   5.085   2.768   0.236  0.0829  0.9580  0.0361
 6579TIP3    H141372   4.990   2.782   0.238 -0.0805  0.1765 -1.3110
 6579TIP3    H241373   5.098   2.697   0.174  1.6892  2.1335 -1.0513
 6580TIP3   OH241374   1.340   0.852   2.268  0.8196  0.2480 -0.4672
 6580TIP3    H141375   1.371   0.843   2.177 -0.1259 -3.2281 -0.5971
 6580TIP3    H241376   1.266   0.792   2.274  0.3585  0.9549  2.4518
 6581TIP3   OH241377   4.828   2.137   8.804 -0.5466  0.2291 -0.4526
 6581TIP3    H141378   4.859   2.082   8.731  1.4551 -1.0893  1.2740
 6581TIP3    H241379   4.745   2.172   8.773 -1.0901 -2.4027 -2.3697
 6582TIP3   OH241380   1.168   1.486   0.503  0.5691 -0.2541 -0.0232
 6582TIP3    H141381   1.188   1.470   0.411  1.6701 -0.7193  0.2735
 6582TIP3    H241382   1.202   1.409   0.548 -3.1410 -1.8154  0.4692
 6583TIP3   OH241383   1.913   5.742   2.684  0.0463  0.0127 -0.2466
 6583TIP3    H141384   1.951   5.660   2.716  1.4473 -0.5795 -3.1235
 6583TIP3    H241385   1.988   5.801   2.674 -0.7905  1.2926  0.6788
 6584TIP3   OH241386   2.392   3.475   8.529  0.5235  0.5592  0.4137
 6584TIP3    H141387   2.357   3.402   8.581 -0.2175  0.1212 -0.6774
 6584TIP3    H241388   2.322   3.540   8.530  1.4264  1.5939  1.9413
 6585TIP3   OH241389   0.775   3.929   7.236 -0.2357  0.3777 -0.5445
 6585TIP3    H141390   0.794   3.876   7.159  0.2563 -1.2950  0.6801
 6585TIP3    H241391   0.823   3.887   7.307 -2.8802  0.1139  1.2629
 6586TIP3   OH241392   1.222   0.013   8.734  0.2347 -0.0993 -0.2925
 6586TIP3    H141393   1.296   0.022   8.675  1.0776 -1.8033  0.4532
 6586TIP3    H241394   1.261   0.005   8.821 -0.8469 -0.4242  0.1857
 6587TIP3   OH241395   4.112   3.896   1.172 -0.5715  0.2470  0.1161
 6587TIP3    H141396   4.077   3.920   1.258  0.3797  1.4083  0.2140
 6587TIP3    H241397   4.189   3.842   1.192 -0.4590  0.3608 -0.0071
 6588TIP3   OH241398   3.461   4.055   0.790 -0.1223  0.4092  0.0043
 6588TIP3    H141399   3.457   3.980   0.849  0.2920 -0.4732 -1.0576
 6588TIP3    H241400   3.372   4.090   0.789 -0.0045  0.8396  1.6225
 6589TIP3   OH241401   0.462   6.449   8.784 -0.3225  0.4479  0.2305
 6589TIP3    H141402   0.367   6.442   8.782 -0.2558 -1.3969  1.3052
 6589TIP3    H241403   0.493   6.359   8.796  1.6428  0.7890 -1.6216
 6590TIP3   OH241404   6.354   4.756   1.907 -0.1042 -0.5105 -0.1283
 6590TIP3    H141405   6.319   4.840   1.877  0.2298 -0.9948 -1.9910
 6590TIP3    H241406   6.311   4.740   1.991 -3.0198 -0.2664 -1.4795
 6591TIP3   OH241407   6.785   4.791   0.843  0.5094 -0.1533  0.1132
 6591TIP3    H141408   6.701   4.794   0.797  0.9679  0.7132 -0.6849
 6591TIP3    H241409   6.762   4.810   0.934 -0.3679 -1.6431  0.2469
 6592TIP3   OH241410   4.538   1.215   0.105 -0.9685 -0.3490 -0.9510
 6592TIP3    H141411   4.582   1.266   0.173 -0.8040 -0.0460 -1.2808
 6592TIP3    H241412   4.606   1.158   0.070 -1.5320 -2.0829  0.5961
 6593TIP3   OH241413   1.930   0.505   0.239 -0.9087 -0.2846 -0.1613
 6593TIP3    H141414   1.924   0.526   0.146 -2.4031  1.3284  0.2415
 6593TIP3    H241415   1.905   0.586   0.283 -2.6837 -1.7095  1.6148
 6594TIP3   OH241416   2.309   6.544   0.060  0.0612 -0.1490 -0.4496
 6594TIP3    H141417   2.353   6.482   0.002 -1.4428 -2.0204  0.3273
 6594TIP3    H241418   2.335   6.518   0.148 -0.1672  0.6773 -0.1245
 6595TIP3   OH241419   1.045   4.904   0.915 -0.1200 -0.0145  0.2214
 6595TIP3    H141420   1.133   4.866   0.913 -0.3735 -0.6448  0.5875
 6595TIP3    H241421   0.996   4.856   0.848  0.5188  2.2252 -2.0035
 6596TIP3   OH241422   0.766   1.958   1.318  0.8223 -0.0280 -0.0049
 6596TIP3    H141423   0.722   1.922   1.241  1.0211 -1.2757  0.4391
 6596TIP3    H241424   0.701   1.954   1.387  1.1095 -0.3197  0.2504
 6597TIP3   OH241425   2.855   3.340   7.581  0.1232 -0.6262  0.3623
 6597TIP3    H141426   2.776   3.349   7.528 -0.2240 -2.4374  0.5346
 6597TIP3    H241427   2.848   3.411   7.646 -1.1774 -0.5487  0.1634
 6598TIP3   OH241428   5.102   2.912   6.407 -0.1555 -0.3228  0.3317
 6598TIP3    H141429   5.148   2.940   6.487  0.8438  0.0698 -0.3562
 6598TIP3    H241430   5.013   2.943   6.419  0.0102 -0.1602  1.2430
 6599TIP3   OH241431   1.440   3.062   7.836  0.6352  0.0350  0.8143
 6599TIP3    H141432   1.454   3.010   7.757 -0.7281 -1.1695  1.3315
 6599TIP3    H241433   1.395   3.141   7.806  2.6155  0.9412  0.0423
 6600TIP3   OH241434   0.965   1.195   8.002  0.1437  0.4699  0.0683
 6600TIP3    H141435   1.021   1.139   8.056  0.0473 -0.6357 -0.9276
 6600TIP3    H241436   1.026   1.236   7.940  0.2628  1.7758  1.0229
 6601TIP3   OH241437   2.332   1.114   8.313 -0.2981 -0.9296 -0.3508
 6601TIP3    H141438   2.274   1.062   8.368 -0.2474  0.5955  1.2313
 6601TIP3    H241439   2.289   1.200   8.307  0.8991 -0.3279 -0.6671
 6602TIP3   OH241440   4.688   3.345   0.166  0.1452  0.4492  0.0725
 6602TIP3    H141441   4.671   3.265   0.116 -2.0580  1.7163 -1.4198
 6602TIP3    H241442   4.665   3.416   0.105  0.5859  2.1734  1.8227
 6603TIP3   OH241443   4.850   4.961   8.402  0.1252  0.0365  0.0147
 6603TIP3    H141444   4.766   4.926   8.374 -0.0019  0.1050  0.3046
 6603TIP3    H241445   4.846   4.959   8.498  0.2219  0.5830  0.0348
 6604TIP3   OH241446   5.850   0.268   8.758  0.1637  0.0527 -0.1400
 6604TIP3    H141447   5.928   0.248   8.811 -0.4502 -1.9151  0.0986
 6604TIP3    H241448   5.805   0.336   8.808  2.3599  2.2871 -0.9703
 6605TIP3   OH241449   4.989   2.754   6.865 -0.5282 -0.0062  0.0441
 6605TIP3    H141450   4.976   2.665   6.899  0.3524  0.2612  1.1029
 6605TIP3    H241451   5.001   2.809   6.942  1.4223  0.6244 -0.6407
 6606TIP3   OH241452   6.548   2.999   6.755 -0.0833  0.0965  0.1391
 6606TIP3    H141453   6.639   3.024   6.738 -0.0462  0.5948  1.0082
 6606TIP3    H241454   6.501   3.082   6.760 -0.9376 -0.1968 -2.0164
 6607TIP3   OH241455   3.896   0.439   6.735 -0.2767 -0.3563 -0.4750
 6607TIP3    H141456   3.876   0.503   6.803 -0.6129 -0.1544 -0.7564
 6607TIP3    H241457   3.984   0.462   6.705 -0.2196 -0.3053 -0.2678
 6608TIP3   OH241458   3.085   0.118   6.964 -0.0128  0.0000 -0.1245
 6608TIP3    H141459   2.996   0.151   6.980 -0.1949 -0.7378  0.4887
 6608TIP3    H241460   3.140   0.195   6.967 -0.8696  0.8212 -2.8400
 6609TIP3   OH241461   1.438   0.356   1.984  0.0390 -0.4808 -0.8416
 6609TIP3    H141462   1.367   0.307   2.025  0.3766 -1.4270 -1.3754
 6609TIP3    H241463   1.511   0.295   1.980  1.9689  1.2733  2.4208
 6610TIP3   OH241464   6.075   5.886   1.262 -0.4875  0.0868  0.3474
 6610TIP3    H141465   6.164   5.865   1.232 -0.4360  1.4339 -0.5174
 6610TIP3    H241466   6.019   5.862   1.189 -0.6161  1.0944  0.1034
 6611TIP3   OH241467   4.510   6.027   1.230 -0.1463 -0.0749  0.2755
 6611TIP3    H141468   4.437   5.965   1.228  0.7559 -1.2438 -3.0929
 6611TIP3    H241469   4.474   6.108   1.194  0.0353 -0.5189 -0.9676
 6612TIP3   OH241470   4.983   5.668   7.843 -0.0614 -0.3856  0.2963
 6612TIP3    H141471   5.040   5.744   7.838  1.0144 -1.2452 -1.6459
 6612TIP3    H241472   4.968   5.642   7.752 -3.1312 -0.5533  0.7363
 6613TIP3   OH241473   3.161   3.558   1.008 -0.3436 -0.3491 -0.3298
 6613TIP3    H141474   3.070   3.579   1.028 -0.0231 -0.9220  2.0157
 6613TIP3    H241475   3.156   3.485   0.947 -1.4625 -0.7030  0.1692
 6614TIP3   OH241476   4.807   1.870   6.955  0.1283 -0.0810  0.1311
 6614TIP3    H141477   4.867   1.944   6.956 -0.7720  0.6648  0.1181
 6614TIP3    H241478   4.773   1.868   6.866 -0.5868  0.1086  0.3916
 6615TIP3   OH241479   6.738   3.336   8.100 -0.1927  0.2619 -0.2842
 6615TIP3    H141480   6.767   3.413   8.150 -1.6972  0.0416  1.0133
 6615TIP3    H241481   6.819   3.298   8.065  0.7415  1.4700  0.4833
 6616TIP3   OH241482   0.552   5.463   7.197 -0.6073  0.1509 -0.2634
 6616TIP3    H141483   0.596   5.542   7.166 -1.2307  1.1235  1.2117
 6616TIP3    H241484   0.577   5.395   7.134  0.5973  1.3264 -1.1076
 6617TIP3   OH241485   4.083   0.690   1.214  0.0297  0.4940 -0.4239
 6617TIP3    H141486   3.999   0.712   1.255  0.8213  1.4150  0.7837
 6617TIP3    H241487   4.112   0.773   1.175  0.7522  0.3775 -0.1367
 6618TIP3   OH241488   3.157   0.859   0.253 -0.1062  0.0434 -0.3833
 6618TIP3    H141489   3.248   0.861   0.285  0.2718  0.0402 -1.4109
 6618TIP3    H241490   3.115   0.934   0.296  0.1210 -0.4902  0.8088
 6619TIP3   OH241491   0.022   6.612   0.199 -0.1302 -0.3765  0.8256
 6619TIP3    H141492  -0.026   6.561   0.134  0.8295 -0.3524  0.0766
 6619TIP3    H241493   0.088   6.659   0.148 -0.2307  0.6942  1.6546
 6620TIP3   OH241494   6.622   3.311   1.067 -0.2598 -0.1228 -0.1002
 6620TIP3    H141495   6.643   3.353   0.983  1.1595  1.9276  1.1849
 6620TIP3    H241496   6.688   3.242   1.077 -0.3683 -0.3017 -0.6083
 6621TIP3   OH241497   0.712   5.059   1.790 -0.3840 -0.2474 -0.6925
 6621TIP3    H141498   0.661   5.139   1.775  0.5097  0.2149 -1.3630
 6621TIP3    H241499   0.652   4.988   1.766 -1.0507  0.2288 -0.4868
 6622TIP3   OH241500   2.653   0.618   8.704  0.1518 -0.0248  0.9417
 6622TIP3    H141501   2.575   0.622   8.759 -1.0222 -1.6485 -0.5166
 6622TIP3    H241502   2.677   0.526   8.702  1.9374  0.3939  1.0659
 6623TIP3   OH241503   6.465   3.586   8.143  0.3558  0.1288 -0.4767
 6623TIP3    H141504   6.484   3.599   8.050  0.3451  0.0369 -0.4919
 6623TIP3    H241505   6.551   3.586   8.186  0.2904  4.7475  0.1327
 6624TIP3   OH241506   1.608   4.274   1.696 -0.2752  0.4589  0.6713
 6624TIP3    H141507   1.643   4.319   1.773  1.1824  0.7783 -0.1393
 6624TIP3    H241508   1.612   4.340   1.626 -0.9859 -0.0181  0.1720
 6625TIP3   OH241509   6.123   0.681   7.217  0.5483 -0.9453  0.9809
 6625TIP3    H141510   6.131   0.750   7.152  1.3395 -1.3403  0.6537
 6625TIP3    H241511   6.039   0.639   7.198 -0.0775  0.0974  1.3635
 6626TIP3   OH241512   1.919   5.487   1.617  0.3108 -0.0697  0.6061
 6626TIP3    H141513   1.976   5.517   1.687  0.3919 -1.1977  1.0349
 6626TIP3    H241514   1.861   5.424   1.659  0.2890 -0.6736 -0.3188
 6627TIP3   OH241515   6.190   4.044   8.577  0.1282  0.2500 -0.6836
 6627TIP3    H141516   6.155   4.012   8.660 -0.8684 -1.5330 -1.7429
 6627TIP3    H241517   6.162   4.136   8.574 -2.0350 -0.3228 -0.1762
 6628TIP3   OH241518   6.630   5.678   8.139 -0.2783 -0.0338 -0.1972
 6628TIP3    H141519   6.649   5.768   8.110  1.0864  0.1428  1.0995
 6628TIP3    H241520   6.540   5.681   8.170 -0.4558  0.7284 -0.7567
 6629TIP3   OH241521   3.443   6.259   1.550  0.3207 -0.3714 -0.3681
 6629TIP3    H141522   3.533   6.282   1.574  0.0665  2.1518 -1.5052
 6629TIP3    H241523   3.437   6.281   1.457 -0.9930 -2.1996 -0.7578
 6630TIP3   OH241524   6.004   0.384   1.982  0.5678  0.2043  0.4045
 6630TIP3    H141525   5.995   0.410   1.891 -2.0999  2.5284  1.1787
 6630TIP3    H241526   6.052   0.456   2.023 -1.7965  1.2919  1.4936
 6631TIP3   OH241527   0.918   4.719   0.249  0.3524  0.3007 -0.1029
 6631TIP3    H141528   0.902   4.811   0.268  0.0847  0.1960  0.1932
 6631TIP3    H241529   0.834   4.676   0.266  0.5376 -0.0304 -0.0120
 6632TIP3   OH241530   2.820   6.509   8.101 -0.4913 -0.0071  0.4874
 6632TIP3    H141531   2.879   6.570   8.146 -1.4848  1.9014 -0.6651
 6632TIP3    H241532   2.811   6.435   8.161  1.1538  0.7480  1.7293
 6633TIP3   OH241533   1.409   6.770   8.004  0.1084  0.6136 -0.1851
 6633TIP3    H141534   1.319   6.787   7.976  0.2953 -0.5530 -1.5788
 6633TIP3    H241535   1.401   6.699   8.068 -0.0808  1.5242  0.8212
 6634TIP3   OH241536   2.078   1.752   0.482 -0.0987 -0.2160 -0.0322
 6634TIP3    H141537   2.078   1.829   0.539 -0.4419 -1.9658  2.4662
 6634TIP3    H241538   2.004   1.766   0.423  0.2609  1.6350 -0.1245
 6635TIP3   OH241539   2.787   6.548   0.530  0.4534  0.2144  0.3981
 6635TIP3    H141540   2.730   6.608   0.578 -0.5378 -0.8003  0.5371
 6635TIP3    H241541   2.737   6.466   0.526  0.5890  0.1819 -2.1247
 6636TIP3   OH241542   0.726   4.036   8.525  0.1172  0.6809 -0.3050
 6636TIP3    H141543   0.781   4.085   8.587 -1.4861  0.4808  1.3438
 6636TIP3    H241544   0.727   3.946   8.557 -0.8209  0.5881 -0.5241
 6637TIP3   OH241545   3.265   6.264   8.781 -0.3249  0.8731 -0.4692
 6637TIP3    H141546   3.256   6.169   8.766  0.4743  0.6946  0.1311
 6637TIP3    H241547   3.323   6.294   8.711  0.3550  0.7095  0.0189
 6638TIP3   OH241548   5.705   1.554   0.860 -0.3299 -0.1716  0.1377
 6638TIP3    H141549   5.712   1.465   0.894 -0.7102  0.0904  0.9388
 6638TIP3    H241550   5.748   1.609   0.926 -0.7510  0.3153  0.0179
 6639TIP3   OH241551   3.825   6.536   7.939 -0.5749  0.4809 -0.1805
 6639TIP3    H141552   3.895   6.542   8.005  0.4206  0.8370 -1.2475
 6639TIP3    H241553   3.802   6.443   7.937  0.7514  0.1407 -0.7004
 6640TIP3   OH241554   1.982   2.458   7.741  0.2055  0.4984  0.3213
 6640TIP3    H141555   2.041   2.494   7.808 -2.0571  1.5126  1.8662
 6640TIP3    H241556   1.980   2.524   7.672  1.1723  0.2602  0.0487
 6641TIP3   OH241557   4.524   4.450   8.353  0.3829 -0.5053 -0.5381
 6641TIP3    H141558   4.430   4.434   8.346  0.0321  1.6007 -1.5319
 6641TIP3    H241559   4.548   4.488   8.268  1.7445  0.7060  0.3329
 6642TIP3   OH241560   3.771   4.747   6.768  0.3874  0.3226  0.0351
 6642TIP3    H141561   3.782   4.789   6.853  0.6404 -0.2252  0.2700
 6642TIP3    H241562   3.772   4.820   6.706 -1.5262  0.9141  0.6196
 6643TIP3   OH241563   2.690   2.313   8.716 -0.1234  0.1757  0.4916
 6643TIP3    H141564   2.739   2.383   8.759  0.9090  0.9951 -1.8456
 6643TIP3    H241565   2.756   2.248   8.693 -0.2273  0.7137 -1.5724
 6644TIP3   OH241566   4.103   1.021   0.771  0.1539  0.4614  0.2116
 6644TIP3    H141567   4.114   1.111   0.741 -0.2984  0.0122 -1.4369
 6644TIP3    H241568   4.102   0.969   0.690  0.7671 -1.0668  1.1400
 6645TIP3   OH241569   1.591   0.898   8.284  0.3930  0.8200 -0.0764
 6645TIP3    H141570   1.549   0.829   8.233  1.4650 -0.9512  1.3174
 6645TIP3    H241571   1.527   0.920   8.352  0.0876  1.1533 -0.4671
 6646TIP3   OH241572   0.495   1.482   8.026  0.0919 -0.0033 -0.4669
 6646TIP3    H141573   0.513   1.422   8.098  0.8038 -0.6658 -1.1770
 6646TIP3    H241574   0.541   1.563   8.049 -0.3255  0.0485  0.1844
 6647TIP3   OH241575   5.101   3.188   8.584  0.5530 -0.5454  0.1718
 6647TIP3    H141576   5.176   3.211   8.638  0.1589 -1.2465  1.0499
 6647TIP3    H241577   5.135   3.185   8.495  1.5742 -0.8652  0.5643
 6648TIP3   OH241578   4.171   5.988   1.885  0.0297 -0.1373 -0.3572
 6648TIP3    H141579   4.224   6.065   1.905  0.9151 -1.1821  1.5536
 6648TIP3    H241580   4.201   5.921   1.947 -2.0327 -1.4449 -0.6732
 6649TIP3   OH241581   1.617   4.717   8.764 -0.0390  0.4111  0.6486
 6649TIP3    H141582   1.686   4.700   8.700 -0.5347  0.6240  0.0373
 6649TIP3    H241583   1.593   4.809   8.749  0.9605  0.9798  2.2765
 6650TIP3   OH241584   6.686   0.839   2.574 -0.1850  0.2855  0.1125
 6650TIP3    H141585   6.683   0.775   2.645  0.8991  0.7462  0.5852
 6650TIP3    H241586   6.604   0.824   2.526 -1.0310  0.0796  1.5460
 6651TIP3   OH241587   1.190   2.208   6.334 -0.8553  0.0443  0.0729
 6651TIP3    H141588   1.164   2.269   6.265 -0.5918  0.8764  0.6998
 6651TIP3    H241589   1.182   2.121   6.293 -3.5252  0.2979 -0.1325
 6652TIP3   OH241590   6.657   1.489   6.746 -0.2075 -0.1009  0.0318
 6652TIP3    H141591   6.739   1.486   6.795 -1.2298  2.7525  2.2764
 6652TIP3    H241592   6.682   1.513   6.657  1.4124  0.6420  0.6530
 6653TIP3   OH241593   4.411   1.475   8.470  0.0752 -0.1148 -0.4033
 6653TIP3    H141594   4.351   1.450   8.540  0.6349  0.1245  0.1813
 6653TIP3    H241595   4.411   1.401   8.410 -1.1436  0.0709 -0.6530
 6654TIP3   OH241596   3.874   2.543   2.353 -0.1728  0.0767  0.0100
 6654TIP3    H141597   3.964   2.545   2.322  1.4691  0.5560  4.1316
 6654TIP3    H241598   3.845   2.453   2.340  0.6168  0.0661 -1.9504
 6655TIP3   OH241599   4.576   4.391   1.051  0.3011  0.5503 -0.0001
 6655TIP3    H141600   4.497   4.435   1.083  0.7328  1.3426  0.0075
 6655TIP3    H241601   4.598   4.328   1.120 -0.7975 -0.2951 -0.3886
 6656TIP3   OH241602   5.275   2.982   7.713  0.0313  0.6271  0.1494
 6656TIP3    H141603   5.354   2.929   7.702  0.2251  0.9034  0.1901
 6656TIP3    H241604   5.241   2.993   7.625 -0.2162  0.1297  0.1767
 6657TIP3   OH241605   6.072   2.635   2.923  0.6420 -0.1103  0.9661
 6657TIP3    H141606   6.093   2.678   2.840 -1.1633  1.3846  1.2167
 6657TIP3    H241607   6.055   2.544   2.899  2.8562 -0.3810  0.1588
 6658TIP3   OH241608   5.837   5.493   0.563 -0.0845 -0.1130  0.2647
 6658TIP3    H141609   5.747   5.464   0.571 -0.0176 -0.1736  0.7891
 6658TIP3    H241610   5.887   5.437   0.622  0.5815 -1.2877 -1.3571
 6659TIP3   OH241611   5.895   1.708   0.677 -0.5904 -0.0248  0.2168
 6659TIP3    H141612   5.968   1.651   0.699 -1.7190 -1.1007  1.3837
 6659TIP3    H241613   5.826   1.648   0.648 -1.1604  0.9206 -0.4388
 6660TIP3   OH241614   0.265   1.086   8.215  0.0461 -0.0260  0.1449
 6660TIP3    H141615   0.237   1.123   8.132  0.7576  1.0349  0.3650
 6660TIP3    H241616   0.203   1.015   8.232 -1.5739  1.2794 -0.1046
 6661TIP3   OH241617   6.757   6.590   0.933  0.1046 -0.2168 -0.3202
 6661TIP3    H141618   6.674   6.588   0.886  0.0021 -1.3477 -0.1339
 6661TIP3    H241619   6.817   6.539   0.878  1.8599  3.6668 -2.4504
 6662TIP3   OH241620   6.366   6.555   7.777 -0.8178 -0.0960 -0.0271
 6662TIP3    H141621   6.384   6.462   7.764  0.7274  0.1523  0.1283
 6662TIP3    H241622   6.282   6.569   7.734  0.2502 -0.9865 -2.6192
 6663TIP3   OH241623   3.936   6.843   6.563  0.6169  0.9081  0.1451
 6663TIP3    H141624   3.928   6.914   6.626 -4.3322 -0.8630  2.0349
 6663TIP3    H241625   3.847   6.827   6.533  1.7434 -3.1050 -1.7904
 6664TIP3   OH241626   0.481   1.498   1.145  0.3640 -0.3400 -0.3105
 6664TIP3    H141627   0.465   1.475   1.237  0.8171 -1.3639 -0.4777
 6664TIP3    H241628   0.397   1.481   1.101  1.0979 -3.3696 -0.7356
 6665TIP3   OH241629   0.805   1.530   0.157  0.4104 -0.1170 -0.0045
 6665TIP3    H141630   0.787   1.439   0.182 -0.7186  0.2807  0.7715
 6665TIP3    H241631   0.718   1.567   0.143  0.8106  1.0694  0.5703
 6666TIP3   OH241632   2.107   1.851   1.301 -0.2071 -0.2687  0.2452
 6666TIP3    H141633   2.187   1.876   1.256 -1.2409  0.4115 -1.3077
 6666TIP3    H241634   2.130   1.852   1.394  0.9413  2.4016  0.0202
 6667TIP3   OH241635   4.022   0.351   0.207  0.1210  0.1520 -0.5468
 6667TIP3    H141636   4.026   0.389   0.119 -0.1193  0.8941 -0.2415
 6667TIP3    H241637   3.944   0.295   0.205  0.1856  0.0703 -0.8414
 6668TIP3   OH241638   3.428   1.808   7.931  0.2043 -0.7471 -0.1320
 6668TIP3    H141639   3.466   1.751   7.864  1.7323  1.8111 -1.6354
 6668TIP3    H241640   3.490   1.880   7.938 -1.7023  0.8509  1.5112
 6669TIP3   OH241641   6.671   6.040   8.363  0.1119  0.4093  0.5196
 6669TIP3    H141642   6.591   5.988   8.366 -0.2025  0.6144 -1.9825
 6669TIP3    H241643   6.704   6.028   8.274  2.1787  1.3467  1.1084
 6670TIP3   OH241644   3.621   4.297   0.423 -0.0549 -0.8419 -0.0622
 6670TIP3    H141645   3.565   4.224   0.448 -3.8827  1.9274  0.3933
 6670TIP3    H241646   3.617   4.357   0.498  1.4684  0.6665 -1.0987
 6671TIP3   OH241647   2.575   4.162   1.203  0.0548  0.6832  0.2067
 6671TIP3    H141648   2.500   4.175   1.260 -1.5437  1.2887 -1.9102
 6671TIP3    H241649   2.610   4.250   1.189  0.8790  0.4597  0.7591
 6672TIP3   OH241650   4.409   6.026   0.950 -0.2383 -0.1578 -0.0355
 6672TIP3    H141651   4.388   5.950   1.005 -0.6554  0.2791  0.4105
 6672TIP3    H241652   4.503   6.037   0.959 -0.5234  0.9846  2.0015
 6673TIP3   OH241653   0.052   0.422   1.373  0.2479  0.1341  0.1053
 6673TIP3    H141654   0.082   0.477   1.446  0.9285  0.5173 -0.4469
 6673TIP3    H241655   0.125   0.425   1.311 -1.0894  1.4080 -1.4755
 6674TIP3   OH241656   0.567   3.967   1.448 -0.4013  0.2446  0.1139
 6674TIP3    H141657   0.506   3.896   1.429  0.1352 -0.1863 -0.0435
 6674TIP3    H241658   0.606   3.943   1.533 -0.5326  0.5694  0.2643
 6675TIP3   OH241659   3.598   2.956   0.786 -0.1978  0.1773 -0.0542
 6675TIP3    H141660   3.511   2.920   0.772  0.0498 -0.3039 -0.3783
 6675TIP3    H241661   3.612   3.015   0.711  0.2266 -0.6648 -0.6516
 6676TIP3   OH241662   6.602   0.493   0.580  0.2915  0.0995 -0.1666
 6676TIP3    H141663   6.668   0.428   0.606  0.5004  0.5646  0.5160
 6676TIP3    H241664   6.645   0.577   0.594 -0.8138  0.4542  1.4252
 6677TIP3   OH241665   5.187   3.236   6.433  0.1602 -0.2531  0.2562
 6677TIP3    H141666   5.096   3.266   6.425  0.3961  0.3333 -0.3347
 6677TIP3    H241667   5.190   3.189   6.516 -0.4289  0.6737  0.8182
 6678TIP3   OH241668   0.873   0.219   1.341  0.0219 -0.2795  0.3408
 6678TIP3    H141669   0.880   0.215   1.245 -0.3651  0.8841  0.2400
 6678TIP3    H241670   0.810   0.290   1.356  2.0305  1.3769  1.4976
 6679TIP3   OH241671   3.458   2.067   7.093 -0.1288 -0.0907  0.3745
 6679TIP3    H141672   3.414   1.982   7.094  1.9094 -1.3442 -2.4617
 6679TIP3    H241673   3.549   2.047   7.113  0.6102  1.1985 -1.4851
 6680TIP3   OH241674   0.178   3.095   2.061 -0.7411 -0.6373 -0.1235
 6680TIP3    H141675   0.112   3.066   2.124  0.3814 -1.6106  0.6243
 6680TIP3    H241676   0.256   3.114   2.114 -0.8425  2.0791 -0.7784
 6681TIP3   OH241677   3.840   3.557   0.437  0.2242 -0.1037  0.3632
 6681TIP3    H141678   3.898   3.550   0.361  0.5160  0.0872  0.5624
 6681TIP3    H241679   3.832   3.651   0.452 -0.7394 -0.1045 -0.1105
 6682TIP3   OH241680   5.867   4.388   7.947 -0.7446 -0.0628 -0.0115
 6682TIP3    H141681   5.902   4.306   7.981 -0.1052 -0.3780 -1.3402
 6682TIP3    H241682   5.807   4.362   7.877  1.3825  0.5870 -2.2106
 6683TIP3   OH241683   6.265   4.425   0.463 -0.3753 -0.5707 -0.0855
 6683TIP3    H141684   6.194   4.436   0.527  0.3288  0.4986  0.5403
 6683TIP3    H241685   6.230   4.463   0.382 -0.6004 -0.2295  0.1672
 6684TIP3   OH241686   6.520   1.669   8.137  0.1515  0.2233 -0.2072
 6684TIP3    H141687   6.488   1.651   8.048 -0.9551  1.1397 -0.0142
 6684TIP3    H241688   6.443   1.656   8.193  0.6135  0.5562  0.5182
 6685TIP3   OH241689   0.390   1.342   2.305  0.1562  0.3312 -0.1051
 6685TIP3    H141690   0.483   1.362   2.305  0.6192 -1.5859 -0.2994
 6685TIP3    H241691   0.370   1.320   2.214  0.2405 -2.1116  0.4006
 6686TIP3   OH241692   1.370   4.808   1.508  0.3138  0.4749  0.1401
 6686TIP3    H141693   1.344   4.715   1.509 -0.3118  0.6171 -0.8986
 6686TIP3    H241694   1.463   4.807   1.529 -0.2108 -0.1555  2.8017
 6687TIP3   OH241695   6.343   3.062   7.463 -0.1133 -0.5774  0.1703
 6687TIP3    H141696   6.384   3.030   7.543 -0.2401 -0.0075  0.4686
 6687TIP3    H241697   6.335   3.156   7.476  1.3594 -0.2068 -1.1616
 6688TIP3   OH241698   1.645   3.179   8.308 -0.3455 -0.9617 -0.7629
 6688TIP3    H141699   1.603   3.247   8.360 -1.1341 -1.7808 -0.3157
 6688TIP3    H241700   1.573   3.130   8.269  0.1922 -1.9402 -0.5594
 6689TIP3   OH241701   4.945   6.772   8.521 -0.0272  0.6835  0.3004
 6689TIP3    H141702   5.027   6.821   8.511 -0.2191  1.1077  0.7504
 6689TIP3    H241703   4.961   6.714   8.595  0.3630 -0.2916 -0.5251
 6690TIP3   OH241704   6.382   6.028   2.347 -0.0670 -0.2785  0.2937
 6690TIP3    H141705   6.415   5.939   2.335 -0.0948 -0.3432  0.6827
 6690TIP3    H241706   6.460   6.080   2.366  0.3318  0.2854 -2.4405
 6691TIP3   OH241707   3.664   4.401   8.555  0.0500 -0.5043  0.1196
 6691TIP3    H141708   3.663   4.486   8.598 -0.0158 -0.4729  0.0558
 6691TIP3    H241709   3.701   4.341   8.620 -1.5368 -0.7825  0.8162
 6692TIP3   OH241710   2.651   0.359   8.712  0.2199 -0.0672  0.1486
 6692TIP3    H141711   2.658   0.341   8.806  0.2930  0.9808  0.3635
 6692TIP3    H241712   2.558   0.356   8.694  0.3393 -2.7996 -0.3089
 6693TIP3   OH241713   3.871   5.713   0.924  0.0587 -0.3025 -0.5671
 6693TIP3    H141714   3.878   5.692   1.017 -0.9375 -1.9449 -0.8139
 6693TIP3    H241715   3.798   5.774   0.918  0.5844  0.3771 -0.2194
 6694TIP3   OH241716   1.484   4.414   6.965  0.3008  0.5930  0.6994
 6694TIP3    H141717   1.496   4.319   6.963 -1.8768  0.1994  2.4724
 6694TIP3    H241718   1.494   4.441   6.873 -2.1756 -1.8585 -0.4573
 6695TIP3   OH241719   0.924   1.680   0.362 -0.7095  0.0358  0.8157
 6695TIP3    H141720   0.887   1.661   0.448 -2.1073  0.6188  0.3666
 6695TIP3    H241721   0.891   1.611   0.305 -0.7579  0.3174  0.4965
 6696TIP3   OH241722   3.746   3.306   0.318  0.6866  0.1509  0.2065
 6696TIP3    H141723   3.664   3.292   0.270  0.3833 -0.2208  0.8140
 6696TIP3    H241724   3.776   3.393   0.291  0.8462 -0.2976 -1.1139
 6697TIP3   OH241725   2.806   1.505   0.108  0.4148 -0.1952 -0.7362
 6697TIP3    H141726   2.887   1.522   0.061  0.3373 -0.6814 -1.0462
 6697TIP3    H241727   2.788   1.413   0.093 -0.6126  0.0876 -1.3291
 6698TIP3   OH241728   0.386   4.484   8.249  0.8411  0.1356 -0.2661
 6698TIP3    H141729   0.291   4.491   8.257  0.7497  0.1297 -1.2697
 6698TIP3    H241730   0.400   4.450   8.161  1.8630  2.5166 -1.0902
 6699TIP3   OH241731   5.991   3.964   1.083  0.2142 -0.0655  0.1653
 6699TIP3    H141732   6.000   3.984   1.176  1.1745 -0.4355  0.1690
 6699TIP3    H241733   6.050   3.889   1.069  0.5859  0.4004 -0.8648
 6700TIP3   OH241734   0.911   0.724   8.643 -0.3544  0.4888 -0.2762
 6700TIP3    H141735   0.824   0.685   8.628 -0.0041  0.2370 -1.8160
 6700TIP3    H241736   0.930   0.704   8.734 -1.5700 -0.1604 -0.1359
 6701TIP3   OH241737   4.513   3.787   0.699 -0.4192  0.2039 -0.3088
 6701TIP3    H141738   4.542   3.873   0.666 -1.8244  0.8637  0.0969
 6701TIP3    H241739   4.509   3.732   0.621  3.1706 -0.3775 -0.2504
 6702TIP3   OH241740   5.502   5.281   6.083 -0.3928 -0.3643  0.0509
 6702TIP3    H141741   5.460   5.254   6.165  2.3875  0.2434  1.7876
 6702TIP3    H241742   5.583   5.230   6.079 -0.5793 -0.6135 -2.5532
 6703TIP3   OH241743   6.762   2.492   6.612  0.2352 -0.7176  0.7356
 6703TIP3    H141744   6.680   2.539   6.630 -0.4802 -1.1469 -1.1619
 6703TIP3    H241745   6.822   2.522   6.681 -1.4478 -0.2707  2.0836
 6704TIP3   OH241746   3.567   3.840   8.296  0.5601 -0.2220 -0.6030
 6704TIP3    H141747   3.600   3.812   8.381  0.8960  0.8259 -0.3764
 6704TIP3    H241748   3.637   3.896   8.261 -0.2432  0.6297 -0.8727
 6705TIP3   OH241749   6.268   1.406   0.573  0.0643 -0.1248  0.0789
 6705TIP3    H141750   6.309   1.322   0.594 -1.7502 -0.6316  1.9421
 6705TIP3    H241751   6.338   1.470   0.585  0.8263 -1.1343  1.2694
 6706TIP3   OH241752   0.470   3.431   7.525 -0.0264  0.3535  0.0709
 6706TIP3    H141753   0.424   3.405   7.605  0.9721 -0.3163  0.4518
 6706TIP3    H241754   0.438   3.371   7.458  0.6144 -0.4218  0.4427
 6707TIP3   OH241755   3.383   3.668   1.636 -0.2152 -0.0456  0.2177
 6707TIP3    H141756   3.294   3.655   1.603 -0.3531  0.4159  0.3998
 6707TIP3    H241757   3.439   3.656   1.559 -0.6634  3.3519 -0.8374
 6708TIP3   OH241758   2.122   5.636   8.183 -0.1167  0.5499 -0.7887
 6708TIP3    H141759   2.033   5.604   8.197 -0.3750  1.5522 -0.0319
 6708TIP3    H241760   2.176   5.557   8.186 -0.5766  0.2166  2.3315
 6709TIP3   OH241761   0.313   5.965   2.834  0.3792 -0.3813  0.5070
 6709TIP3    H141762   0.331   5.933   2.746  1.4928  0.2766  0.4706
 6709TIP3    H241763   0.312   5.887   2.890  2.0877 -0.6026  0.2806
 6710TIP3   OH241764   5.091   0.127   2.110  0.0233 -0.1291 -0.5945
 6710TIP3    H141765   5.167   0.133   2.168 -0.1664  1.4176 -0.4547
 6710TIP3    H241766   5.018   0.107   2.169 -0.2798  2.0605 -0.1290
 6711TIP3   OH241767   3.968   4.932   0.242 -0.3240  0.1104 -0.6678
 6711TIP3    H141768   3.952   5.023   0.217  1.1984 -0.0661 -2.5289
 6711TIP3    H241769   4.061   4.928   0.261 -0.5575 -0.8693  0.3766
 6712TIP3   OH241770   1.102   4.685   7.010  0.1697 -0.1451  0.6010
 6712TIP3    H141771   1.059   4.602   7.030  0.3416 -0.5011 -0.4377
 6712TIP3    H241772   1.188   4.678   7.051 -0.7347  0.5962  2.7517
 6713TIP3   OH241773   2.316   4.705   8.121 -0.0950  0.2055 -0.2506
 6713TIP3    H141774   2.364   4.622   8.130  1.2759  0.7759 -1.8049
 6713TIP3    H241775   2.228   4.678   8.094  0.9596 -0.7574 -3.0832
 6714TIP3   OH241776   1.804   5.990   8.730 -0.1667  0.4901 -0.3724
 6714TIP3    H141777   1.750   6.018   8.804  1.0934  1.3727  0.2441
 6714TIP3    H241778   1.838   5.905   8.756 -0.5274  0.3355 -0.3903
 6715TIP3   OH241779   4.596   2.420   7.332 -0.5146 -0.4796 -0.2135
 6715TIP3    H141780   4.646   2.486   7.284  0.0717 -1.9873 -1.7622
 6715TIP3    H241781   4.560   2.467   7.407  0.4194  1.4325 -0.9105
 6716TIP3   OH241782   5.020   6.630   0.154  0.8444 -0.6236  0.7978
 6716TIP3    H141783   5.071   6.550   0.159  1.8033 -0.0426  0.5315
 6716TIP3    H241784   5.057   6.688   0.220 -0.0568 -0.5085  1.2204
 6717TIP3   OH241785   1.847   6.703   1.495 -0.7884 -0.2640 -0.1462
 6717TIP3    H141786   1.917   6.658   1.543  1.6266  2.0225 -1.2871
 6717TIP3    H241787   1.781   6.723   1.561  0.3338 -1.1324  1.2910
 6718TIP3   OH241788   5.162   5.806   7.122  1.1454  0.4801  0.0981
 6718TIP3    H141789   5.110   5.887   7.127 -0.7236 -0.7195  2.1057
 6718TIP3    H241790   5.170   5.777   7.213  1.2636 -1.8810 -0.5927
 6719TIP3   OH241791   3.708   2.748   0.958  0.0379 -0.1345  0.5434
 6719TIP3    H141792   3.684   2.832   0.918 -0.1702 -0.2400  0.4515
 6719TIP3    H241793   3.644   2.735   1.028  1.2711  0.7851  1.9259
 6720TIP3   OH241794   2.533   4.877   0.207 -0.4073  0.0375  0.2309
 6720TIP3    H141795   2.504   4.851   0.294 -0.7047 -0.1105  0.0883
 6720TIP3    H241796   2.605   4.817   0.187 -0.7295 -0.3118  0.1294
 6721TIP3   OH241797   0.083   5.252   8.458  0.2744 -0.3123 -0.0512
 6721TIP3    H141798   0.121   5.167   8.477  0.4169 -0.4165 -0.7587
 6721TIP3    H241799   0.074   5.253   8.362  0.0236  0.3559 -0.0255
 6722TIP3   OH241800   6.411   1.174   0.618 -0.2877 -0.1069  0.2484
 6722TIP3    H141801   6.471   1.132   0.557 -0.9671 -0.1846 -0.3723
 6722TIP3    H241802   6.427   1.130   0.702  0.8990  0.2459  0.2231
 6723TIP3   OH241803   6.188   0.097   8.709  0.7071  0.3233 -0.3503
 6723TIP3    H141804   6.119   0.100   8.775 -0.5223 -2.2844 -1.3714
 6723TIP3    H241805   6.246   0.027   8.737 -0.1609 -1.2406 -2.2089
 6724TIP3   OH241806   4.458   6.693   2.334  0.6790 -0.7956  0.4525
 6724TIP3    H141807   4.504   6.746   2.399 -0.4201  0.2847  0.3968
 6724TIP3    H241808   4.417   6.623   2.385 -0.1900  0.0532  0.9531
 6725TIP3   OH241809   2.858   6.208   8.103 -0.1465  0.6081 -0.1546
 6725TIP3    H141810   2.841   6.116   8.085 -1.7784  1.0168 -0.9331
 6725TIP3    H241811   2.933   6.208   8.162 -0.3923 -1.2275  0.2057
 6726TIP3   OH241812   4.349   0.175   1.297 -0.2640  0.0461  0.2452
 6726TIP3    H141813   4.331   0.154   1.389  0.1312 -1.3112  0.0361
 6726TIP3    H241814   4.441   0.202   1.297 -0.6239  1.3221  0.4318
 6727TIP3   OH241815   3.682   0.251   2.335 -0.2763  0.4667  0.3233
 6727TIP3    H141816   3.717   0.236   2.247 -1.1250  1.5496 -0.2168
 6727TIP3    H241817   3.657   0.163   2.365 -0.2515  0.1128 -0.6409
 6728TIP3   OH241818   4.821   0.868   1.166 -0.2277  0.0867 -0.2486
 6728TIP3    H141819   4.742   0.917   1.143 -0.8429 -0.2777  0.9745
 6728TIP3    H241820   4.893   0.927   1.146 -1.0002  2.7600  3.6787
 6729TIP3   OH241821   1.657   1.825   7.442 -0.0321  0.0424  0.1676
 6729TIP3    H141822   1.587   1.793   7.499  0.5814 -1.4731  0.1255
 6729TIP3    H241823   1.691   1.746   7.400  3.0480  0.4105  1.7012
 6730TIP3   OH241824   5.423   3.826   7.930  0.5322 -0.3223  0.1650
 6730TIP3    H141825   5.388   3.903   7.975  0.3106 -0.2346 -0.1488
 6730TIP3    H241826   5.509   3.854   7.898  0.7868 -0.4599  0.7273
 6731TIP3   OH241827   3.374   1.810   7.649  0.8243 -0.4168  0.2911
 6731TIP3    H141828   3.443   1.744   7.640 -0.8844 -2.2570  0.1050
 6731TIP3    H241829   3.314   1.775   7.714 -0.4352  0.6942 -0.2133
 6732TIP3   OH241830   4.360   1.288   8.691  0.4268  0.4697 -0.6736
 6732TIP3    H141831   4.269   1.258   8.692  0.9057 -1.0535 -0.1779
 6732TIP3    H241832   4.398   1.254   8.772  0.9615  2.7333  0.0952
 6733TIP3   OH241833   0.387   0.762   1.081 -0.1550  0.2850 -0.7682
 6733TIP3    H141834   0.326   0.780   1.153  0.2144 -1.4576  0.0252
 6733TIP3    H241835   0.473   0.761   1.123  0.0819 -0.5703 -1.2581
 6734TIP3   OH241836   6.341   2.632   6.967 -0.5187 -0.4329  0.0746
 6734TIP3    H141837   6.357   2.678   6.884 -0.2147 -0.6475  0.0091
 6734TIP3    H241838   6.289   2.556   6.942  2.6485 -2.5935 -0.5575
 6735TIP3   OH241839   0.843   4.099   6.941  0.8417 -0.3391  0.2665
 6735TIP3    H141840   0.791   4.018   6.943 -0.4214  0.4020 -0.7784
 6735TIP3    H241841   0.815   4.148   7.017  1.4987 -0.7926  0.8169
 6736TIP3   OH241842   1.655   6.553   2.652 -0.4988  0.2860 -0.0411
 6736TIP3    H141843   1.741   6.579   2.684 -0.5746  0.7639 -0.2092
 6736TIP3    H241844   1.621   6.493   2.719 -0.7652  1.4684  0.9277
 6737TIP3   OH241845   0.579   6.689   1.239 -0.5275  0.0469  0.2315
 6737TIP3    H141846   0.609   6.772   1.202  1.8878 -0.9457 -0.2355
 6737TIP3    H241847   0.648   6.627   1.218 -0.3829 -1.2664  3.8656
 6738TIP3   OH241848   1.738   1.705   8.235  0.1572  0.1511 -0.1064
 6738TIP3    H141849   1.684   1.768   8.282 -2.6048 -1.6105 -0.7067
 6738TIP3    H241850   1.773   1.755   8.161 -1.0050  1.2797  0.0568
 6739TIP3   OH241851   1.583   6.673   8.674  0.0599 -0.6646  0.3440
 6739TIP3    H141852   1.660   6.649   8.622 -1.0544  0.1767 -1.7873
 6739TIP3    H241853   1.520   6.603   8.658 -0.2671 -0.4478  0.6612
 6740TIP3   OH241854   6.323   3.477   0.815 -0.1890  0.9280 -0.0040
 6740TIP3    H141855   6.291   3.465   0.725  2.9518 -1.1608 -1.0147
 6740TIP3    H241856   6.300   3.567   0.837 -3.6021  0.6290 -1.7381
 6741TIP3   OH241857   0.529   6.701   0.933  0.3965  0.4536  0.2170
 6741TIP3    H141858   0.584   6.739   1.001  0.9714 -1.5620  0.9567
 6741TIP3    H241859   0.441   6.700   0.970  0.7304 -0.7571  1.0315
 6742TIP3   OH241860   6.608   2.037   8.571  0.3621  1.0241 -0.3473
 6742TIP3    H141861   6.528   1.986   8.559 -0.6704  2.7346 -0.9951
 6742TIP3    H241862   6.677   1.983   8.532 -0.2110 -1.0523  1.3342
 6743TIP3   OH241863   2.695   2.901   8.304  0.1749 -0.8365  0.1992
 6743TIP3    H141864   2.774   2.909   8.358 -0.7907  0.6757  1.4584
 6743TIP3    H241865   2.702   2.814   8.265  2.8970 -0.4403 -0.4652
 6744TIP3   OH241866   0.586   2.321   1.343  0.2357  0.0072  0.1499
 6744TIP3    H141867   0.579   2.283   1.255 -0.0655  0.3399  0.0278
 6744TIP3    H241868   0.501   2.301   1.384  0.4256 -0.2656  0.4147
 6745TIP3   OH241869   3.072   3.542   0.398  0.1508 -0.4366  0.3785
 6745TIP3    H141870   3.025   3.622   0.422 -0.2934 -1.0502  1.6733
 6745TIP3    H241871   3.003   3.479   0.376  0.5065 -0.3853 -0.9517
 6746TIP3   OH241872   4.661   4.929   7.180  0.4919 -0.4668 -0.2505
 6746TIP3    H141873   4.685   5.022   7.175 -2.5450  0.5311  0.9972
 6746TIP3    H241874   4.591   4.919   7.116  0.7008 -1.9153 -0.2936
 6747TIP3   OH241875   4.995   2.289   6.839 -0.0611  0.1145 -0.1066
 6747TIP3    H141876   5.090   2.300   6.837 -0.0927  0.4424  0.1736
 6747TIP3    H241877   4.968   2.297   6.747  0.0988  0.7881 -0.1011
 6748TIP3   OH241878   5.115   4.718   0.079  0.1438 -0.1621  0.2268
 6748TIP3    H141879   5.085   4.772   0.006 -0.3476  0.4760  0.8766
 6748TIP3    H241880   5.107   4.776   0.156  2.7129 -0.0693  0.5122
 6749TIP3   OH241881   1.802   0.508   8.541  0.1255  0.4693  0.5433
 6749TIP3    H141882   1.834   0.418   8.553  1.8227  0.8547 -0.6983
 6749TIP3    H241883   1.726   0.498   8.483  0.3112 -0.1660  0.3965
 6750TIP3   OH241884   0.518   2.242   7.495  0.1185 -0.4255 -0.0974
 6750TIP3    H141885   0.540   2.150   7.481  0.5666 -0.1933 -0.9839
 6750TIP3    H241886   0.424   2.242   7.510 -0.2137 -0.8691 -1.8913
 6751TIP3   OH241887   1.411   5.867   8.655 -0.0215 -0.2114  0.4718
 6751TIP3    H141888   1.322   5.840   8.631 -0.5018 -0.5912  2.4399
 6751TIP3    H241889   1.399   5.921   8.733  1.3432  1.5271 -0.4542
 6752TIP3   OH241890   2.142   1.395   0.785 -0.4272 -0.1744 -0.9006
 6752TIP3    H141891   2.210   1.344   0.828  0.3176 -0.3867 -2.2549
 6752TIP3    H241892   2.066   1.390   0.843 -0.1405 -2.1924 -0.6587
 6753TIP3   OH241893   2.404   1.622   8.316  0.0957 -0.2746  0.4460
 6753TIP3    H141894   2.375   1.597   8.229 -0.1628  1.9984 -0.1890
 6753TIP3    H241895   2.498   1.606   8.316  0.0317 -0.6580 -0.0973
 6754TIP3   OH241896   0.383   0.456   7.796 -0.0499  0.1345  0.0939
 6754TIP3    H141897   0.424   0.531   7.838  0.3469 -0.3361  0.5624
 6754TIP3    H241898   0.324   0.494   7.731  1.6097  0.8189 -1.0846
 6755TIP3   OH241899   6.452   3.246   2.263  0.0108 -0.0398  0.0136
 6755TIP3    H141900   6.497   3.216   2.341  0.9379 -0.7727 -0.7755
 6755TIP3    H241901   6.431   3.337   2.280 -1.1360 -0.5712  1.7016
 6756TIP3   OH241902   3.464   6.628   0.848  0.5318  0.4066 -0.2812
 6756TIP3    H141903   3.394   6.691   0.829  0.9544  0.9167 -0.1800
 6756TIP3    H241904   3.530   6.680   0.894  0.5515 -0.2901  0.4883
 6757TIP3   OH241905   1.225   2.347   7.085 -0.1561 -0.2228  0.5153
 6757TIP3    H141906   1.138   2.384   7.094  0.2300  1.3785 -1.5876
 6757TIP3    H241907   1.212   2.267   7.035 -0.4153  0.0048  0.2207
 6758TIP3   OH241908   2.781   3.681   0.222  0.0420 -0.3911  0.3502
 6758TIP3    H141909   2.717   3.712   0.159 -0.6576  1.2626  1.7718
 6758TIP3    H241910   2.861   3.667   0.171 -1.3125 -2.2978 -1.4257
 6759TIP3   OH241911   1.785   5.102   0.476 -0.5309 -0.3575 -0.2503
 6759TIP3    H141912   1.778   5.098   0.381 -1.3881 -0.5794 -0.1863
 6759TIP3    H241913   1.874   5.074   0.495  0.0635  0.9136 -1.0596
 6760TIP3   OH241914   6.477   1.799   8.456  0.3586 -0.1233 -0.2468
 6760TIP3    H141915   6.449   1.754   8.536 -0.5842  1.5356  0.4086
 6760TIP3    H241916   6.536   1.737   8.413  0.0378 -1.4889  1.1834
 6761TIP3   OH241917   0.967   3.779   7.099  0.7509 -0.6775 -0.8694
 6761TIP3    H141918   0.957   3.720   7.174  1.3419 -1.0040 -1.0325
 6761TIP3    H241919   0.976   3.720   7.024 -0.4071 -0.3450 -1.2778
 6762TIP3   OH241920   4.850   0.590   0.954 -0.2349  0.0882  0.2181
 6762TIP3    H141921   4.897   0.579   0.871  1.4540 -1.3373  1.3076
 6762TIP3    H241922   4.861   0.682   0.976 -2.3299  0.9885 -2.0146
 6763TIP3   OH241923   2.060   0.705   8.079 -0.2639  0.7286 -0.1641
 6763TIP3    H141924   2.105   0.677   7.999  0.2308 -0.1029  0.3964
 6763TIP3    H241925   1.991   0.641   8.091  0.6280 -0.0587  0.9138
 6764TIP3   OH241926   5.675   0.714   0.560  0.2557  0.0227 -0.3202
 6764TIP3    H141927   5.602   0.653   0.556  0.5775 -0.5073  1.1488
 6764TIP3    H241928   5.637   0.799   0.536 -0.7741 -0.3062  0.1086
 6765TIP3   OH241929   3.273   6.741   0.400  0.7184  0.1304  0.4198
 6765TIP3    H141930   3.303   6.773   0.315  0.7476 -0.5389  0.1682
 6765TIP3    H241931   3.212   6.808   0.431 -0.6981 -0.4443 -0.9632
 6766TIP3   OH241932   2.749   0.435   1.529 -0.2670  0.7767  0.5951
 6766TIP3    H141933   2.698   0.381   1.589  0.9466 -0.2606  0.7364
 6766TIP3    H241934   2.838   0.432   1.564  0.4146  0.3776 -1.0947
 6767TIP3   OH241935   0.013   0.013   8.709 -0.3865 -0.2776 -0.4003
 6767TIP3    H141936   0.106   0.036   8.700  0.0653 -2.0022 -0.5174
 6767TIP3    H241937  -0.011   0.042   8.797  0.6056 -0.8997  0.0842
 6768TIP3   OH241938   6.556   4.668   6.478 -0.0382  0.0732  0.1450
 6768TIP3    H141939   6.650   4.676   6.463 -0.2020 -0.0018 -0.9732
 6768TIP3    H241940   6.531   4.587   6.433 -0.7742  0.5176 -0.2674
 6769TIP3   OH241941   5.164   4.501   8.697 -0.0876  0.0707  0.4142
 6769TIP3    H141942   5.152   4.562   8.625  0.0374 -1.7505 -1.2565
 6769TIP3    H241943   5.114   4.538   8.770 -1.6194  1.1763 -1.1219
 6770TIP3   OH241944   4.550   4.873   0.801  0.1244  0.2192 -0.3803
 6770TIP3    H141945   4.530   4.961   0.831  1.1501 -0.0614  1.2716
 6770TIP3    H241946   4.542   4.818   0.880  0.2933 -1.0278 -1.1934
 6771TIP3   OH241947   3.053   4.077   6.858 -0.0690  0.2055  0.0304
 6771TIP3    H141948   3.129   4.036   6.817 -0.7638 -0.5427 -0.5589
 6771TIP3    H241949   3.078   4.089   6.949  0.2508 -1.3297  0.1673
 6772TIP3   OH241950   1.161   5.757   1.211 -0.1176  0.1401 -0.1445
 6772TIP3    H141951   1.075   5.798   1.218 -0.3920 -0.4378 -0.0627
 6772TIP3    H241952   1.173   5.741   1.118 -0.6023 -0.8093 -0.0597
 6773TIP3   OH241953   5.409   2.111   8.250  0.2134  0.3976  0.0346
 6773TIP3    H141954   5.388   2.199   8.281 -1.6634 -0.1883  0.6261
 6773TIP3    H241955   5.400   2.056   8.328 -1.8717 -0.7266 -0.9242
 6774TIP3   OH241956   1.053   0.389   0.901  0.3558  0.4437  0.6726
 6774TIP3    H141957   1.057   0.438   0.819  2.0753 -0.6570  0.0449
 6774TIP3    H241958   1.010   0.449   0.962 -0.8321  1.3481 -0.9653
 6775TIP3   OH241959   5.832   6.693   8.092 -0.9570 -0.0446  0.1559
 6775TIP3    H141960   5.825   6.669   7.999  0.7333  0.1536 -0.0605
 6775TIP3    H241961   5.812   6.612   8.139 -2.0787 -0.0846 -0.3476
 6776TIP3   OH241962   1.410   2.984   1.451  0.3483 -0.0295  0.5548
 6776TIP3    H141963   1.502   2.992   1.426  0.3812 -1.2602  0.2292
 6776TIP3    H241964   1.362   2.976   1.368 -0.0651  0.5962  0.7201
 6777TIP3   OH241965   3.350   0.490   0.607 -0.1514 -0.0447 -0.2180
 6777TIP3    H141966   3.372   0.564   0.550 -1.2932  0.4924 -0.0072
 6777TIP3    H241967   3.371   0.521   0.695 -1.2279  0.3089 -0.0610
 6778TIP3   OH241968   5.563   3.227   1.375  0.0024 -0.1316 -0.4783
 6778TIP3    H141969   5.500   3.160   1.399  0.0469 -0.9090 -2.3709
 6778TIP3    H241970   5.553   3.237   1.281 -0.0456  2.6015 -0.2634
 6779TIP3   OH241971   6.707   1.892   6.603 -0.2257 -0.2058 -0.4310
 6779TIP3    H141972   6.671   1.973   6.640  1.4787  2.3876 -3.8475
 6779TIP3    H241973   6.735   1.841   6.679 -0.1943  3.0071  1.9236
 6780TIP3   OH241974   2.996   2.404   8.114 -0.3818 -0.1792  0.1951
 6780TIP3    H141975   2.926   2.362   8.164 -0.4906 -1.5937 -1.0491
 6780TIP3    H241976   2.966   2.399   8.023  0.6222  0.6536 -0.1979
 6781TIP3   OH241977   3.692   4.599   8.188 -0.1563 -0.1394 -0.1555
 6781TIP3    H141978   3.714   4.689   8.214 -1.5256  0.0676  0.4169
 6781TIP3    H241979   3.754   4.544   8.236  0.2709  0.4719  0.0011
 6782TIP3   OH241980   2.022   4.337   0.785 -0.4401  0.8053  0.2212
 6782TIP3    H141981   2.007   4.311   0.876  1.6995 -2.2996 -0.1502
 6782TIP3    H241982   1.960   4.285   0.734 -0.8198  1.6349 -0.1813
 6783TIP3   OH241983   1.813   6.432   7.263  0.1399 -0.3489 -0.6134
 6783TIP3    H141984   1.845   6.388   7.185  0.2790 -1.4831  0.0641
 6783TIP3    H241985   1.885   6.426   7.326 -0.3357 -0.3558 -0.0602
 6784TIP3   OH241986   3.531   1.093   7.363  0.5518 -0.2674  0.7423
 6784TIP3    H141987   3.465   1.101   7.295  0.2480  2.5240  1.2206
 6784TIP3    H241988   3.613   1.076   7.316  0.4520  2.1387 -0.4815
 6785TIP3   OH241989   2.569   2.439   0.628  0.1128  0.6799 -0.0994
 6785TIP3    H141990   2.582   2.530   0.602 -0.2544  0.8232  0.2069
 6785TIP3    H241991   2.477   2.420   0.608 -0.1589  0.7710  0.9873
 6786TIP3   OH241992   1.152   6.721   7.885 -0.1316  0.2394 -0.6610
 6786TIP3    H141993   1.092   6.764   7.946  1.2776  0.1820  0.8317
 6786TIP3    H241994   1.173   6.638   7.928  0.1765 -0.2180 -1.6881
 6787TIP3   OH241995   6.566   3.128   2.471  0.3526  0.2328 -0.0939
 6787TIP3    H141996   6.484   3.112   2.516 -0.1425  1.6003 -0.4870
 6787TIP3    H241997   6.603   3.040   2.458 -0.2769 -0.2999  1.4509
 6788TIP3   OH241998   4.466   6.215   8.573  0.7091  0.0602 -0.0985
 6788TIP3    H141999   4.408   6.291   8.581  0.0621 -0.5939  1.9274
 6788TIP3    H242000   4.478   6.184   8.663  0.6916 -2.4326 -0.8796
 6789TIP3   OH242001   3.413   0.666   0.813  0.4289  0.0655 -0.2048
 6789TIP3    H142002   3.378   0.754   0.800 -0.7940 -0.3079  0.4479
 6789TIP3    H242003   3.442   0.665   0.905 -2.6998 -1.2087  0.8974
 6790TIP3   OH242004   1.173   0.293   1.543  0.1186 -0.5970 -0.3942
 6790TIP3    H142005   1.132   0.304   1.457 -1.3120 -0.3434  0.2774
 6790TIP3    H242006   1.214   0.378   1.561  0.4630 -0.6663 -0.8367
 6791TIP3   OH242007   2.808   5.100   1.475 -0.1256  0.1615  0.4328
 6791TIP3    H142008   2.788   5.024   1.529  1.4727 -0.1351  0.6500
 6791TIP3    H242009   2.778   5.076   1.388 -1.6014  0.1587  0.9158
 6792TIP3   OH242010   6.439   3.861   1.209 -0.3909  0.5558  0.0686
 6792TIP3    H142011   6.529   3.846   1.181 -0.8755  0.6283 -1.6807
 6792TIP3    H242012   6.435   3.828   1.298  1.2472  0.1394  0.0105
 6793TIP3   OH242013   6.084   4.543   0.791 -0.0855  0.2893  0.6237
 6793TIP3    H142014   6.051   4.505   0.709  0.7877 -0.4911  0.6122
 6793TIP3    H242015   6.006   4.559   0.843 -0.8523  2.7075 -1.1182
 6794TIP3   OH242016   4.887   1.667   1.744 -0.0048  0.4197  0.4574
 6794TIP3    H142017   4.874   1.688   1.837  1.1388 -1.6766  1.1501
 6794TIP3    H242018   4.906   1.574   1.743  1.9676  0.7585 -1.7123
 6795TIP3   OH242019   6.447   1.359   7.426  0.3916  0.1745  0.2634
 6795TIP3    H142020   6.437   1.383   7.518  0.5915  3.0906 -0.3688
 6795TIP3    H242021   6.529   1.401   7.399  0.4736 -0.8409 -1.1841
 6796TIP3   OH242022   5.353   3.445   6.700 -0.3506  0.1659  0.5325
 6796TIP3    H142023   5.390   3.373   6.649 -1.7368  0.2904 -0.7155
 6796TIP3    H242024   5.369   3.523   6.647 -0.2896  0.5498  1.1105
 6797TIP3   OH242025   1.149   1.696   7.734  0.8701 -0.7560  0.2389
 6797TIP3    H142026   1.087   1.650   7.679 -0.0988  0.3755  0.3384
 6797TIP3    H242027   1.130   1.666   7.823  0.3171 -0.2689  0.2914
 6798TIP3   OH242028   6.649   4.582   2.556  0.1566 -0.6438 -0.7510
 6798TIP3    H142029   6.588   4.651   2.529 -1.2675 -1.6282 -0.1741
 6798TIP3    H242030   6.712   4.627   2.612 -0.1118  0.3804 -1.2389
 6799TIP3   OH242031   4.596   6.645   8.615 -0.0552  0.3455  0.1458
 6799TIP3    H142032   4.631   6.584   8.680 -0.7402  0.6696  0.8428
 6799TIP3    H242033   4.643   6.624   8.534  1.7226  0.7863  1.0258
 6800TIP3   OH242034   1.352   3.612   1.173 -0.1752 -1.2087 -0.2692
 6800TIP3    H142035   1.443   3.588   1.155 -0.6189 -2.8483 -0.5680
 6800TIP3    H242036   1.313   3.531   1.208 -1.2185 -0.1945  1.0046
 6801TIP3   OH242037   3.165   0.254   1.886 -0.1430 -0.5863 -0.1880
 6801TIP3    H142038   3.164   0.164   1.918 -0.0365 -1.0446 -1.4197
 6801TIP3    H242039   3.075   0.284   1.895  0.3015  0.1830  2.8234
 6802TIP3   OH242040   4.345   2.232   1.152 -0.3532  0.1455  0.0274
 6802TIP3    H142041   4.368   2.323   1.169  0.1649 -0.1367  0.8841
 6802TIP3    H242042   4.427   2.191   1.125  0.3416 -0.9207  3.3453
 6803TIP3   OH242043   1.097   3.284   7.989  0.1322 -0.1502  0.0478
 6803TIP3    H142044   1.098   3.188   7.989  0.1772 -0.1657  1.4571
 6803TIP3    H242045   1.026   3.307   7.929  1.4238 -1.0030 -1.9276
 6804TIP3   OH242046   1.583   3.750   7.862  0.1866  0.1443  0.3549
 6804TIP3    H142047   1.513   3.807   7.895 -0.6075 -1.4975  1.6215
 6804TIP3    H242048   1.660   3.773   7.915  0.5814  1.6923 -0.7937
 6805TIP3   OH242049   4.897   0.979   8.097 -0.6810 -0.1692  0.0790
 6805TIP3    H142050   4.856   0.934   8.023 -1.5715  0.3798  0.2205
 6805TIP3    H242051   4.897   1.071   8.072 -0.9427  0.0138  0.7414
 6806TIP3   OH242052   4.791   1.103   1.566 -0.3191  0.0008 -0.0568
 6806TIP3    H142053   4.730   1.173   1.591  0.5272  0.6641  0.1745
 6806TIP3    H242054   4.758   1.026   1.613 -0.4029  0.5834  0.8687
 6807TIP3   OH242055   4.183   5.461   7.449  0.1653  0.3741  0.4715
 6807TIP3    H142056   4.193   5.478   7.355  1.5583 -1.9195  0.1077
 6807TIP3    H242057   4.268   5.486   7.487  1.3294 -2.7176  0.2954
 6808TIP3   OH242058   5.317   0.411   1.567 -0.1101 -0.3116 -0.0600
 6808TIP3    H142059   5.310   0.440   1.476 -0.7510  1.1404  0.4200
 6808TIP3    H242060   5.375   0.475   1.608  1.3378 -1.7607  0.2728
 6809TIP3   OH242061   5.456   2.449   6.973  0.0993 -0.3586  0.5086
 6809TIP3    H142062   5.536   2.480   6.930  0.5006 -1.3754  0.4816
 6809TIP3    H242063   5.390   2.449   6.903  0.2513 -0.1638  0.3646
 6810TIP3   OH242064   4.728   6.691   1.364  0.0110  0.3298 -0.2376
 6810TIP3    H142065   4.817   6.713   1.391 -0.2951  1.4188 -0.0266
 6810TIP3    H242066   4.674   6.763   1.399 -1.0386 -0.6141  0.1590
 6811TIP3   OH242067   4.951   6.011   6.363 -0.9764  0.1569 -0.2286
 6811TIP3    H142068   4.897   6.050   6.294 -1.0109  0.3244 -0.1084
 6811TIP3    H242069   4.897   6.016   6.442 -1.2964 -0.8758 -0.3735
 6812TIP3   OH242070   1.684   6.755   1.270  0.1087  0.3148 -0.2585
 6812TIP3    H142071   1.738   6.759   1.191  1.5144  1.6116  0.7273
 6812TIP3    H242072   1.744   6.728   1.339 -0.7942  0.5070  0.6271
 6813TIP3   OH242073   0.627   5.508   1.821  0.2032  0.2699  0.3349
 6813TIP3    H142074   0.685   5.455   1.876 -0.2014  0.1103  0.6138
 6813TIP3    H242075   0.661   5.597   1.829 -1.1414  0.6688  2.6694
 6814TIP3   OH242076   5.997   4.169   2.349 -0.4169 -0.4973  0.0068
 6814TIP3    H142077   6.019   4.258   2.323 -2.5202 -0.3875 -1.7243
 6814TIP3    H242078   6.064   4.114   2.307 -0.1492  0.1446 -0.4131
 6815TIP3   OH242079   5.450   5.591   1.477 -0.1059  0.0168 -0.2937
 6815TIP3    H142080   5.386   5.581   1.406 -0.9574 -0.4153  0.5136
 6815TIP3    H242081   5.519   5.645   1.439 -0.7804  0.2044 -1.3050
 6816TIP3   OH242082   0.897   0.823   6.774  0.5720  0.2100  0.1925
 6816TIP3    H142083   0.992   0.812   6.771  0.7400  1.4461 -3.0148
 6816TIP3    H242084   0.882   0.913   6.745 -1.5933 -0.3396 -0.6397
 6817TIP3   OH242085   0.828   2.126   6.982 -0.0917 -0.3197 -0.1333
 6817TIP3    H142086   0.778   2.082   7.050 -0.9793  1.5604  0.5118
 6817TIP3    H242087   0.761   2.167   6.926  0.6129 -1.6447 -2.0527
 6818TIP3   OH242088   6.615   2.143   8.139  0.2209  0.4644  0.0721
 6818TIP3    H142089   6.572   2.079   8.196 -2.6792  2.0869 -0.1031
 6818TIP3    H242090   6.556   2.152   8.064  0.7585  2.9150 -0.1602
 6819TIP3   OH242091   6.524   0.886   8.141  0.9732 -0.4946  0.1075
 6819TIP3    H142092   6.523   0.855   8.232  0.0732  2.9393  1.4164
 6819TIP3    H242093   6.485   0.814   8.092  1.3113 -2.4166  2.4282
 6820TIP3   OH242094   5.153   1.420   0.674  0.2584 -0.1356  0.3839
 6820TIP3    H142095   5.184   1.469   0.750  0.4752  0.9143 -0.3744
 6820TIP3    H242096   5.213   1.444   0.603 -0.4243 -0.4951 -0.3267
 6821TIP3   OH242097   5.227   0.686   1.191  0.1885 -1.0311 -0.7246
 6821TIP3    H142098   5.260   0.747   1.125  0.9509 -0.9783 -0.3098
 6821TIP3    H242099   5.198   0.742   1.263 -1.6909 -1.0208 -1.4304
 6822TIP3   OH242100   2.294   3.074   1.163 -0.1497 -0.0670  0.1851
 6822TIP3    H142101   2.225   3.081   1.229  0.6182  0.1122  0.9904
 6822TIP3    H242102   2.303   2.979   1.148  0.3563 -0.1789  1.1031
 6823TIP3   OH242103   3.204   6.189   0.833  0.2085  0.4811  0.7905
 6823TIP3    H142104   3.201   6.183   0.737  0.5397 -0.0345  0.8101
 6823TIP3    H242105   3.275   6.251   0.851 -0.1334  0.9039  0.6945
 6824TIP3   OH242106   3.435   2.571   6.603 -0.1009  0.6556 -0.7349
 6824TIP3    H142107   3.378   2.535   6.536 -0.2164  1.2829 -0.9721
 6824TIP3    H242108   3.460   2.495   6.656 -1.4954  0.4352 -0.3592
 6825TIP3   OH242109   2.627   1.421   7.755 -0.2472  0.1684  0.1202
 6825TIP3    H142110   2.652   1.467   7.836 -1.8658  2.7600 -0.7063
 6825TIP3    H242111   2.565   1.354   7.785 -0.9928  1.2239  1.0616
 6826TIP3   OH242112   0.329   4.903   8.736  0.6436 -0.1258 -0.6443
 6826TIP3    H142113   0.301   4.817   8.705 -0.8002 -0.1487  0.5966
 6826TIP3    H242114   0.331   4.895   8.831 -1.5058  1.7103 -0.3583
 6827TIP3   OH242115   2.777   3.493   0.616 -0.2269 -0.0392  0.3583
 6827TIP3    H142116   2.720   3.554   0.569  1.6183  0.6905 -1.0522
 6827TIP3    H242117   2.790   3.534   0.702 -1.3703  0.0368  0.5064
 6828TIP3   OH242118   5.824   0.172   1.810  0.9127  0.2518 -0.4581
 6828TIP3    H142119   5.831   0.115   1.887 -0.6399 -0.3787 -0.7341
 6828TIP3    H242120   5.884   0.244   1.827  0.0045  0.5634  1.7450
 6829TIP3   OH242121   3.281   2.478   7.431  1.0746 -0.3945  0.1975
 6829TIP3    H142122   3.230   2.556   7.452  2.0331  0.1750  0.5200
 6829TIP3    H242123   3.368   2.496   7.468  1.2053 -1.7862  0.6196
 6830TIP3   OH242124   4.239   5.240   6.888 -0.1297 -0.3238 -0.5758
 6830TIP3    H142125   4.297   5.208   6.957 -1.0190 -1.1141 -0.1711
 6830TIP3    H242126   4.244   5.335   6.894 -1.0227 -0.3678  1.2911
 6831TIP3   OH242127   1.176   0.630   2.307 -0.6210 -0.6528 -0.5533
 6831TIP3    H142128   1.136   0.546   2.284 -0.5191 -1.0334  0.6264
 6831TIP3    H242129   1.125   0.661   2.382  0.4242 -0.4936  0.1123
 6832TIP3   OH242130   1.324   4.962   0.692  0.3266  0.1015  0.0441
 6832TIP3    H142131   1.404   4.976   0.641 -0.0484 -1.2195 -0.9898
 6832TIP3    H242132   1.269   4.908   0.635 -0.5700 -0.5090  1.4249
 6833TIP3   OH242133   3.401   6.503   8.054 -0.6034 -0.1054  0.3979
 6833TIP3    H142134   3.404   6.408   8.041  0.3967 -0.1464  0.7897
 6833TIP3    H242135   3.422   6.539   7.968 -0.3522 -0.2582  0.3916
 6834TIP3   OH242136   6.510   2.749   0.544  0.1397 -0.5508  0.3212
 6834TIP3    H142137   6.429   2.700   0.530 -1.2075  1.5567  0.3208
 6834TIP3    H242138   6.541   2.770   0.456 -0.4294  0.3661  0.3349
 6835TIP3   OH242139   6.329   0.670   0.675 -0.2243  0.8267  0.4790
 6835TIP3    H142140   6.318   0.715   0.759  2.6126  0.5486  1.0971
 6835TIP3    H242141   6.345   0.579   0.697  0.1156  0.6618 -0.3774
 6836TIP3   OH242142   5.912   1.070   8.038  0.4748  0.1416 -0.9465
 6836TIP3    H142143   5.962   1.009   7.983  1.5308 -1.2980  1.4569
 6836TIP3    H242144   5.862   1.013   8.097 -0.2956  1.6217 -0.1172
 6837TIP3   OH242145   2.034   6.148   0.070 -1.1507  0.2247  0.7398
 6837TIP3    H142146   2.018   6.231   0.027  1.1325 -0.5368 -1.8545
 6837TIP3    H242147   2.014   6.082   0.004 -1.4692 -1.2499  2.2279
 6838TIP3   OH242148   5.903   0.560   8.164 -0.2465 -0.5546  0.5099
 6838TIP3    H142149   5.938   0.516   8.086  0.0625 -0.5246  0.6316
 6838TIP3    H242150   5.866   0.489   8.216 -2.5501 -0.3599 -0.7166
 6839TIP3   OH242151   3.980   1.556   1.267  0.5689  0.4853  0.6003
 6839TIP3    H142152   4.007   1.641   1.230  2.2646 -0.5470 -0.7121
 6839TIP3    H242153   4.062   1.516   1.297  0.2318 -1.7611 -1.2069
 6840TIP3   OH242154   5.566   5.456   8.348 -0.9099 -0.5825  0.0242
 6840TIP3    H142155   5.606   5.371   8.335 -0.0193  0.1398 -2.3586
 6840TIP3    H242156   5.605   5.489   8.430 -0.8369 -2.1723  0.6568
 6841TIP3   OH242157   5.947   3.650   0.961 -0.2003  0.1317  0.8351
 6841TIP3    H142158   5.929   3.685   1.049  0.7304 -0.8825  1.4562
 6841TIP3    H242159   5.868   3.599   0.939 -0.7841  1.0636  0.7112
 6842TIP3   OH242160   3.848   4.492   1.920  0.8071  0.0945 -0.7026
 6842TIP3    H142161   3.872   4.406   1.954  1.1659  0.2540 -0.5431
 6842TIP3    H242162   3.818   4.475   1.830  0.7260 -0.2144 -0.6164
 6843TIP3   OH242163   6.698   1.652   8.504 -0.1296  0.3717  0.3905
 6843TIP3    H142164   6.785   1.627   8.535  0.3623  1.0131 -0.4481
 6843TIP3    H242165   6.663   1.708   8.574  0.0901  0.0563  0.7579
 6844TIP3   OH242166   6.008   3.719   6.719 -0.0893 -0.7431 -0.3179
 6844TIP3    H142167   6.100   3.730   6.744  0.0017 -0.2878 -0.8164
 6844TIP3    H242168   6.009   3.723   6.623 -0.7568  0.4366 -0.2963
 6845TIP3   OH242169   1.603   5.242   1.591 -0.3577  0.3115  0.2082
 6845TIP3    H142170   1.565   5.206   1.671  0.1750  0.7027  0.6500
 6845TIP3    H242171   1.551   5.204   1.521 -0.0750 -0.9914  0.6675
 6846TIP3   OH242172   4.343   2.311   7.571  0.1154  0.0624 -0.3306
 6846TIP3    H142173   4.362   2.247   7.639 -1.3337 -0.3970 -0.3396
 6846TIP3    H242174   4.255   2.342   7.590 -0.0787  0.3788 -1.6452
 6847TIP3   OH242175   4.390   2.403   8.015 -0.1119  0.2875 -0.2084
 6847TIP3    H142176   4.387   2.391   8.109 -1.4335  3.6908  0.3298
 6847TIP3    H242177   4.483   2.414   7.995  0.1807 -0.5003  0.6406
 6848TIP3   OH242178   2.354   3.899   8.614  0.0701  0.0570  0.2145
 6848TIP3    H142179   2.353   3.993   8.593 -1.6072  0.1159  0.4588
 6848TIP3    H242180   2.392   3.858   8.536 -3.4885  0.5457 -2.0241
 6849TIP3   OH242181   2.917   0.949   1.661 -0.1362 -0.5270 -0.0211
 6849TIP3    H142182   2.907   0.866   1.614 -0.0627 -0.2596 -0.5209
 6849TIP3    H242183   3.002   0.941   1.706  0.1373 -0.5078 -0.5226
 6850TIP3   OH242184   3.550   3.401   7.498 -1.0970  0.6281  0.1063
 6850TIP3    H142185   3.502   3.322   7.526 -0.1456 -0.5235 -1.3386
 6850TIP3    H242186   3.638   3.390   7.535 -0.4957  0.1995 -1.3815
 6851TIP3   OH242187   5.596   0.307   0.949  0.4933  0.6569  0.2250
 6851TIP3    H142188   5.506   0.276   0.964  0.0283  2.5206  1.6694
 6851TIP3    H242189   5.589   0.366   0.874  1.0129 -1.0208 -1.2189
 6852TIP3   OH242190   2.053   0.769   1.300  0.6517 -0.1391  0.4024
 6852TIP3    H142191   2.103   0.756   1.219 -2.4185  1.5400 -1.9663
 6852TIP3    H242192   2.028   0.861   1.299  0.1796 -0.1465  3.1363
 6853TIP3   OH242193   5.035   1.673   0.168 -0.4455  0.2177  0.1474
 6853TIP3    H142194   5.050   1.747   0.228  0.4675  0.9662 -0.9731
 6853TIP3    H242195   5.121   1.656   0.129 -1.1169  0.1168 -1.3518
 6854TIP3   OH242196   3.214   1.044   6.539  0.3010 -0.3542  0.1938
 6854TIP3    H142197   3.278   1.069   6.606  0.5934 -0.4881 -0.0288
 6854TIP3    H242198   3.265   0.994   6.475  0.0538 -0.1385 -0.1822
 6855TIP3   OH242199   2.048   5.403   0.768  0.5353  0.3890 -0.1568
 6855TIP3    H142200   2.005   5.420   0.852 -1.9336 -2.6483 -0.6239
 6855TIP3    H242201   1.991   5.445   0.703  2.1841  2.3226 -0.4693
 6856TIP3   OH242202   1.698   3.065   7.899  0.1506 -0.7855 -0.2158
 6856TIP3    H142203   1.605   3.071   7.922  0.5239  1.0772  1.0609
 6856TIP3    H242204   1.706   3.113   7.817 -0.3199 -2.9250 -1.6086
 6857TIP3   OH242205   2.417   1.414   8.515 -0.1115  0.4376  0.3377
 6857TIP3    H142206   2.484   1.455   8.460  0.6716 -1.2145  0.0026
 6857TIP3    H242207   2.344   1.399   8.456 -0.3893  1.2989  0.4542
 6858TIP3   OH242208   5.315   0.412   1.261  0.0851 -0.1368  0.3489
 6858TIP3    H142209   5.288   0.503   1.247  0.8246  0.0443  0.0395
 6858TIP3    H242210   5.271   0.363   1.193 -0.2403  0.0035  0.4562
 6859TIP3   OH242211   2.300   5.263   7.964  0.0279  0.0545 -0.2878
 6859TIP3    H142212   2.223   5.320   7.964  0.0698  0.1565  1.3720
 6859TIP3    H242213   2.265   5.175   7.952 -0.2915  0.1507 -0.0677
 6860TIP3   OH242214   0.906   4.478   1.471  0.3512  0.3199  0.2225
 6860TIP3    H142215   0.996   4.467   1.440 -0.3311 -0.9224 -1.4686
 6860TIP3    H242216   0.852   4.477   1.392 -1.1796  0.9559  1.1935
 6861TIP3   OH242217   1.287   0.056   1.509 -0.3549 -0.1118  0.1428
 6861TIP3    H142218   1.372   0.094   1.487  0.5122 -0.2071  2.9940
 6861TIP3    H242219   1.231   0.132   1.525 -0.5580 -0.0594 -0.7453
 6862TIP3   OH242220   1.622   6.668   8.286 -0.0518 -0.2961 -0.2142
 6862TIP3    H142221   1.656   6.615   8.214 -1.8806 -0.4596 -1.0075
 6862TIP3    H242222   1.531   6.642   8.295 -0.7188  1.9079  0.1056
 6863TIP3   OH242223   5.525   4.270   8.403 -0.3927 -0.0216 -0.1781
 6863TIP3    H142224   5.512   4.199   8.466  0.6647 -1.2444 -1.3036
 6863TIP3    H242225   5.440   4.279   8.359 -0.4697 -0.7274 -0.1759
 6864TIP3   OH242226   1.277   2.991   8.778 -0.0141 -0.4244 -0.1779
 6864TIP3    H142227   1.281   2.925   8.847 -1.2038  1.3319  1.6913
 6864TIP3    H242228   1.214   2.957   8.715 -0.5847 -1.0922  0.7429
 6865TIP3   OH242229   5.543   3.507   7.971  0.0856 -0.5150  0.2245
 6865TIP3    H142230   5.589   3.577   8.017 -2.1958  0.0399  1.8518
 6865TIP3    H242231   5.563   3.521   7.879  1.7048  0.7240  0.7140
 6866TIP3   OH242232   4.328   5.931   7.911  0.8181 -0.5361  0.2246
 6866TIP3    H142233   4.391   5.862   7.889  1.9143  0.6237 -0.4098
 6866TIP3    H242234   4.360   6.008   7.863 -1.1480  0.0682 -0.1859
 6867TIP3   OH242235   1.168   2.967   2.474 -0.3881 -0.8433 -0.2125
 6867TIP3    H142236   1.159   2.887   2.526 -0.5902 -0.5818  0.1640
 6867TIP3    H242237   1.219   2.941   2.397 -0.0718 -1.2348  0.1240
 6868TIP3   OH242238   0.703   3.578   7.561  0.0313  0.5968 -0.6606
 6868TIP3    H142239   0.779   3.540   7.516  0.1935 -0.4035  0.4190
 6868TIP3    H242240   0.630   3.523   7.534  0.1414 -0.0603  0.3040
 6869TIP3   OH242241   2.082   3.939   7.803 -0.3295 -0.4519  0.1915
 6869TIP3    H142242   2.073   3.934   7.898  1.0038 -0.9936  0.3072
 6869TIP3    H242243   2.128   3.860   7.778 -0.6186 -0.2979 -0.9196
 6870TIP3   OH242244   1.027   1.484   8.790 -0.2107 -0.4447 -0.6927
 6870TIP3    H142245   1.060   1.398   8.818 -1.3005 -0.4820  0.5708
 6870TIP3    H242246   0.956   1.503   8.851  1.2095  2.2235  0.2537
 6871TIP3   OH242247   4.801   1.474   8.591 -0.7145  0.0695  0.1397
 6871TIP3    H142248   4.821   1.390   8.633 -0.2190 -0.0101 -0.2438
 6871TIP3    H242249   4.793   1.536   8.663 -2.7360 -0.6072  0.5781
 6872TIP3   OH242250   3.740   4.944   8.142  0.4497 -0.0746  0.1199
 6872TIP3    H142251   3.831   4.917   8.136  0.4278 -0.3663  0.9044
 6872TIP3    H242252   3.734   4.987   8.228 -0.2074 -0.3102  0.1971
 6873TIP3   OH242253   5.869   6.671   7.080  0.1244  0.0759 -0.3647
 6873TIP3    H142254   5.895   6.740   7.019  0.6472  0.9523  0.7958
 6873TIP3    H242255   5.921   6.595   7.054 -2.2405 -0.7458 -3.2440
 6874TIP3   OH242256   3.401   6.352   0.862  0.4741 -0.0390 -0.1590
 6874TIP3    H142257   3.426   6.444   0.871  0.5949 -0.0495 -0.3787
 6874TIP3    H242258   3.482   6.304   0.877  0.3110 -0.1342  0.4498
 6875TIP3   OH242259   4.680   5.829   0.586 -0.4300 -0.0596  0.2450
 6875TIP3    H142260   4.621   5.890   0.629 -0.8026 -0.7892  0.7991
 6875TIP3    H242261   4.644   5.818   0.498 -1.7330 -1.2683  0.8942
 6876TIP3   OH242262   1.237   3.744   8.629  0.2080  0.1794 -0.7329
 6876TIP3    H142263   1.150   3.781   8.619  0.1370  0.0469 -0.5977
 6876TIP3    H242264   1.224   3.664   8.680  0.5792  0.9287  0.6075
 6877TIP3   OH242265   0.638   3.144   0.248  0.3689 -0.0850  0.0709
 6877TIP3    H142266   0.551   3.104   0.259  0.3581  0.2544  1.3300
 6877TIP3    H242267   0.647   3.203   0.323  0.8041  1.5337 -1.2030
 6878TIP3   OH242268   1.513   0.302   7.814 -0.4937  0.1290 -0.4879
 6878TIP3    H142269   1.598   0.272   7.780 -0.6964  0.0061 -0.9004
 6878TIP3    H242270   1.469   0.340   7.738 -1.1288 -0.5316 -0.4705
 6879TIP3   OH242271   3.087   4.516   1.517  0.0651 -0.2697  0.0554
 6879TIP3    H142272   3.105   4.422   1.518 -1.2440 -0.5419  0.1655
 6879TIP3    H242273   2.997   4.523   1.484  0.4309  0.9995 -0.7351
 6880TIP3   OH242274   2.357   4.184   8.607 -0.0689 -0.6034  0.2898
 6880TIP3    H142275   2.340   4.237   8.685  0.6929 -0.0267  0.0745
 6880TIP3    H242276   2.447   4.206   8.583 -0.0859 -1.2576 -0.3821
 6881TIP3   OH242277   1.923   5.556   0.022 -0.6819  0.3660  0.2354
 6881TIP3    H142278   1.957   5.496  -0.045 -0.9118  0.3631  0.1223
 6881TIP3    H242279   1.895   5.499   0.093 -0.1431  0.3855  0.4716
 6882TIP3   OH242280   1.194   5.763   0.910 -0.0001 -0.7565  0.0137
 6882TIP3    H142281   1.286   5.778   0.886 -0.2675 -0.0536 -0.6305
 6882TIP3    H242282   1.146   5.830   0.861 -0.6964  0.0486  1.7364
 6883TIP3   OH242283   0.350   2.574   2.229  0.1472  0.3893 -0.3088
 6883TIP3    H142284   0.435   2.605   2.200  0.2736  1.0966  0.7611
 6883TIP3    H242285   0.322   2.514   2.160  1.3860  0.3429 -0.8044
 6884TIP3   OH242286   3.757   6.489   8.243 -0.3683 -0.1990  0.3136
 6884TIP3    H142287   3.794   6.573   8.214 -0.2548 -0.6285 -0.8215
 6884TIP3    H242288   3.726   6.448   8.163 -1.2668 -0.8469  0.9781
 6885TIP3   OH242289   6.605   3.902   2.145 -0.1904  0.2046  0.3523
 6885TIP3    H142290   6.518   3.878   2.114  0.2107 -0.4044 -0.3127
 6885TIP3    H242291   6.598   3.996   2.165 -0.8133  0.3153 -0.3364
 6886TIP3   OH242292   0.859   1.917   8.215 -0.0022  0.2955 -0.0551
 6886TIP3    H142293   0.892   1.952   8.132 -0.4179 -0.8104 -0.7199
 6886TIP3    H242294   0.764   1.921   8.206 -0.1094 -1.8725 -0.6120
 6887TIP3   OH242295   4.851   0.058   0.909  0.5446  0.2126 -0.0320
 6887TIP3    H142296   4.860   0.148   0.940  0.0107  0.2997 -0.1118
 6887TIP3    H242297   4.761   0.034   0.932 -0.4390  0.8374 -2.8905
 6888TIP3   OH242298   0.272   5.050   0.834  0.1196  0.1925  0.1447
 6888TIP3    H142299   0.227   4.979   0.788  0.3742 -0.6404  1.1528
 6888TIP3    H242300   0.286   5.117   0.766  0.3541 -0.9324 -0.9595
 6889TIP3   OH242301   5.269   5.702   8.110  0.5792  0.6258  0.3180
 6889TIP3    H142302   5.355   5.666   8.130  0.1890 -1.0723 -0.8402
 6889TIP3    H242303   5.278   5.738   8.022  0.1703  0.6759  0.2922
 6890TIP3   OH242304   1.416   1.200   7.117 -0.1234 -0.2446 -0.4392
 6890TIP3    H142305   1.366   1.127   7.152  0.6761 -0.9838 -0.8040
 6890TIP3    H242306   1.507   1.175   7.131  0.2036  1.9760  2.1355
 6891TIP3   OH242307   0.889   3.583   0.497 -0.7046 -0.1793  0.4097
 6891TIP3    H142308   0.814   3.642   0.485 -1.1716 -0.7837  0.3263
 6891TIP3    H242309   0.956   3.618   0.438 -1.2138 -0.1233 -0.1532
 6892TIP3   OH242310   2.019   1.983   6.774  0.5703  0.1594  0.4041
 6892TIP3    H142311   1.981   2.065   6.741  2.1833  1.4261  1.5477
 6892TIP3    H242312   2.100   2.009   6.817  1.5211 -2.1542  0.1804
 6893TIP3   OH242313   4.752   4.314   0.614  0.0105  0.3415 -0.0039
 6893TIP3    H142314   4.681   4.372   0.586 -0.9844 -1.7698 -2.2383
 6893TIP3    H242315   4.774   4.263   0.536  2.1396 -0.9835  1.3440
 6894TIP3   OH242316   3.690   0.527   1.386  0.0421 -0.1441 -0.0950
 6894TIP3    H142317   3.638   0.546   1.464  1.5057  2.5143  0.3321
 6894TIP3    H242318   3.630   0.479   1.328 -1.5930 -0.6893  1.9287
 6895TIP3   OH242319   0.571   3.562   1.315  0.2543 -0.5703 -0.2282
 6895TIP3    H142320   0.647   3.579   1.259  1.7233 -0.0997  1.7895
 6895TIP3    H242321   0.587   3.475   1.351  0.4288 -0.0381  1.0324
 6896TIP3   OH242322   2.138   0.470   6.993  0.3043  0.4216  0.6651
 6896TIP3    H142323   2.213   0.489   6.936 -1.6633 -1.6155 -3.0120
 6896TIP3    H242324   2.079   0.544   6.982 -0.7071 -0.5841 -1.3711
 6897TIP3   OH242325   5.729   3.959   6.376 -0.4229  0.4160 -0.3886
 6897TIP3    H142326   5.804   3.906   6.401 -0.8383 -0.1418 -0.3046
 6897TIP3    H242327   5.761   4.016   6.306 -0.3637 -1.0073 -1.5669
 6898TIP3   OH242328   4.230   5.593   7.947  0.5231 -0.3589  0.2609
 6898TIP3    H142329   4.308   5.555   7.906  0.9780  2.0818 -1.3733
 6898TIP3    H242330   4.260   5.619   8.034  1.2275 -0.4455  0.0545
 6899TIP3   OH242331   1.234   2.161   6.771 -0.2527 -0.1421  0.0394
 6899TIP3    H142332   1.248   2.067   6.776  0.4605 -0.1768 -1.7126
 6899TIP3    H242333   1.153   2.176   6.820 -0.9045 -1.8043 -0.4380
 6900TIP3   OH242334   4.348   5.814   1.114  0.3053  0.1535  0.1030
 6900TIP3    H142335   4.257   5.822   1.087  0.6100  0.3193 -0.9317
 6900TIP3    H242336   4.364   5.720   1.119  0.2433  0.1166 -0.3389
 6901TIP3   OH242337   0.664   5.755   7.837  0.5892 -0.4716 -0.2024
 6901TIP3    H142338   0.674   5.730   7.929 -0.2289  0.1988  0.0813
 6901TIP3    H242339   0.721   5.831   7.826  3.0835 -2.3098 -1.0678
 6902TIP3   OH242340   2.407   0.661   8.803 -0.3634  0.2874 -0.4170
 6902TIP3    H142341   2.333   0.680   8.860 -0.5157 -2.8077  0.6095
 6902TIP3    H242342   2.372   0.665   8.714 -1.2590  0.8210 -0.0416
 6903TIP3   OH242343   5.504   2.289   1.002 -0.1145  0.6909 -0.0488
 6903TIP3    H142344   5.437   2.221   1.006 -0.7638  1.3807  1.1049
 6903TIP3    H242345   5.548   2.273   0.918 -1.2955 -0.1625 -0.5410
 6904TIP3   OH242346   5.649   1.049   2.186  0.1050 -0.1016 -0.0886
 6904TIP3    H142347   5.568   1.031   2.138  0.0631  0.2973 -0.1664
 6904TIP3    H242348   5.632   1.130   2.234  0.2531 -0.3370  0.3656
 6905TIP3   OH242349   0.005   3.066   7.469  0.6730  0.2129  0.7355
 6905TIP3    H142350   0.004   3.159   7.493 -0.6761  0.3950  0.0469
 6905TIP3    H242351  -0.010   3.065   7.375  1.0863 -0.6935  0.6725
 6906TIP3   OH242352   2.390   2.315   8.739  0.1741 -0.8689  0.0866
 6906TIP3    H142353   2.483   2.293   8.729  1.0170  1.5602  1.6001
 6906TIP3    H242354   2.360   2.334   8.650  0.2963 -4.2518 -0.7986
 6907TIP3   OH242355   4.285   2.720   0.712  0.2476 -0.4027 -0.0694
 6907TIP3    H142356   4.240   2.714   0.627 -0.3646 -0.1724  0.2330
 6907TIP3    H242357   4.243   2.653   0.766  0.6674 -0.5778  0.0435
 6908TIP3   OH242358   5.895   6.331   7.438 -0.7670 -0.2770 -0.0802
 6908TIP3    H142359   5.893   6.280   7.357 -0.5600  0.0722 -0.3045
 6908TIP3    H242360   5.874   6.420   7.411 -1.0770 -0.2268  0.3055
 6909TIP3   OH242361   1.524   4.690   2.371  0.1117  0.6229  0.3462
 6909TIP3    H142362   1.480   4.731   2.446  0.3910  4.1762 -1.2123
 6909TIP3    H242363   1.453   4.649   2.321 -0.1380 -1.3641  2.1954
 6910TIP3   OH242364   3.134   3.049   8.158 -0.3158  0.1289  0.6993
 6910TIP3    H142365   3.165   2.960   8.171  2.0690  0.8352  0.2738
 6910TIP3    H242366   3.143   3.064   8.064 -1.8175  0.4648  0.5831
 6911TIP3   OH242367   1.359   2.404   7.817  0.1010 -0.2473  0.3829
 6911TIP3    H142368   1.446   2.427   7.848 -0.3750  1.0699  0.8014
 6911TIP3    H242369   1.301   2.428   7.888 -0.7571  0.3469 -0.4880
 6912TIP3   OH242370   2.115   0.397   8.580 -0.1743 -0.2811 -0.0375
 6912TIP3    H142371   2.100   0.415   8.487  0.9932 -1.9901 -0.6108
 6912TIP3    H242372   2.069   0.314   8.595  1.4263 -1.1390  0.3221
 6913TIP3   OH242373   5.815   3.799   6.903 -0.2416  0.5410  0.4053
 6913TIP3    H142374   5.741   3.814   6.845 -1.4249  2.5925  2.2677
 6913TIP3    H242375   5.889   3.782   6.845 -1.7035  0.7392 -1.6002
 6914TIP3   OH242376   2.165   4.963   7.625  0.3970 -0.4608 -0.3127
 6914TIP3    H142377   2.150   4.884   7.572 -1.3172 -0.6395  0.3739
 6914TIP3    H242378   2.257   4.958   7.648  0.7081 -1.4384 -1.5915
 6915TIP3   OH242379   6.680   1.068   7.314 -0.2205  0.0979 -0.0279
 6915TIP3    H142380   6.586   1.050   7.316 -0.1838 -0.4209 -1.5302
 6915TIP3    H242381   6.688   1.160   7.338 -1.0619  0.0396  0.5116
 6916TIP3   OH242382   2.427   2.062   1.530  0.3840 -0.1505 -0.0683
 6916TIP3    H142383   2.468   1.990   1.579  0.2588  0.0066  0.2674
 6916TIP3    H242384   2.498   2.097   1.476  0.4394 -0.5445 -0.2547
 6917TIP3   OH242385   1.564   1.884   2.277  0.3688 -0.2619  0.1490
 6917TIP3    H142386   1.505   1.951   2.244 -0.0715 -0.2263  0.9845
 6917TIP3    H242387   1.572   1.902   2.371  2.5470  0.3796 -0.1031
 6918TIP3   OH242388   0.457   1.783   0.660  0.3161 -0.1648  0.0180
 6918TIP3    H142389   0.392   1.725   0.698  0.5442  0.9048  2.1469
 6918TIP3    H242390   0.540   1.739   0.675  0.3771  0.1014  0.4741
 6919TIP3   OH242391   0.738   6.555   7.945  0.2107  0.7657 -0.8024
 6919TIP3    H142392   0.653   6.571   7.985 -0.6341  0.8274 -2.5338
 6919TIP3    H242393   0.717   6.527   7.856  1.9373 -1.0116 -0.7222
 6920TIP3   OH242394   0.415   6.314   7.747 -0.2216  0.4761 -0.3985
 6920TIP3    H142395   0.451   6.282   7.664 -1.5835 -2.1158 -0.0941
 6920TIP3    H242396   0.434   6.244   7.809 -3.2772  0.2094  0.3697
 6921TIP3   OH242397   3.609   3.811   2.033  0.1830 -0.1955 -0.0150
 6921TIP3    H142398   3.702   3.827   2.051  0.3335 -0.0808 -0.8325
 6921TIP3    H242399   3.587   3.873   1.963 -0.2057 -1.0024 -0.6329
 6922TIP3   OH242400   3.277   4.688   8.233 -0.1306 -0.3275  0.1154
 6922TIP3    H142401   3.215   4.709   8.303  0.1549 -0.8992  0.5522
 6922TIP3    H242402   3.260   4.753   8.165 -1.1716 -0.4491  0.2512
 6923TIP3   OH242403   6.516   1.463   8.432  0.2329  0.0993  0.0658
 6923TIP3    H142404   6.591   1.521   8.443 -0.2795  0.6926  0.5188
 6923TIP3    H242405   6.547   1.394   8.374  1.1767  0.2450  0.3792
 6924TIP3   OH242406   3.414   5.340   8.261  0.8132  0.4750  0.4299
 6924TIP3    H142407   3.375   5.283   8.327  1.2268  0.1978  0.4329
 6924TIP3    H242408   3.421   5.425   8.304 -0.2848  0.6679  0.2552
 6925TIP3   OH242409   2.697   2.225   1.503 -0.6471  0.0041 -0.1036
 6925TIP3    H142410   2.759   2.298   1.510  0.6786 -1.1792  1.5099
 6925TIP3    H242411   2.620   2.254   1.551 -0.9677  1.1095 -1.2466
 6926TIP3   OH242412   4.485   5.493   8.630 -0.4849 -0.3544  0.0213
 6926TIP3    H142413   4.524   5.554   8.568 -0.2389  1.0244  1.4622
 6926TIP3    H242414   4.394   5.486   8.602 -0.6060  0.9487 -0.0012
 6927TIP3   OH242415   0.065   5.299   7.903  0.1815 -0.1721 -0.0834
 6927TIP3    H142416   0.045   5.303   7.810 -1.8958 -0.4519  0.2854
 6927TIP3    H242417   0.027   5.379   7.939 -0.1640 -0.6605  0.6724
 6928TIP3   OH242418   1.303   1.805   8.332 -0.1669 -0.7536  0.0367
 6928TIP3    H142419   1.388   1.848   8.320 -0.5127 -0.1540 -0.3154
 6928TIP3    H242420   1.243   1.877   8.353 -0.7913 -1.0485 -0.7125
 6929TIP3   OH242421   6.389   3.943   1.563 -1.0662 -0.1803 -0.1082
 6929TIP3    H142422   6.438   4.006   1.510  1.9958 -0.9766  1.5001
 6929TIP3    H242423   6.425   3.858   1.538 -0.2118 -0.6625  2.3954
 6930TIP3   OH242424   2.571   0.255   7.788  0.6057  0.2897  0.2896
 6930TIP3    H142425   2.618   0.186   7.742  0.7009  0.4313  0.1708
 6930TIP3    H242426   2.509   0.290   7.723 -0.4000 -0.5798  0.7405
 6931TIP3   OH242427   5.500   6.655   7.736 -0.0447 -0.4304  0.2422
 6931TIP3    H142428   5.547   6.573   7.746 -0.6104 -1.1316 -2.1264
 6931TIP3    H242429   5.427   6.649   7.798 -0.2260 -1.8381 -0.0835
 6932TIP3   OH242430   1.482   5.101   1.811 -0.3565  0.4621  0.4080
 6932TIP3    H142431   1.396   5.111   1.772  0.2767 -0.4932 -1.3330
 6932TIP3    H242432   1.470   5.127   1.902 -2.2823  1.1300  0.0112
 6933TIP3   OH242433   3.507   0.798   7.659  0.1658  0.3339 -0.2727
 6933TIP3    H142434   3.484   0.824   7.748 -0.7401 -1.7521  0.1623
 6933TIP3    H242435   3.569   0.865   7.630  0.7631  0.8950  2.0381
 6934TIP3   OH242436   6.061   5.241   1.938 -0.2189  0.2949 -0.3754
 6934TIP3    H142437   5.986   5.192   1.905 -0.7889  1.3567 -0.6809
 6934TIP3    H242438   6.028   5.285   2.016  0.4950 -0.3756  0.3249
 6935TIP3   OH242439   0.453   2.108   2.282  0.5652 -0.2998 -0.6294
 6935TIP3    H142440   0.390   2.059   2.334 -0.3196  1.1636 -0.2718
 6935TIP3    H242441   0.400   2.150   2.213  1.0067  1.4249  0.0179
 6936TIP3   OH242442   1.339   6.044   0.460  0.5569  0.0681  0.3295
 6936TIP3    H142443   1.396   6.027   0.385  0.3696  2.6088 -0.5156
 6936TIP3    H242444   1.275   6.107   0.426 -1.2907 -0.8551  1.9002
 6937TIP3   OH242445   1.800   0.204   8.148 -0.4177 -0.1368  0.2539
 6937TIP3    H142446   1.712   0.219   8.114 -0.7228  0.6649  1.3323
 6937TIP3    H242447   1.852   0.277   8.116  0.2925 -1.4233 -1.7024
 6938TIP3   OH242448   6.679   4.931   7.331 -0.1120  0.6360 -0.6526
 6938TIP3    H142449   6.672   4.848   7.377 -2.0714  2.0747  1.8992
 6938TIP3    H242450   6.674   4.997   7.399 -0.3978  2.9083 -2.7249
 6939TIP3   OH242451   6.548   6.202   1.400  0.1763 -0.2774 -0.3109
 6939TIP3    H142452   6.462   6.199   1.442  0.6011  0.0295  0.6057
 6939TIP3    H242453   6.533   6.251   1.319 -0.5847 -0.5651 -0.3529
 6940TIP3   OH242454   5.450   0.968   7.577 -0.1568  0.3422 -0.5612
 6940TIP3    H142455   5.527   0.924   7.543  1.1644  1.3765  0.9684
 6940TIP3    H242456   5.406   0.902   7.630  1.3323  0.5529  0.9988
 6941TIP3   OH242457   0.203   3.508   8.223  0.2116 -0.8123  0.1323
 6941TIP3    H142458   0.241   3.437   8.171  3.2365  0.4412  0.4298
 6941TIP3    H242459   0.225   3.486   8.313 -0.4625 -0.3943  0.4037
 6942TIP3   OH242460   6.515   3.014   8.347  0.0637  0.1819  0.1117
 6942TIP3    H142461   6.455   3.066   8.293  0.5873  0.8056  0.1273
 6942TIP3    H242462   6.507   2.925   8.312 -0.3363  0.3924 -0.3524
 6943TIP3   OH242463   0.902   6.597   1.441  0.1974 -0.1510 -0.1769
 6943TIP3    H142464   0.907   6.658   1.367 -2.6247  1.1815  0.5696
 6943TIP3    H242465   0.963   6.633   1.506  1.6929 -0.5739 -1.2956
 6944TIP3   OH242466   0.250   5.879   1.264 -0.2553 -0.3621  0.0878
 6944TIP3    H142467   0.257   5.867   1.359  0.7995 -0.9055 -0.0429
 6944TIP3    H242468   0.297   5.960   1.247 -0.1371 -0.4495 -0.0050
 6945TIP3   OH242469   0.714   5.847   0.900 -0.4790 -0.3808  0.7435
 6945TIP3    H142470   0.768   5.864   0.823 -0.3905 -0.7132  0.7282
 6945TIP3    H242471   0.624   5.858   0.869 -0.4176  0.4157  0.8297
 6946TIP3   OH242472   2.179   1.248   2.652  0.1999 -0.3315  0.3862
 6946TIP3    H142473   2.106   1.276   2.596  1.0323  2.8429  0.6863
 6946TIP3    H242474   2.253   1.300   2.622  2.5202 -3.6092 -0.0562
 6947TIP3   OH242475   3.743   0.173   7.829  0.4662 -0.2303  0.4811
 6947TIP3    H142476   3.670   0.116   7.857 -0.5699  0.0364 -1.5019
 6947TIP3    H242477   3.819   0.115   7.828 -0.5807 -1.6851 -1.5817
 6948TIP3   OH242478   1.545   5.499   1.516 -0.3471  0.8464  0.4440
 6948TIP3    H142479   1.533   5.535   1.603  1.6462  0.6302  0.8542
 6948TIP3    H242480   1.585   5.413   1.530  0.8278  1.1654 -0.6678
 6949TIP3   OH242481   2.151   6.539   2.499 -0.6935 -0.0844 -0.4681
 6949TIP3    H142482   2.217   6.607   2.480 -0.5359  0.2027  0.9935
 6949TIP3    H242483   2.068   6.586   2.497 -0.4858  0.5361  1.9234
 6950TIP3   OH242484   6.083   2.254   8.013 -0.1194  0.0636  0.6566
 6950TIP3    H142485   6.052   2.243   8.103  2.5177  2.0957  1.9612
 6950TIP3    H242486   6.104   2.347   8.006  1.3558 -0.3571 -1.4941
 6951TIP3   OH242487   1.619   1.339   2.512  0.0443 -0.1864  0.3443
 6951TIP3    H142488   1.525   1.347   2.532  0.3872 -0.4776  2.2264
 6951TIP3    H242489   1.637   1.245   2.522  0.3747 -0.2671 -0.8927
 6952TIP3   OH242490   5.686   0.760   2.051  0.8289  0.2127  0.2934
 6952TIP3    H142491   5.630   0.827   2.092  1.2727  1.3435 -0.8629
 6952TIP3    H242492   5.773   0.800   2.050  1.5730 -1.2840  1.5106
 6953TIP3   OH242493   0.886   2.722   7.489  0.4578 -0.1351 -0.6913
 6953TIP3    H142494   0.961   2.748   7.435  0.5958 -0.5874 -0.7244
 6953TIP3    H242495   0.911   2.637   7.525  0.7425  0.5515  0.8001
 6954TIP3   OH242496   4.348   6.208   2.225  0.8502 -0.0397 -0.5179
 6954TIP3    H142497   4.393   6.124   2.215 -0.3961 -1.1657  2.3623
 6954TIP3    H242498   4.405   6.258   2.284  0.0604 -0.1371  0.3467
 6955TIP3   OH242499   1.807   2.499   8.084 -0.8310  0.2194 -0.1475
 6955TIP3    H142500   1.891   2.529   8.050 -0.6108 -0.5840 -0.3438
 6955TIP3    H242501   1.822   2.487   8.178 -0.6878 -0.0175 -0.1976
 6956TIP3   OH242502   1.561   6.146   2.290  0.3197 -0.0416 -0.6221
 6956TIP3    H142503   1.473   6.108   2.297  0.7547 -1.1537 -1.1763
 6956TIP3    H242504   1.546   6.240   2.299 -1.0334 -0.1387 -1.5544
 6957TIP3   OH242505   4.757   5.699   1.474 -0.0769  0.6092 -0.2389
 6957TIP3    H142506   4.842   5.729   1.505  0.5627 -0.0185 -1.3087
 6957TIP3    H242507   4.697   5.718   1.545  1.1154  0.3187  0.8735
 6958TIP3   OH242508   6.377   0.284   1.966 -0.2120  0.1511  0.0185
 6958TIP3    H142509   6.347   0.352   1.906 -3.3490 -0.8716  0.2386
 6958TIP3    H242510   6.298   0.235   1.988  1.3572 -1.5080  2.4907
 6959TIP3   OH242511   6.276   1.751   1.028 -0.0905  0.4816  0.2137
 6959TIP3    H142512   6.320   1.686   0.974 -0.2169  0.0022  0.6729
 6959TIP3    H242513   6.206   1.785   0.972 -0.1472  0.0781  0.0328
 6960TIP3   OH242514   0.488   1.738   8.281  0.1310 -0.5006  0.3326
 6960TIP3    H142515   0.570   1.689   8.276 -0.0131 -0.6271 -1.2813
 6960TIP3    H242516   0.510   1.816   8.331  1.3563 -0.3329 -0.4269
 6961TIP3   OH242517   5.917   3.906   0.667  0.3817 -0.0486  0.2148
 6961TIP3    H142518   5.911   3.811   0.675  2.4233 -0.2308  0.0406
 6961TIP3    H242519   5.929   3.921   0.573  1.2567  0.2848  0.3743
 6962TIP3   OH242520   1.409   6.751   0.969  0.0792 -0.2867 -0.4718
 6962TIP3    H142521   1.457   6.672   0.946 -0.1641 -1.4394  2.4932
 6962TIP3    H242522   1.476   6.810   1.003 -0.2317 -1.4575  2.5611
 6963TIP3   OH242523   3.728   2.715   0.594  0.2799  0.4827  0.3390
 6963TIP3    H142524   3.667   2.647   0.620  0.2254  0.2954 -0.2679
 6963TIP3    H242525   3.741   2.767   0.674  0.2029 -0.1362  0.7604
 6964TIP3   OH242526   5.030   0.290   8.772 -0.2228  0.0883  0.0423
 6964TIP3    H142527   4.980   0.318   8.695 -0.4044  0.9264  0.4477
 6964TIP3    H242528   5.007   0.198   8.783 -2.0085  0.5263  0.4344
 6965TIP3   OH242529   0.371   6.511   7.263  0.2892 -0.8958 -0.6038
 6965TIP3    H142530   0.335   6.503   7.351 -1.6601 -0.8692 -1.3301
 6965TIP3    H242531   0.441   6.575   7.270  0.6852 -1.4859  1.0556
 6966TIP3   OH242532   4.901   4.933   8.678  0.1747 -0.2164 -0.0947
 6966TIP3    H142533   4.913   4.978   8.762 -0.3200  0.8556 -0.5831
 6966TIP3    H242534   4.901   4.840   8.701 -0.6020  0.0730  1.1969
 6967TIP3   OH242535   6.817   4.469   1.267  0.1352 -0.5656 -0.1410
 6967TIP3    H142536   6.863   4.475   1.351 -0.0769 -1.7605  0.0791
 6967TIP3    H242537   6.886   4.450   1.203  0.3647  0.7983 -0.3420
 6968TIP3   OH242538   5.093   2.037   7.532 -0.1007 -0.4778 -0.3610
 6968TIP3    H142539   5.061   1.950   7.509 -2.3126 -0.3886  1.8788
 6968TIP3    H242540   5.074   2.045   7.626  1.0382  2.0205 -0.2577
 6969TIP3   OH242541   6.398   4.094   8.771 -0.6691  0.0342 -0.3308
 6969TIP3    H142542   6.372   4.062   8.685  1.1844  1.1373 -1.3681
 6969TIP3    H242543   6.336   4.164   8.791  0.1094  1.1880 -1.7721
 6970TIP3   OH242544   3.160   6.471   0.719  0.4773 -0.5509  0.0331
 6970TIP3    H142545   3.095   6.402   0.703  1.2629 -1.2306 -0.3017
 6970TIP3    H242546   3.219   6.434   0.785 -0.7863  0.9596  2.1359
 6971TIP3   OH242547   3.121   3.284   6.389  0.0356 -0.4113 -0.4246
 6971TIP3    H142548   3.142   3.263   6.480 -1.4231  2.6512  0.7619
 6971TIP3    H242549   3.110   3.199   6.346  1.2427 -1.9449  2.1138
 6972TIP3   OH242550   0.767   4.984   1.006 -0.2240 -0.2549 -0.1954
 6972TIP3    H142551   0.806   4.957   1.089 -1.0528  1.1835  0.7109
 6972TIP3    H242552   0.823   5.056   0.975 -0.8523  0.3091 -0.0363
 6973TIP3   OH242553   2.092   1.999   8.176 -0.0098 -0.0702 -0.2567
 6973TIP3    H142554   2.012   2.007   8.228 -0.0294  1.4057 -0.4731
 6973TIP3    H242555   2.064   2.019   8.086  0.2366 -1.5250 -0.6897
 6974TIP3   OH242556   2.901   6.102   8.779 -0.3767 -0.0618 -0.6015
 6974TIP3    H142557   2.889   6.177   8.837 -0.5138 -0.8641  0.4192
 6974TIP3    H242558   2.826   6.106   8.719 -0.4446  0.5397 -0.4825
 6975TIP3   OH242559   3.187   0.556   0.073  0.3788  0.1371  0.4774
 6975TIP3    H142560   3.260   0.605   0.034  0.9353  0.0757  1.4150
 6975TIP3    H242561   3.144   0.514  -0.002  1.0674  0.4861 -0.1307
 6976TIP3   OH242562   2.542   2.720   0.507  0.1637 -0.0503  0.8717
 6976TIP3    H142563   2.538   2.753   0.417  0.3016 -1.1975  0.4241
 6976TIP3    H242564   2.629   2.743   0.538  0.1051  0.3750  0.7277
 6977TIP3   OH242565   5.300   6.385   6.928  0.2001 -0.2864 -0.4071
 6977TIP3    H142566   5.324   6.303   6.884  2.4002 -1.0158  1.8781
 6977TIP3    H242567   5.338   6.454   6.874 -1.1268 -0.7699 -2.0174
 6978TIP3   OH242568   1.136   4.959   7.959  0.2125  0.5020 -0.1504
 6978TIP3    H142569   1.144   4.877   8.007 -1.1228 -0.1467 -0.9983
 6978TIP3    H242570   1.103   4.934   7.873  1.8888  1.7020 -1.2083
 6979TIP3   OH242571   5.740   0.512   6.913 -0.4096 -0.2254 -0.8683
 6979TIP3    H142572   5.753   0.459   6.834 -1.0920 -1.1809 -0.3610
 6979TIP3    H242573   5.665   0.472   6.957  0.3929 -0.1647  0.6271
 6980TIP3   OH242574   6.219   0.449   2.561 -0.0092  0.1966  0.2471
 6980TIP3    H142575   6.127   0.473   2.549  0.2705  1.9052  1.1396
 6980TIP3    H242576   6.242   0.398   2.483 -1.8315 -0.6822  0.2466
 6981TIP3   OH242577   6.769   0.701   7.136  0.0696 -0.3166  0.5453
 6981TIP3    H142578   6.812   0.782   7.166  0.8707 -0.4834 -0.1292
 6981TIP3    H242579   6.676   0.716   7.154 -0.4141  2.4406 -3.1253
 6982TIP3   OH242580   6.411   3.228   6.770  0.0505 -0.3303 -0.1194
 6982TIP3    H142581   6.397   3.242   6.676 -0.3959 -0.4640 -0.0718
 6982TIP3    H242582   6.325   3.238   6.809  0.7878  5.0069  0.9733
 6983TIP3   OH242583   1.958   1.944   1.563 -0.6301  0.4352 -0.1711
 6983TIP3    H142584   1.955   1.906   1.651  2.3311  0.0913 -0.1242
 6983TIP3    H242585   2.042   1.989   1.559 -0.8803  0.8278 -2.7050
 6984TIP3   OH242586   0.325   4.179   1.326  0.4982 -0.2465 -0.6075
 6984TIP3    H142587   0.316   4.111   1.393  0.7111  0.2488 -0.0659
 6984TIP3    H242588   0.247   4.233   1.336  0.6183 -0.0677 -0.6332
 6985TIP3   OH242589   5.203   3.754   8.814 -0.7211 -0.2701 -0.1132
 6985TIP3    H142590   5.295   3.751   8.785 -0.6651 -2.6016  0.0813
 6985TIP3    H242591   5.164   3.825   8.763  1.3766  1.3693  0.4296
 6986TIP3   OH242592   5.473   4.022   0.916  0.1074  0.3390 -0.1388
 6986TIP3    H142593   5.420   3.950   0.949 -0.3685  0.8825  0.3069
 6986TIP3    H242594   5.563   3.995   0.930 -0.0727 -0.0842  0.2002
 6987TIP3   OH242595   2.435   6.035   7.384  0.2192  0.0698  0.4345
 6987TIP3    H142596   2.509   5.978   7.365  0.2225  0.3815 -0.5641
 6987TIP3    H242597   2.405   6.064   7.298 -0.3382  0.8597  0.8832
 6988TIP3   OH242598   3.511   4.668   0.399 -0.6563 -0.0242 -0.0376
 6988TIP3    H142599   3.550   4.735   0.343 -1.0295  0.6764  0.5397
 6988TIP3    H242600   3.578   4.650   0.465 -1.7459  2.2053  1.8219
 6989TIP3   OH242601   0.730   6.003   8.282 -0.9580  0.3181 -0.0160
 6989TIP3    H142602   0.690   6.067   8.224 -1.6256 -0.3984 -0.3590
 6989TIP3    H242603   0.715   5.918   8.240 -0.6971 -0.1355  0.7718
 6990TIP3   OH242604   4.424   0.859   1.921  0.5245 -0.1254  0.5635
 6990TIP3    H142605   4.452   0.832   2.009  0.4340  0.8465  0.9048
 6990TIP3    H242606   4.352   0.919   1.937 -2.2355 -2.9306 -0.2922
 6991TIP3   OH242607   1.558   6.475   6.449 -0.4576 -0.4320 -0.0183
 6991TIP3    H142608   1.538   6.388   6.415 -0.9152 -0.7116  0.9271
 6991TIP3    H242609   1.637   6.463   6.502 -0.5830 -0.2963  0.2030
 6992TIP3   OH242610   2.289   2.480   7.849 -0.5763  0.3377 -0.4910
 6992TIP3    H142611   2.371   2.507   7.809 -0.5438 -1.2481 -1.5929
 6992TIP3    H242612   2.305   2.390   7.879 -2.4874 -0.8340 -2.6489
 6993TIP3   OH242613   0.268   6.465   7.577 -0.3579 -0.3965  0.2681
 6993TIP3    H142614   0.328   6.403   7.618  1.7707  1.3813  0.0602
 6993TIP3    H242615   0.250   6.529   7.645  0.2596  0.5781 -0.4487
 6994TIP3   OH242616   1.197   4.405   1.377  0.5817  0.4124 -0.5739
 6994TIP3    H142617   1.212   4.466   1.304 -0.2126  0.6044 -0.5808
 6994TIP3    H242618   1.134   4.342   1.344 -1.4858  1.7409  0.5894
 6995TIP3   OH242619   2.834   4.007   7.502  0.3362 -0.2266  0.4746
 6995TIP3    H142620   2.807   3.938   7.562 -1.0562 -0.8719 -0.8100
 6995TIP3    H242621   2.900   4.056   7.550  0.7543 -1.9292  1.7442
 6996TIP3   OH242622   0.433   2.092   1.366 -0.4399  0.0071  0.4320
 6996TIP3    H142623   0.453   2.060   1.454 -2.0635  1.6621  1.4804
 6996TIP3    H242624   0.355   2.043   1.340 -1.7190  1.5808  1.1922
 6997TIP3   OH242625   4.709   3.128   0.396  0.1384  0.2130 -0.0260
 6997TIP3    H142626   4.800   3.118   0.370 -0.2076 -0.4262 -0.9982
 6997TIP3    H242627   4.669   3.179   0.326 -0.0867  1.1944  0.7822
 6998TIP3   OH242628   0.675   4.191   1.657  0.5460  0.2447 -0.2036
 6998TIP3    H142629   0.641   4.269   1.701 -0.2428  0.6351 -1.4323
 6998TIP3    H242630   0.606   4.126   1.668 -0.4643  0.8672 -2.2304
 6999TIP3   OH242631   3.854   0.973   6.888 -0.6565 -0.7313 -0.3759
 6999TIP3    H142632   3.899   1.019   6.959 -0.9834 -0.7548 -0.1489
 6999TIP3    H242633   3.801   1.041   6.846  0.0627 -0.5708 -1.0365
 7000TIP3   OH242634   1.556   1.540   6.777  0.0713  0.1900  0.5144
 7000TIP3    H142635   1.555   1.499   6.691 -0.8677 -0.9417  1.0376
 7000TIP3    H242636   1.467   1.574   6.788  0.3554  0.8595  0.8006
 7001TIP3   OH242637   3.119   0.444   8.631 -0.0352 -0.1300 -0.0104
 7001TIP3    H142638   3.213   0.429   8.617 -0.1232  0.1892 -1.0638
 7001TIP3    H242639   3.089   0.481   8.548 -1.1222 -0.3514  0.2734
 7002TIP3   OH242640   1.809   5.669   8.175  0.2712 -0.3151  0.5698
 7002TIP3    H142641   1.823   5.596   8.115  0.3334  0.2711 -0.1378
 7002TIP3    H242642   1.744   5.636   8.237 -1.1526 -0.3439 -0.8677
 7003TIP3   OH242643   3.453   1.298   7.563  0.4968  0.2495 -0.0905
 7003TIP3    H142644   3.465   1.228   7.500 -2.0881 -1.1557  0.8530
 7003TIP3    H242645   3.508   1.273   7.638  1.1360  0.2965 -0.5411
 7004TIP3   OH242646   0.044   4.639   7.353 -0.6174 -0.4488 -0.3925
 7004TIP3    H142647   0.076   4.643   7.263 -1.1349  0.1420 -0.5518
 7004TIP3    H242648   0.064   4.549   7.381  0.8755 -0.2115 -0.5872
 7005TIP3   OH242649   0.291   5.484   8.047 -0.2629  0.1640  1.1499
 7005TIP3    H142650   0.325   5.455   8.132 -0.9058 -0.7480  1.1140
 7005TIP3    H242651   0.220   5.422   8.027  0.8544 -0.5771 -0.7731
 7006TIP3   OH242652   6.706   4.084   7.885  0.0930  0.7095  0.0220
 7006TIP3    H142653   6.771   4.101   7.954  1.7350  0.2964 -1.3635
 7006TIP3    H242654   6.671   3.997   7.906  1.1232  0.2664 -0.0653
 7007TIP3   OH242655   1.155   1.287   1.238  0.0733 -0.3390 -0.0866
 7007TIP3    H142656   1.244   1.295   1.201 -0.2755 -0.4910 -0.9996
 7007TIP3    H242657   1.158   1.338   1.319  1.2071 -0.9839  0.3020
 7008TIP3   OH242658   1.675   0.601   6.690 -0.0722 -0.8812 -0.4803
 7008TIP3    H142659   1.765   0.583   6.664  0.6762  1.0962  0.5212
 7008TIP3    H242660   1.630   0.620   6.608  1.5778  2.5536 -0.7824
 7009TIP3   OH242661   3.429   5.086   0.881  0.1770  0.5479  0.1301
 7009TIP3    H142662   3.388   5.169   0.857 -0.3699  0.4782  0.8040
 7009TIP3    H242663   3.356   5.026   0.896  0.5654 -0.3153 -1.1900
 7010TIP3   OH242664   3.730   5.730   0.027 -0.2349  0.2136  0.3855
 7010TIP3    H142665   3.783   5.686   0.094 -0.0320  0.2237  0.2328
 7010TIP3    H242666   3.794   5.775  -0.028 -0.4628  1.1033  0.8275
 7011TIP3   OH242667   5.659   0.880   7.400  0.4416 -0.0159  0.0938
 7011TIP3    H142668   5.740   0.835   7.424  1.3880  1.5473 -0.0364
 7011TIP3    H242669   5.674   0.971   7.425 -0.5324  0.6745 -1.6534
 7012TIP3   OH242670   4.139   1.797   1.220  0.6119 -0.1129  0.4748
 7012TIP3    H142671   4.189   1.726   1.261  0.1653 -0.3463  0.6311
 7012TIP3    H242672   4.165   1.876   1.268  1.8989  0.0124 -0.3826
 7013TIP3   OH242673   1.060   2.981   1.578 -0.0364  0.1350 -0.2996
 7013TIP3    H142674   1.130   2.972   1.514  0.0233  1.6606 -0.4795
 7013TIP3    H242675   1.070   2.904   1.635  1.9839  0.4600 -0.1303
 7014TIP3   OH242676   1.520   4.924   8.163  0.3826 -0.0643 -0.5534
 7014TIP3    H142677   1.467   4.981   8.219  1.3590 -0.0278  0.3606
 7014TIP3    H242678   1.485   4.937   8.075 -0.9662  0.1381 -0.0164
 7015TIP3   OH242679   6.030   4.197   0.582  0.1094 -0.1044  0.3391
 7015TIP3    H142680   6.061   4.174   0.670  2.0621  2.1215  0.3410
 7015TIP3    H242681   6.100   4.167   0.524  0.8430  2.0538  0.0075
 7016TIP3   OH242682   3.407   3.996   7.217 -0.1505  0.0292  0.0353
 7016TIP3    H142683   3.462   4.015   7.141 -2.4628  1.3194 -1.4324
 7016TIP3    H242684   3.436   4.059   7.283  1.4949 -0.7215  0.0928
 7017TIP3   OH242685   3.271   3.026   0.960  0.0408  0.3741 -0.5320
 7017TIP3    H142686   3.268   2.931   0.967 -1.9543  0.1990 -2.5882
 7017TIP3    H242687   3.227   3.058   1.038 -1.0806 -0.4786 -0.7963
 7018TIP3   OH242688   4.914   2.879   0.524  0.0771 -0.2280 -0.6545
 7018TIP3    H142689   4.889   2.802   0.575  0.9667 -0.0207  0.1226
 7018TIP3    H242690   4.871   2.952   0.568  0.1514 -0.1471 -0.7152
 7019TIP3   OH242691   5.758   0.156   0.527 -0.4713  0.0659  0.4983
 7019TIP3    H142692   5.842   0.168   0.482  0.0816  0.7102  1.6668
 7019TIP3    H242693   5.781   0.122   0.613 -0.8498  4.9537  2.8758
 7020TIP3   OH242694   2.844   5.708   1.795 -0.6423 -0.5332 -0.3009
 7020TIP3    H142695   2.891   5.788   1.819  1.0723 -1.2298 -1.1408
 7020TIP3    H242696   2.864   5.646   1.866 -0.6394 -0.7021 -0.4479
 7021TIP3   OH242697   6.000   4.926   1.173  0.5158  0.1871  0.1949
 7021TIP3    H142698   6.023   5.019   1.177  0.4187  0.2404 -0.5224
 7021TIP3    H242699   6.076   4.884   1.135 -0.2864  0.2790 -1.5918
 7022TIP3   OH242700   2.500   6.434   1.489  0.5351 -0.6906  0.3986
 7022TIP3    H142701   2.512   6.347   1.526  0.8517 -0.9049 -0.1897
 7022TIP3    H242702   2.407   6.452   1.500  0.8352 -0.1547  2.5489
 7023TIP3   OH242703   2.191   5.849   2.004  0.2647  0.0629  0.2581
 7023TIP3    H142704   2.206   5.773   2.059 -1.2572 -0.0315  0.5998
 7023TIP3    H242705   2.234   5.921   2.051 -0.8643 -0.0440  1.5202
 7024TIP3   OH242706   6.823   6.695   1.551 -0.4701 -0.4778  0.1127
 7024TIP3    H142707   6.766   6.625   1.519  0.3275 -0.6123 -1.0655
 7024TIP3    H242708   6.763   6.763   1.582 -1.2557 -1.5233  0.9667
 7025TIP3   OH242709   1.130   6.427   0.601  0.1224 -0.1864  0.0361
 7025TIP3    H142710   1.118   6.484   0.677 -1.6813 -1.0636  0.4612
 7025TIP3    H242711   1.132   6.487   0.526  1.9632  0.6882  0.7162
 7026TIP3   OH242712   6.262   0.358   1.211  0.5016 -0.8108 -0.1215
 7026TIP3    H142713   6.192   0.391   1.268 -0.8692  0.4600 -2.4110
 7026TIP3    H242714   6.334   0.420   1.225  0.1372 -0.4351  0.1554
 7027TIP3   OH242715   5.689   1.802   7.875 -0.6716 -0.1158 -0.5501
 7027TIP3    H142716   5.664   1.800   7.967 -2.2848 -2.6362 -0.9458
 7027TIP3    H242717   5.620   1.754   7.830  0.0647  1.0480 -3.1163
 7028TIP3   OH242718   4.816   1.764   7.723 -0.4564 -0.4414  0.3016
 7028TIP3    H142719   4.809   1.826   7.795  1.5430  1.3855 -0.9096
 7028TIP3    H242720   4.765   1.804   7.652 -0.1719 -0.7911 -0.1087
 7029TIP3   OH242721   0.278   3.325   7.727 -0.0013  0.1432  0.1800
 7029TIP3    H142722   0.200   3.285   7.764  0.4736 -0.8139  0.1747
 7029TIP3    H242723   0.319   3.256   7.675  1.1865  0.4302  0.6911
 7030TIP3   OH242724   1.412   1.921   1.409 -0.2198  0.1339  0.1518
 7030TIP3    H142725   1.361   1.998   1.383 -1.0766 -0.6957 -0.7247
 7030TIP3    H242726   1.435   1.878   1.326  3.0146  1.1110  0.3994
 7031TIP3   OH242727   3.484   6.547   0.015 -0.3274  0.1085 -0.3990
 7031TIP3    H142728   3.503   6.499   0.095  1.8492  1.4169 -0.0598
 7031TIP3    H242729   3.563   6.538  -0.038 -1.3536  0.0915 -2.0016
 7032TIP3   OH242730   0.363   2.962   0.970 -0.3684 -0.0567 -0.6027
 7032TIP3    H142731   0.315   2.942   0.889 -2.8305 -1.0979  0.9734
 7032TIP3    H242732   0.451   2.928   0.955 -1.0369 -1.1183 -2.4967
 7033TIP3   OH242733   3.040   2.970   0.582 -0.2071 -0.1363  0.1981
 7033TIP3    H142734   2.973   3.031   0.552 -0.0168 -0.0096  0.0182
 7033TIP3    H242735   3.068   3.004   0.667  0.3829  0.4308 -0.2073
 7034TIP3   OH242736   1.883   5.783   1.556 -0.0715 -0.2116  0.2904
 7034TIP3    H142737   1.919   5.814   1.640 -0.8386 -0.4218  0.7087
 7034TIP3    H242738   1.880   5.688   1.566 -0.8384 -0.1867  0.3024
 7035TIP3   OH242739   6.601   0.748   1.502  0.0726 -0.1110 -0.0036
 7035TIP3    H142740   6.616   0.835   1.464  0.8446 -1.1291 -2.1916
 7035TIP3    H242741   6.535   0.708   1.446 -0.8685 -0.6786  1.4628
 7036TIP3   OH242742   3.096   3.214   7.671 -0.3475 -0.4773  0.1983
 7036TIP3    H142743   3.128   3.296   7.708  0.3669 -1.3193  1.5174
 7036TIP3    H242744   3.003   3.230   7.655 -0.4021  0.3437  1.2009
 7037TIP3   OH242745   4.130   3.823   6.609  0.5925 -0.1163 -0.5657
 7037TIP3    H142746   4.185   3.749   6.632 -0.1433  0.1497  2.4198
 7037TIP3    H242747   4.192   3.895   6.596  1.2179 -0.9019 -2.2500
 7038TIP3   OH242748   4.059   6.049   8.425  0.3438  0.0885 -0.2901
 7038TIP3    H142749   4.111   5.968   8.422 -0.7098 -0.6217  0.1497
 7038TIP3    H242750   4.002   6.037   8.501 -0.8956  0.5854 -1.1333
 7039TIP3   OH242751   0.683   6.605   2.258 -0.2193 -0.3204  0.4628
 7039TIP3    H142752   0.728   6.671   2.206 -1.4893  1.5119  1.5766
 7039TIP3    H242753   0.611   6.575   2.202 -1.0028  0.9432  0.7453
 7040TIP3   OH242754   0.467   4.653   0.836 -0.1627  0.4518 -0.1058
 7040TIP3    H142755   0.488   4.629   0.746  1.5539  1.1160  0.0776
 7040TIP3    H242756   0.371   4.653   0.840 -0.2739 -1.4683 -1.4021
 7041TIP3   OH242757   0.037   0.546   8.421  0.8558  0.5375 -0.1104
 7041TIP3    H142758   0.022   0.507   8.507 -0.7240 -0.3116 -0.7158
 7041TIP3    H242759   0.040   0.640   8.437 -0.7145  0.4787  0.7471
 7042TIP3   OH242760   4.115   6.682   8.356  0.3915 -0.6042 -0.5336
 7042TIP3    H142761   4.117   6.648   8.445 -0.4707 -3.0215 -1.3629
 7042TIP3    H242762   4.139   6.774   8.365  0.6545 -0.8613  2.1341
 7043TIP3   OH242763   5.960   5.969   8.500 -0.1685 -0.5371 -0.5068
 7043TIP3    H142764   5.874   5.972   8.541 -0.4319 -1.5133 -0.9720
 7043TIP3    H242765   5.983   6.061   8.486  0.1647 -0.1011  2.2550
 7044TIP3   OH242766   4.118   3.356   1.554  0.1270  0.3605  0.1558
 7044TIP3    H142767   4.082   3.309   1.630 -0.2241 -0.4755 -0.5058
 7044TIP3    H242768   4.041   3.377   1.501  0.4418  0.1535 -0.3911
 7045TIP3   OH242769   2.317   4.367   1.110 -0.0615  0.1681  0.4518
 7045TIP3    H142770   2.261   4.297   1.143 -0.4119 -0.0175 -0.4948
 7045TIP3    H242771   2.401   4.355   1.154 -0.8565  0.6603  2.1705
 7046TIP3   OH242772   0.966   6.830   0.558  0.6307  0.1430 -0.5012
 7046TIP3    H142773   0.970   6.758   0.495 -0.2861  0.1537 -0.5884
 7046TIP3    H242774   1.055   6.838   0.591  0.3270 -2.7787  1.4346
 7047TIP3   OH242775   1.178   2.933   0.633 -0.0644 -0.2826 -0.3045
 7047TIP3    H142776   1.185   2.961   0.541 -0.7122  0.4238 -0.1491
 7047TIP3    H242777   1.262   2.892   0.652  0.7816  1.2157 -0.6622
 7048TIP3   OH242778   2.432   1.358   1.479  0.0918  0.2255  0.6860
 7048TIP3    H142779   2.490   1.314   1.418  1.1579  1.5452  0.6988
 7048TIP3    H242780   2.427   1.448   1.446 -0.4462  0.6022  1.7493
 7049TIP3   OH242781   2.960   5.805   7.039  0.6264  0.6246 -0.0076
 7049TIP3    H142782   2.976   5.897   7.062  4.7617  0.1713 -0.3828
 7049TIP3    H242783   3.002   5.794   6.954 -2.0086 -1.1232 -1.2112
 7050TIP3   OH242784   2.668   5.272   8.735 -0.1154  0.2784 -0.6260
 7050TIP3    H142785   2.633   5.239   8.818  1.7288  1.9308  0.8939
 7050TIP3    H242786   2.590   5.292   8.683 -1.3846  0.7916  1.3679
 7051TIP3   OH242787   6.247   1.563   0.110  0.4148 -0.3921  0.0536
 7051TIP3    H142788   6.162   1.568   0.065  0.4990  0.9988  0.0237
 7051TIP3    H242789   6.241   1.482   0.161 -0.7607 -0.5469 -0.2793
 7052TIP3   OH242790   5.014   3.584   0.285  0.4106 -0.2800  0.1231
 7052TIP3    H142791   5.063   3.664   0.267 -0.0032 -0.2143 -0.7725
 7052TIP3    H242792   5.070   3.535   0.345  0.2330  1.0861  1.4525
 7053TIP3   OH242793   3.203   4.177   0.344 -0.9551 -0.6789  0.0692
 7053TIP3    H142794   3.277   4.158   0.402 -0.9220 -1.3431 -0.1864
 7053TIP3    H242795   3.202   4.105   0.281 -0.3058  0.5582 -1.4429
 7054TIP3   OH242796   4.265   0.054   0.225 -0.2785  0.1609  0.0438
 7054TIP3    H142797   4.222   0.076   0.307  0.6719 -2.1926  1.2618
 7054TIP3    H242798   4.358   0.069   0.241 -0.0117 -0.9663 -0.3317
 7055TIP3   OH242799   4.528   5.549   1.021  0.6883  0.7449 -0.6239
 7055TIP3    H142800   4.445   5.502   1.019  0.8312  0.4375 -3.6627
 7055TIP3    H242801   4.553   5.550   1.114 -0.7829 -2.5346 -0.0548
 7056TIP3   OH242802   1.760   1.557   6.403  0.4480 -0.3392  0.2023
 7056TIP3    H142803   1.792   1.476   6.365  0.4388 -0.7498  1.0485
 7056TIP3    H242804   1.692   1.529   6.465  0.4879  0.3086  0.5456
 7057TIP3   OH242805   5.720   2.294   1.836 -0.2791 -0.2942 -0.3173
 7057TIP3    H142806   5.708   2.388   1.820  1.5842  0.3439  1.5397
 7057TIP3    H242807   5.644   2.253   1.795 -0.6537  1.9106 -2.0246
 7058TIP3   OH242808   1.586   2.198   8.318 -0.0536  0.4330 -0.4127
 7058TIP3    H142809   1.506   2.251   8.321 -0.0727  0.5072 -1.6892
 7058TIP3    H242810   1.631   2.217   8.400 -0.2398  2.1543 -0.6853
 7059TIP3   OH242811   3.556   6.525   1.460 -0.2634  0.4643 -0.1972
 7059TIP3    H142812   3.562   6.551   1.368  0.3931 -2.2872 -1.0411
 7059TIP3    H242813   3.619   6.454   1.469 -0.8043  0.1883  2.2225
 7060TIP3   OH242814   3.091   5.205   8.414  0.2311  0.5184  0.2263
 7060TIP3    H142815   3.023   5.216   8.481 -1.3987 -1.2535 -1.0444
 7060TIP3    H242816   3.173   5.222   8.461 -0.9471  1.0905  2.2230
 7061TIP3   OH242817   0.223   6.468   7.953  0.7024 -0.0877  0.0690
 7061TIP3    H142818   0.286   6.475   8.024  0.2706  1.3315  0.3375
 7061TIP3    H242819   0.241   6.543   7.897  0.8419 -1.0263 -1.1836
 7062TIP3   OH242820   2.077   0.904   8.679 -0.2875  0.0222  0.3634
 7062TIP3    H142821   2.094   0.831   8.738 -1.9360  0.5020  1.5202
 7062TIP3    H242822   2.135   0.974   8.709  2.3898 -1.1391 -1.6624
 7063TIP3   OH242823   4.696   1.081   7.636 -0.6888  0.1489 -0.3704
 7063TIP3    H142824   4.672   1.006   7.692  0.5566  0.4922  0.6829
 7063TIP3    H242825   4.757   1.131   7.689 -1.5326  1.9758 -1.0394
 7064TIP3   OH242826   1.331   3.950   8.780 -0.3042  0.1489 -0.0216
 7064TIP3    H142827   1.302   3.922   8.693  0.7378  1.1301 -0.7139
 7064TIP3    H242828   1.318   3.873   8.835 -0.8375 -0.5444 -1.0820
 7065TIP3   OH242829   3.221   4.260   8.377 -0.2842  0.2070  0.0922
 7065TIP3    H142830   3.184   4.207   8.306  1.1034 -2.4260  1.1705
 7065TIP3    H242831   3.182   4.223   8.456  0.9435  0.6345  0.9177
 7066TIP3   OH242832   3.064   0.466   1.566 -0.0898 -0.0078 -0.8960
 7066TIP3    H142833   3.127   0.475   1.637 -2.5937 -0.5079  1.6076
 7066TIP3    H242834   3.085   0.382   1.525  1.2692  0.1821 -0.6311
 7067TIP3   OH242835   2.245   0.790   7.749  0.1162  0.0844 -0.5981
 7067TIP3    H142836   2.172   0.759   7.694 -1.1631 -0.2302  1.2008
 7067TIP3    H242837   2.264   0.717   7.807 -0.6318  1.4174  1.4190
 7068TIP3   OH242838   6.181   2.271   1.821  0.2085 -0.0648  0.3045
 7068TIP3    H142839   6.162   2.186   1.782  0.4359  0.7376 -1.7041
 7068TIP3    H242840   6.230   2.318   1.753 -1.0283  2.1265  0.8092
 7069TIP3   OH242841   4.782   5.685   1.929  0.4971  0.3213 -0.0187
 7069TIP3    H142842   4.723   5.625   1.975 -1.0409  0.0655 -2.1398
 7069TIP3    H242843   4.837   5.627   1.875  1.5042  0.6621  0.6225
 7070TIP3   OH242844   4.516   0.895   7.787  0.0071  0.0874 -0.1739
 7070TIP3    H142845   4.446   0.959   7.798  0.7085  0.8939 -0.2783
 7070TIP3    H242846   4.490   0.844   7.710 -1.7642 -1.3986  1.3141
 7071TIP3   OH242847   2.716   1.973   8.513 -0.4705  0.0350 -0.1338
 7071TIP3    H142848   2.754   1.946   8.597 -1.4641 -0.1324  0.2693
 7071TIP3    H242849   2.623   1.984   8.531 -0.8686 -0.9194 -1.4295
 7072TIP3   OH242850   0.650   1.633   2.225  0.2520  0.0192 -0.1980
 7072TIP3    H142851   0.675   1.567   2.291 -0.2507  0.5643  0.5574
 7072TIP3    H242852   0.678   1.716   2.263  1.1368  0.2314 -1.2758
 7073TIP3   OH242853   4.420   3.420   7.469  0.4640 -0.1761  0.0661
 7073TIP3    H142854   4.465   3.465   7.397 -0.8528  0.1329 -0.5902
 7073TIP3    H242855   4.482   3.425   7.542  2.1213 -1.0783 -1.1882
 7074TIP3   OH242856   6.242   4.584   1.395  0.1547  0.5438 -0.7901
 7074TIP3    H142857   6.331   4.557   1.417 -0.6494 -0.8955  1.0088
 7074TIP3    H242858   6.227   4.546   1.308  1.9198  2.5289 -2.0408
 7075TIP3   OH242859   4.240   2.224   8.355  0.2201 -0.8190 -0.6884
 7075TIP3    H142860   4.332   2.242   8.336  0.2509 -0.4732 -0.2232
 7075TIP3    H242861   4.206   2.307   8.390 -0.1886 -1.0313 -0.5785
 7076TIP3   OH242862   3.015   5.340   2.120 -0.4725 -0.0934  0.3764
 7076TIP3    H142863   2.995   5.283   2.045  0.6606  0.8003 -0.6505
 7076TIP3    H242864   3.108   5.326   2.136  0.1683  2.3778 -0.7521
 7077TIP3   OH242865   0.003   5.873   7.504  0.1459 -0.6958  0.7541
 7077TIP3    H142866  -0.078   5.832   7.534 -0.7582  0.0121 -0.6457
 7077TIP3    H242867  -0.024   5.937   7.439  1.9735 -2.2286 -1.6989
 7078TIP3   OH242868   5.291   5.659   0.731 -0.1588 -0.2161  0.0497
 7078TIP3    H142869   5.306   5.751   0.709 -0.0254 -0.2304  0.0824
 7078TIP3    H242870   5.291   5.614   0.646  0.2222 -0.2511  0.0655
 7079TIP3   OH242871   3.532   2.316   7.853 -0.1859  0.1238  0.2089
 7079TIP3    H142872   3.507   2.407   7.869 -0.6243 -0.1628  1.2303
 7079TIP3    H242873   3.450   2.267   7.858  0.1334 -0.4104  0.3428
 7080TIP3   OH242874   5.120   2.381   1.589  0.1575  0.1085 -0.2740
 7080TIP3    H142875   5.139   2.343   1.503 -1.1907  2.1805 -1.5732
 7080TIP3    H242876   5.206   2.389   1.631  0.8623 -0.8020 -1.4820
 7081TIP3   OH242877   2.495   2.012   6.423  0.8681  0.4505  0.6490
 7081TIP3    H142878   2.479   1.992   6.515 -0.1739 -0.2865  0.3271
 7081TIP3    H242879   2.408   2.012   6.383  1.3228  0.5867 -0.3716
 7082TIP3   OH242880   5.509   0.585   0.142  0.2969 -0.0498 -0.2533
 7082TIP3    H142881   5.496   0.675   0.110 -1.2258  0.0465  0.5415
 7082TIP3    H242882   5.425   0.542   0.126  0.3586 -0.7521  1.1710
 7083TIP3   OH242883   3.048   0.572   0.300  0.8915  0.1744 -0.0863
 7083TIP3    H142884   3.099   0.543   0.224  1.9554 -1.4236  1.1748
 7083TIP3    H242885   3.071   0.664   0.310  1.9272  0.0114 -0.7978
 7084TIP3   OH242886   1.188   6.037   1.585 -0.1148 -0.0202 -0.2209
 7084TIP3    H142887   1.240   6.095   1.642 -0.2220 -0.2426  0.1068
 7084TIP3    H242888   1.195   6.077   1.498 -0.4070  0.6446  0.0495
 7085TIP3   OH242889   4.708   2.807   6.597 -0.2094  0.1583  0.5865
 7085TIP3    H142890   4.624   2.838   6.631  0.3077  2.2549  0.1095
 7085TIP3    H242891   4.767   2.882   6.608  1.9330 -1.5994  1.9603
 7086TIP3   OH242892   0.937   4.159   6.682 -0.3515 -0.0743  0.4432
 7086TIP3    H142893   0.908   4.149   6.773 -0.1936 -0.3860  0.4635
 7086TIP3    H242894   0.978   4.074   6.661  1.4912  0.6778  0.7642
 7087TIP3   OH242895   5.769   1.982   8.684 -0.0127 -0.4765 -0.4135
 7087TIP3    H142896   5.801   1.891   8.684  0.7507 -0.2168  0.0436
 7087TIP3    H242897   5.800   2.018   8.767 -1.7198 -0.2684  0.1632
 7088TIP3   OH242898   6.355   0.543   1.833  0.2798 -0.1394  0.1585
 7088TIP3    H142899   6.309   0.545   1.916 -0.7317 -1.3875 -0.3431
 7088TIP3    H242900   6.287   0.529   1.767  1.2934 -1.5127 -0.6594
 7089TIP3   OH242901   2.312   3.432   1.354 -0.3135 -0.5590 -0.0213
 7089TIP3    H142902   2.273   3.493   1.417  0.7734  0.3384 -0.1869
 7089TIP3    H242903   2.245   3.421   1.287  0.1240  1.9526 -0.9625
 7090TIP3   OH242904   3.425   6.825   7.537 -0.3167 -0.4076  0.1568
 7090TIP3    H142905   3.357   6.775   7.491  1.9494  0.1128 -4.3364
 7090TIP3    H242906   3.385   6.910   7.554 -1.6421 -1.0252  0.3072
 7091TIP3   OH242907   0.952   3.692   8.095 -0.8945 -0.0370 -0.3089
 7091TIP3    H142908   0.896   3.625   8.134 -0.8425 -0.2498 -0.5954
 7091TIP3    H242909   0.894   3.740   8.036 -0.6980 -0.4796 -0.8675
 7092TIP3   OH242910   2.262   4.999   8.085 -0.3749  0.0788 -0.0133
 7092TIP3    H142911   2.281   4.917   8.129  1.3341 -0.2336 -1.2325
 7092TIP3    H242912   2.196   4.977   8.019  0.0805 -0.3339 -0.3395
 7093TIP3   OH242913   5.030   1.820   1.585  0.5904  0.0919  0.0609
 7093TIP3    H142914   4.965   1.758   1.616  0.3265 -0.1884 -1.0334
 7093TIP3    H242915   5.042   1.880   1.659 -0.2551 -0.3648  0.5867
 7094TIP3   OH242916   4.287   0.958   8.593 -0.3259 -0.1837 -0.4467
 7094TIP3    H142917   4.243   1.030   8.638 -2.6063 -0.7662 -1.5809
 7094TIP3    H242918   4.292   0.888   8.659  1.2093  0.6990  0.4277
 7095TIP3   OH242919   1.690   2.112   2.753  0.0294  0.3512 -0.6371
 7095TIP3    H142920   1.649   2.195   2.729  0.0685  0.2813 -0.9446
 7095TIP3    H242921   1.694   2.114   2.849  0.0434  0.7092 -0.6445
 7096TIP3   OH242922   6.086   5.534   1.231  0.0798 -0.2973  0.2453
 7096TIP3    H142923   6.047   5.590   1.163 -0.0731 -1.0514 -0.2939
 7096TIP3    H242924   6.019   5.468   1.249  0.1469 -0.1497  1.0888
 7097TIP3   OH242925   5.050   6.300   7.068 -0.0383  0.3157 -0.2204
 7097TIP3    H142926   5.117   6.365   7.045  0.5630 -0.6097 -1.1208
 7097TIP3    H242927   4.993   6.347   7.130  2.1600  0.7445  1.6407
 7098TIP3   OH242928   2.122   4.709   1.386  0.3475  0.3193  0.7136
 7098TIP3    H142929   2.048   4.753   1.427  0.2840  2.1127 -1.1649
 7098TIP3    H242930   2.102   4.616   1.394 -2.3686  0.7393 -0.1493
 7099TIP3   OH242931   5.009   6.826   1.708 -0.4113 -0.0295  0.5382
 7099TIP3    H142932   5.075   6.895   1.704  1.7037 -1.7956  2.1795
 7099TIP3    H242933   4.983   6.823   1.800  0.6431 -2.2512  0.8545
 7100TIP3   OH242934   6.243   1.991   1.616  0.1898 -0.3732 -0.3574
 7100TIP3    H142935   6.258   2.046   1.539 -0.5476  0.9057  0.3787
 7100TIP3    H242936   6.317   2.011   1.675 -0.4675  0.4390  0.2237
 7101TIP3   OH242937   1.946   0.059   0.242  0.4622 -0.8828 -0.0715
 7101TIP3    H142938   2.034   0.092   0.262  0.5733 -1.5881  0.6764
 7101TIP3    H242939   1.947   0.041   0.148  0.4820  0.9504 -0.4635
 7102TIP3   OH242940   5.484   6.551   2.501  0.3684  0.7828 -0.1373
 7102TIP3    H142941   5.543   6.476   2.509 -0.7117 -0.3327 -2.0298
 7102TIP3    H242942   5.397   6.513   2.490 -0.6287  2.3723  1.5939
 7103TIP3   OH242943   5.053   5.686   8.290  0.0922  0.0157  0.0809
 7103TIP3    H142944   5.117   5.689   8.219  0.6998 -1.8251  0.4907
 7103TIP3    H242945   5.103   5.658   8.366 -1.2383 -2.1606  0.2609
 7104TIP3   OH242946   2.620   1.119   0.049 -0.2976  0.6228  0.0136
 7104TIP3    H142947   2.563   1.191   0.023 -0.7555  0.6728  1.1021
 7104TIP3    H242948   2.708   1.157   0.048 -0.6371  1.5590  1.6565
 7105TIP3   OH242949   2.625   4.078   7.858 -0.1694  1.2076 -0.3337
 7105TIP3    H142950   2.552   4.055   7.802 -0.4491 -0.2382  0.5563
 7105TIP3    H242951   2.671   4.148   7.812 -1.3966  1.2805 -1.4844
 7106TIP3   OH242952   3.533   4.934   8.492  0.3101  0.6211 -0.0127
 7106TIP3    H142953   3.563   4.851   8.528  0.7501  0.4804 -0.6887
 7106TIP3    H242954   3.476   4.909   8.419  1.3392  0.9005 -0.9423
 7107TIP3   OH242955   5.459   3.119   6.772  0.5722 -0.0521 -0.1385
 7107TIP3    H142956   5.484   3.198   6.820 -1.6023  0.5228  0.1608
 7107TIP3    H242957   5.532   3.103   6.712  0.9501  2.3648 -0.4313
 7108TIP3   OH242958   3.822   0.288   1.382 -0.3919  0.3742 -0.2723
 7108TIP3    H142959   3.797   0.380   1.374 -0.3684  0.4104  0.0350
 7108TIP3    H242960   3.874   0.284   1.463  0.1538  0.2030 -0.6266
 7109TIP3   OH242961   3.880   6.306   7.396  0.3022  0.1557 -0.0742
 7109TIP3    H142962   3.796   6.349   7.381 -0.2070 -0.5235  0.7856
 7109TIP3    H242963   3.940   6.349   7.334 -0.1071  2.2862  0.9245
 7110TIP3   OH242964   3.240   1.426   0.674  0.3626  0.1323 -0.1788
 7110TIP3    H142965   3.298   1.447   0.601  0.2456  2.5634  0.3499
 7110TIP3    H242966   3.152   1.445   0.641 -0.2623 -3.2789 -0.8908
 7111TIP3   OH242967   0.663   5.519   7.470 -0.7409 -0.3131 -0.0038
 7111TIP3    H142968   0.631   5.493   7.383  1.6994 -0.6659 -0.8746
 7111TIP3    H242969   0.741   5.465   7.484 -0.5002  0.4648  1.9908
 7112TIP3   OH242970   3.717   5.023   0.448  0.4458  0.0253 -0.1614
 7112TIP3    H142971   3.660   4.989   0.516  1.4674 -1.5030 -0.0257
 7112TIP3    H242972   3.672   5.101   0.416  0.2107  1.2192  2.6992
 7113TIP3   OH242973   5.252   0.180   7.761 -0.3441  0.4435  0.2459
 7113TIP3    H142974   5.221   0.158   7.674  0.3411  0.5611 -0.0387
 7113TIP3    H242975   5.346   0.197   7.749 -0.2227  0.3575  1.0191
 7114TIP3   OH242976   1.250   5.551   0.635 -0.5217  0.3813 -0.2789
 7114TIP3    H142977   1.307   5.519   0.705 -1.9280  1.3994  1.4349
 7114TIP3    H242978   1.290   5.634   0.608 -1.2583  1.2426  1.1268
 7115TIP3   OH242979   5.066   3.485   7.422  0.1821 -0.0178 -0.1962
 7115TIP3    H142980   5.101   3.398   7.400  1.2149  0.8474 -2.3164
 7115TIP3    H242981   5.035   3.520   7.338 -2.3231  0.8168  0.9831
 7116TIP3   OH242982   0.603   0.506   8.655  0.4788 -0.4592 -0.1251
 7116TIP3    H142983   0.533   0.441   8.662  0.2109 -0.3065 -1.2263
 7116TIP3    H242984   0.678   0.465   8.697  0.0790 -1.1353 -0.0486
 7117TIP3   OH242985   2.490   4.505   7.349 -0.2679  0.2440 -0.3066
 7117TIP3    H142986   2.519   4.538   7.434 -0.1935 -1.6612  0.4634
 7117TIP3    H242987   2.558   4.443   7.322 -1.0938 -0.4192 -0.9556
 7118TIP3   OH242988   5.408   2.228   0.394 -0.3359 -0.1552  0.1996
 7118TIP3    H142989   5.319   2.210   0.362 -0.5298 -0.8315  1.0674
 7118TIP3    H242990   5.396   2.293   0.463 -0.3408 -1.2290  1.2534
 7119TIP3   OH242991   6.135   2.426   2.453 -0.1780 -0.1057 -0.2518
 7119TIP3    H142992   6.214   2.473   2.427  2.3958 -2.7247  2.0660
 7119TIP3    H242993   6.113   2.372   2.377 -0.4821  1.4261 -1.3010
 7120TIP3   OH242994   6.635   1.349   1.908  0.3018 -0.0645  0.6937
 7120TIP3    H142995   6.704   1.288   1.934  0.3195  0.7146  2.7243
 7120TIP3    H242996   6.570   1.342   1.978 -0.4224  1.1234  0.1677
 7121TIP3   OH242997   2.880   0.360   7.994  0.4332 -0.6767  0.2912
 7121TIP3    H142998   2.876   0.451   7.966  0.5541 -0.1695  1.7939
 7121TIP3    H242999   2.794   0.324   7.974  0.8761 -0.7099 -1.7374
 7122TIP3   OH243000   0.094   1.629   8.174  0.5353 -0.1714 -0.6172
 7122TIP3    H143001   0.170   1.659   8.125  1.4418 -2.0290 -0.4176
 7122TIP3    H243002   0.129   1.577   8.246 -0.8876 -1.4899 -0.7980
 7123TIP3   OH243003   5.431   3.899   6.467 -0.1244  0.1636  0.0790
 7123TIP3    H143004   5.370   3.866   6.401 -0.3971  0.8326 -0.0094
 7123TIP3    H243005   5.508   3.926   6.418 -0.2759  0.5401  0.0474
 7124TIP3   OH243006   0.658   6.513   6.637  0.3678  0.6337  1.1335
 7124TIP3    H143007   0.578   6.513   6.689 -0.0608  0.5008  0.4871
 7124TIP3    H243008   0.646   6.584   6.574  0.9274  0.8693  1.2852
 7125TIP3   OH243009   0.445   4.401   7.979 -0.2603 -0.2754  0.2295
 7125TIP3    H143010   0.499   4.322   7.981  1.5167  0.8852 -0.1570
 7125TIP3    H243011   0.441   4.424   7.886 -0.4319  0.3096  0.3822
 7126TIP3   OH243012   3.450   3.857   0.059  0.4140  0.6590  0.3397
 7126TIP3    H143013   3.371   3.842   0.112  0.3082  0.3611  0.0991
 7126TIP3    H243014   3.519   3.872   0.123  0.3702 -0.1076  0.5807
 7127TIP3   OH243015   1.577   2.492   7.285 -0.0377 -0.0193  0.0482
 7127TIP3    H143016   1.525   2.494   7.365 -0.5188 -1.0965 -0.2212
 7127TIP3    H243017   1.645   2.559   7.298 -1.0081  0.8552  0.7274
 7128TIP3   OH243018   2.345   0.527   2.541  0.6362 -0.9054  0.0891
 7128TIP3    H143019   2.425   0.526   2.594  0.4732  1.0996  0.4670
 7128TIP3    H243020   2.350   0.609   2.492 -1.1431 -0.7781  0.0688
 7129TIP3   OH243021   6.238   6.760   1.057 -0.0435  0.5226  0.2261
 7129TIP3    H143022   6.231   6.839   1.002  2.2134  0.8502  0.3335
 7129TIP3    H243023   6.302   6.784   1.124  3.0773 -2.2784 -1.4577
 7130TIP3   OH243024   2.493   5.930   0.930  0.2544 -0.0349 -0.3769
 7130TIP3    H143025   2.538   5.941   0.846 -0.9718  0.8287 -0.9517
 7130TIP3    H243026   2.431   5.859   0.916 -1.5553  1.5896 -0.9493
 7131TIP3   OH243027   1.832   2.726   0.627  0.3567  0.0995 -0.0803
 7131TIP3    H143028   1.784   2.702   0.548 -1.2464  0.4450  0.7629
 7131TIP3    H243029   1.810   2.657   0.690  0.8828  0.3219  0.3548
 7132TIP3   OH243030   1.800   2.085   0.501 -0.1840 -0.6102 -0.0913
 7132TIP3    H143031   1.765   2.057   0.416  1.7148  0.3025 -1.2446
 7132TIP3    H243032   1.811   2.004   0.550  0.1988 -1.3439 -1.3432
 7133TIP3   OH243033   0.782   0.330   8.477 -0.4116  0.1689  0.1039
 7133TIP3    H143034   0.845   0.348   8.408  1.7880 -0.7881  1.7187
 7133TIP3    H243035   0.719   0.402   8.473  1.5761  1.9469 -0.7543
 7134TIP3   OH243036   2.364   5.877   1.537 -0.8453 -0.3887 -0.7940
 7134TIP3    H143037   2.285   5.909   1.493 -1.7463  0.8846  1.5618
 7134TIP3    H243038   2.331   5.817   1.604  0.3567 -1.2839 -0.9796
 7135TIP3   OH243039   2.035   2.134   7.256 -0.8462 -0.4402 -0.2208
 7135TIP3    H143040   1.988   2.217   7.264 -0.6911 -0.1801 -1.7431
 7135TIP3    H243041   1.975   2.069   7.294 -0.5922  0.4545  1.8314
 7136TIP3   OH243042   5.951   3.650   6.248 -0.4583  0.3710 -0.0820
 7136TIP3    H143043   5.894   3.587   6.206  1.0479 -0.0974 -1.5179
 7136TIP3    H243044   6.000   3.599   6.313 -2.0634  0.9048  1.6689
 7137TIP3   OH243045   4.193   6.499   2.160 -0.1968 -0.1804 -0.3477
 7137TIP3    H143046   4.110   6.472   2.199 -0.9630  2.0693 -0.2842
 7137TIP3    H243047   4.256   6.492   2.231 -0.9299  0.8041  0.4220
 7138TIP3   OH243048   3.945   0.464   7.715  0.3477 -0.2641 -0.4323
 7138TIP3    H143049   3.962   0.482   7.623  1.4437  1.6877  0.0846
 7138TIP3    H243050   3.884   0.532   7.742  2.2853  1.0232  0.9293
 7139TIP3   OH243051   2.710   4.617   0.992 -0.1664 -0.6088  0.4289
 7139TIP3    H143052   2.649   4.564   1.044 -0.0929 -2.0521 -0.8494
 7139TIP3    H243053   2.665   4.628   0.908  0.5519 -0.1008  0.1019
 7140TIP3   OH243054   4.643   4.045   6.991 -0.7070 -0.1469  0.9603
 7140TIP3    H143055   4.559   4.057   7.035 -0.3709 -1.6676  2.1111
 7140TIP3    H243056   4.648   3.951   6.975  0.4771  0.0118  0.2958
 7141TIP3   OH243057   3.219   2.950   7.565 -0.3795  0.2064 -1.0078
 7141TIP3    H143058   3.271   3.030   7.557 -0.3056  0.2202 -0.4174
 7141TIP3    H243059   3.191   2.948   7.657 -0.4007 -0.4306 -1.0235
 7142TIP3   OH243060   5.297   0.130   8.682 -0.2346  0.0027  0.1044
 7142TIP3    H143061   5.356   0.066   8.640  0.6509  0.4992  0.5799
 7142TIP3    H243062   5.334   0.215   8.660 -0.6852  0.3216  0.5666
 7143TIP3   OH243063   3.436   3.508   0.706 -0.1011  0.1554 -0.1466
 7143TIP3    H143064   3.473   3.436   0.656  1.4835  0.7523  0.1021
 7143TIP3    H243065   3.497   3.580   0.692 -1.7486  1.5512 -0.5771
 7144TIP3   OH243066   3.372   2.654   7.619  0.4101 -0.4728  0.1430
 7144TIP3    H143067   3.281   2.677   7.639  0.2901 -0.8765  0.0749
 7144TIP3    H243068   3.404   2.612   7.698  0.0759 -1.6643 -0.3391
 7145TIP3   OH243069   4.399   4.268   8.679 -0.1965  0.5980  0.1696
 7145TIP3    H143070   4.475   4.259   8.622  0.1513  0.0332  0.7018
 7145TIP3    H243071   4.419   4.345   8.733 -0.7671  1.4518 -0.8161
 7146TIP3   OH243072   4.594   2.344   1.510  0.3133 -0.3991  0.0020
 7146TIP3    H143073   4.658   2.326   1.578 -1.0687  0.1429  1.5243
 7146TIP3    H243074   4.528   2.275   1.519 -1.1631  1.0337  0.9447
 7147TIP3   OH243075   1.053   2.201   8.162 -0.0420 -0.3543  0.1297
 7147TIP3    H143076   1.032   2.111   8.140  0.0835 -0.1002 -1.1283
 7147TIP3    H243077   1.075   2.199   8.255 -3.3277 -1.0329  1.0268
 7148TIP3   OH243078   0.206   3.759   6.791 -0.0143  0.5919  0.2911
 7148TIP3    H143079   0.171   3.785   6.876  0.6293  1.7428  0.2306
 7148TIP3    H243080   0.186   3.833   6.734  2.9757  1.6312  0.3953
 7149TIP3   OH243081   0.753   5.881   0.598 -0.3593 -0.3437  0.6642
 7149TIP3    H143082   0.698   5.836   0.535 -0.2748 -0.9195  0.9968
 7149TIP3    H243083   0.842   5.862   0.571 -0.3203 -0.8259  1.1113
 7150TIP3   OH243084   3.974   2.928   8.097  0.2193 -0.2579 -0.0530
 7150TIP3    H143085   3.888   2.969   8.083  0.4902  0.2303 -0.3317
 7150TIP3    H243086   4.004   2.906   8.009  0.6145  0.0691 -0.0022
 7151TIP3   OH243087   0.996   5.708   8.371  0.1224 -0.4873  0.3437
 7151TIP3    H143088   0.934   5.759   8.424  0.2442 -1.8613  1.8794
 7151TIP3    H243089   1.057   5.671   8.435  1.6981 -0.3359 -1.0028
 7152TIP3   OH243090   6.678   4.167   1.122  0.4012  0.5847  0.5813
 7152TIP3    H143091   6.648   4.257   1.131  0.2260  0.5724  0.1550
 7152TIP3    H243092   6.682   4.153   1.028  0.7503  0.2534  0.6455
 7153TIP3   OH243093   2.471   6.130   1.572 -0.0871  0.4341 -0.4302
 7153TIP3    H143094   2.489   6.125   1.666 -0.9909  0.0847 -0.2597
 7153TIP3    H243095   2.422   6.050   1.553 -1.8478  1.5202 -0.7254
 7154TIP3   OH243096   5.037   4.865   0.901  0.3050 -0.2979 -0.1629
 7154TIP3    H143097   5.001   4.948   0.932  0.1910 -0.8650  1.3021
 7154TIP3    H243098   5.094   4.836   0.972  0.3640 -1.4659 -0.6722
 7155TIP3   OH243099   2.659   1.501   1.279  0.2344  0.1529  0.1255
 7155TIP3    H143100   2.596   1.466   1.215  0.0636  0.4606  0.1231
 7155TIP3    H243101   2.629   1.590   1.295  2.0460  1.1853 -1.7283
 7156TIP3   OH243102   3.011   4.384   6.804  0.4029  0.3228 -0.1982
 7156TIP3    H143103   3.065   4.380   6.725 -0.8740  2.1961 -1.2434
 7156TIP3    H243104   2.975   4.296   6.813  0.9592 -0.0513 -1.4207
 7157TIP3   OH243105   2.095   6.307   7.698 -0.3169 -0.1880  0.3899
 7157TIP3    H143106   2.102   6.267   7.784 -1.3247 -1.1230  0.0614
 7157TIP3    H243107   2.176   6.283   7.653  1.5131  2.5372  1.8962
 7158TIP3   OH243108   2.147   6.654   1.973  0.2946 -0.7447  0.2978
 7158TIP3    H143109   2.097   6.641   1.893  0.2629 -0.5253  0.2803
 7158TIP3    H243110   2.083   6.647   2.044  0.2988 -0.8035  0.2957
 7159TIP3   OH243111   0.264   4.653   8.589 -0.2795  0.0225 -0.6625
 7159TIP3    H143112   0.179   4.616   8.564 -0.4504 -0.9131  1.0990
 7159TIP3    H243113   0.328   4.597   8.547 -0.5519 -0.4080 -0.5116
 7160TIP3   OH243114   1.203   0.835   7.501 -0.5370  0.2390  0.2287
 7160TIP3    H143115   1.286   0.801   7.534 -0.5990  0.6388  0.8168
 7160TIP3    H243116   1.178   0.774   7.432  0.8457  0.7836 -0.8159
 7161TIP3   OH243117   1.095   5.912   8.608  0.3802  0.1827  0.2154
 7161TIP3    H143118   1.084   5.956   8.523  0.1420  1.3546  0.8257
 7161TIP3    H243119   1.006   5.904   8.642  0.4655 -0.3948  0.3071
 7162TIP3   OH243120   5.123   5.449   0.295 -0.3368  0.3864 -0.3343
 7162TIP3    H143121   5.075   5.493   0.365  0.0570  0.7466 -0.2921
 7162TIP3    H243122   5.215   5.459   0.317 -0.2182 -2.8295  1.1463
 7163TIP3   OH243123   4.004   5.819   7.215  0.2055 -0.4836  0.3442
 7163TIP3    H143124   4.004   5.753   7.284  0.6526 -2.1441 -1.1648
 7163TIP3    H243125   4.034   5.772   7.137  1.8029  1.7998 -0.5300
 7164TIP3   OH243126   3.025   6.778   6.626  0.2181 -0.5441  0.4073
 7164TIP3    H143127   3.079   6.710   6.587  0.6712 -0.1293  0.3084
 7164TIP3    H243128   2.940   6.770   6.582  0.8854  0.2929 -1.1083
 7165TIP3   OH243129   2.133   2.804   6.525 -0.7238 -0.0737  0.2573
 7165TIP3    H143130   2.203   2.764   6.577  1.0984  3.4046  0.7934
 7165TIP3    H243131   2.150   2.776   6.435  0.0264 -1.0441  0.6883
 7166TIP3   OH243132   5.260   3.962   8.104  0.2129 -0.0625  0.2380
 7166TIP3    H143133   5.303   4.001   8.180 -0.0391  0.7454 -0.0232
 7166TIP3    H243134   5.224   3.879   8.136  0.2138  0.2126  0.9654
 7167TIP3   OH243135   5.833   6.714   0.610  0.0271  0.1968 -0.1766
 7167TIP3    H143136   5.780   6.745   0.683  0.2875 -1.7884  0.9373
 7167TIP3    H243137   5.777   6.724   0.533 -0.5363  1.6249  0.3795
 7168TIP3   OH243138   4.161   0.755   1.587  0.1398 -0.1441  0.0349
 7168TIP3    H143139   4.127   0.814   1.655 -3.5668 -0.0418 -1.6506
 7168TIP3    H243140   4.087   0.697   1.567  1.4220 -0.9073 -3.1014
 7169TIP3   OH243141   0.729   5.767   1.171 -0.1578 -0.1224 -0.3695
 7169TIP3    H143142   0.815   5.786   1.209  0.1044 -0.0921 -0.9734
 7169TIP3    H243143   0.727   5.817   1.089 -1.1825  0.7504  0.1613
 7170TIP3   OH243144   1.347   3.802   0.180  0.2269 -0.1170  0.4287
 7170TIP3    H143145   1.318   3.811   0.270 -0.4385  0.1354  0.1984
 7170TIP3    H243146   1.322   3.713   0.155 -0.6169  0.1821  0.1518
 7171TIP3   OH243147   4.968   0.334   1.223 -0.7072 -0.6407 -0.0815
 7171TIP3    H143148   5.012   0.387   1.289  0.6568  0.0037 -1.4374
 7171TIP3    H243149   4.994   0.244   1.243  0.3009 -0.3795 -0.1535
 7172TIP3   OH243150   0.136   3.094   8.250 -0.3288 -0.5306  0.4825
 7172TIP3    H143151   0.078   3.152   8.299 -0.3357 -0.3510  0.2589
 7172TIP3    H243152   0.209   3.077   8.311 -1.2143 -1.7640  1.2402
 7173TIP3   OH243153   4.686   4.564   7.836 -0.3029  0.1659 -0.1628
 7173TIP3    H143154   4.765   4.616   7.821 -1.1706  1.1317 -1.6494
 7173TIP3    H243155   4.618   4.610   7.789 -1.8915 -0.3938  1.4782
 7174TIP3   OH243156   5.135   5.457   7.926  0.2377  0.3816 -0.0435
 7174TIP3    H143157   5.185   5.441   7.846  0.0062  1.5203 -0.4289
 7174TIP3    H243158   5.070   5.523   7.902 -0.7453 -0.2593  0.7378
 7175TIP3   OH243159   6.651   6.478   8.365 -0.2784  0.0695 -0.1875
 7175TIP3    H143160   6.728   6.482   8.422 -0.0103  1.1880 -0.6020
 7175TIP3    H243161   6.674   6.414   8.298  0.9052  1.4001 -1.1298
 7176TIP3   OH243162   0.379   0.415   0.353 -0.4086 -0.2076 -0.2640
 7176TIP3    H143163   0.436   0.473   0.302 -0.2097  2.4624  2.6522
 7176TIP3    H243164   0.439   0.364   0.406 -0.6100  0.7805  0.9641
 7177TIP3   OH243165   3.397   6.412   8.551 -0.6367  0.6005  0.3813
 7177TIP3    H143166   3.477   6.457   8.524 -0.2491 -0.1743  0.1866
 7177TIP3    H243167   3.328   6.452   8.498 -0.1633  0.3596 -0.4434
 7178TIP3   OH243168   2.458   3.434   8.070 -0.4301 -0.6489  0.4535
 7178TIP3    H143169   2.484   3.468   8.155  1.9579  0.8051 -0.7282
 7178TIP3    H243170   2.396   3.498   8.036  1.1827  0.6250 -0.2144
 7179TIP3   OH243171   1.841   1.779   8.623 -0.1954  0.5401  0.2335
 7179TIP3    H143172   1.764   1.771   8.567 -0.8971  0.8326  1.1264
 7179TIP3    H243173   1.909   1.729   8.579 -1.3615 -1.1335  0.2473
 7180TIP3   OH243174   2.105   2.612   0.087 -0.4957 -0.5213  0.0496
 7180TIP3    H143175   2.122   2.636  -0.003 -1.5020 -0.4198 -0.1325
 7180TIP3    H243176   2.175   2.551   0.110 -0.2287 -0.5415 -0.7917
 7181TIP3   OH243177   5.480   1.786   1.044 -0.0603  0.5696  0.2960
 7181TIP3    H143178   5.505   1.694   1.044  0.7816  0.7875 -0.3187
 7181TIP3    H243179   5.396   1.789   0.998 -1.1800 -0.1381  2.1589
 7182TIP3   OH243180   6.848   5.550   7.981  0.2033 -0.1594 -0.2996
 7182TIP3    H143181   6.897   5.600   7.915 -1.8269  1.9078 -0.3304
 7182TIP3    H243182   6.773   5.605   8.003 -0.3429 -1.7528  2.1932
 7183LIG      O43183   0.613   1.338   2.077  0.4557  0.0757 -0.7868
 7183LIG     C143184   0.566   1.324   1.943  0.1533  0.2994 -0.1210
 7183LIG     C243185   0.624   1.202   1.880 -0.3218 -0.0225  0.2835
 7183LIG     C343186   0.420   1.290   1.951  0.2155  0.1976 -0.1875
 7183LIG     H143187   0.579   1.421   1.890  1.9708  1.0516  1.5490
 7183LIG     H243188   0.729   1.230   1.856 -0.2020  1.3129  2.1213
 7183LIG     H343189   0.570   1.181   1.786 -0.0308  2.4026 -0.5055
 7183LIG     H443190   0.616   1.110   1.941  1.2233 -0.2942  0.1003
 7183LIG     H543191   0.370   1.297   1.853 -0.1042  0.9537  0.0193
 7183LIG     H643192   0.353   1.353   2.014  0.1131  0.5051 -0.5983
 7183LIG     H743193   0.406   1.189   1.994 -2.7168 -0.7672 -3.0090
 7183LIG     H843194   0.700   1.376   2.066  0.7030  0.3520  1.7466
   6.86027   6.86027   8.81537
